 Entering Gaussian System, Link 0=g16
 Initial command:
 /home/alexey/programs//g16/l1.exe "/home/alexey/tmp/Gau-1264041.inp" -scrdir="/home/alexey/tmp/"
 Entering Link 1 = /home/alexey/programs//g16/l1.exe PID=   1264043.
  
 Copyright (c) 1988-2021, Gaussian, Inc.  All Rights Reserved.
  
 This is part of the Gaussian(R) 16 program.  It is based on
 the Gaussian(R) 09 system (copyright 2009, Gaussian, Inc.),
 the Gaussian(R) 03 system (copyright 2003, Gaussian, Inc.),
 the Gaussian(R) 98 system (copyright 1998, Gaussian, Inc.),
 the Gaussian(R) 94 system (copyright 1995, Gaussian, Inc.),
 the Gaussian 92(TM) system (copyright 1992, Gaussian, Inc.),
 the Gaussian 90(TM) system (copyright 1990, Gaussian, Inc.),
 the Gaussian 88(TM) system (copyright 1988, Gaussian, Inc.),
 the Gaussian 86(TM) system (copyright 1986, Carnegie Mellon
 University), and the Gaussian 82(TM) system (copyright 1983,
 Carnegie Mellon University). Gaussian is a federally registered
 trademark of Gaussian, Inc.
  
 This software contains proprietary and confidential information,
 including trade secrets, belonging to Gaussian, Inc.
  
 This software is provided under written license and may be
 used, copied, transmitted, or stored only in accord with that
 written license.
  
 The following legend is applicable only to US Government
 contracts under FAR:
  
                    RESTRICTED RIGHTS LEGEND
  
 Use, reproduction and disclosure by the US Government is
 subject to restrictions as set forth in subparagraphs (a)
 and (c) of the Commercial Computer Software - Restricted
 Rights clause in FAR 52.227-19.
  
 Gaussian, Inc.
 340 Quinnipiac St., Bldg. 40, Wallingford CT 06492
  
  
 ---------------------------------------------------------------
 Warning -- This program may not be used in any manner that
 competes with the business of Gaussian, Inc. or will provide
 assistance to any competitor of Gaussian, Inc.  The licensee
 of this program is prohibited from giving any competitor of
 Gaussian, Inc. access to this program.  By using this program,
 the user acknowledges that Gaussian, Inc. is engaged in the
 business of creating and licensing software in the field of
 computational chemistry and represents and warrants to the
 licensee that it is not a competitor of Gaussian, Inc. and that
 it will not use this program in any manner prohibited above.
 ---------------------------------------------------------------
  

 Cite this work as:
 Gaussian 16, Revision C.02,
 M. J. Frisch, G. W. Trucks, H. B. Schlegel, G. E. Scuseria, 
 M. A. Robb, J. R. Cheeseman, G. Scalmani, V. Barone, 
 G. A. Petersson, H. Nakatsuji, X. Li, M. Caricato, A. V. Marenich, 
 J. Bloino, B. G. Janesko, R. Gomperts, B. Mennucci, H. P. Hratchian, 
 J. V. Ortiz, A. F. Izmaylov, J. L. Sonnenberg, D. Williams-Young, 
 F. Ding, F. Lipparini, F. Egidi, J. Goings, B. Peng, A. Petrone, 
 T. Henderson, D. Ranasinghe, V. G. Zakrzewski, J. Gao, N. Rega, 
 G. Zheng, W. Liang, M. Hada, M. Ehara, K. Toyota, R. Fukuda, 
 J. Hasegawa, M. Ishida, T. Nakajima, Y. Honda, O. Kitao, H. Nakai, 
 T. Vreven, K. Throssell, J. A. Montgomery, Jr., J. E. Peralta, 
 F. Ogliaro, M. J. Bearpark, J. J. Heyd, E. N. Brothers, K. N. Kudin, 
 V. N. Staroverov, T. A. Keith, R. Kobayashi, J. Normand, 
 K. Raghavachari, A. P. Rendell, J. C. Burant, S. S. Iyengar, 
 J. Tomasi, M. Cossi, J. M. Millam, M. Klene, C. Adamo, R. Cammi, 
 J. W. Ochterski, R. L. Martin, K. Morokuma, O. Farkas, 
 J. B. Foresman, and D. J. Fox, Gaussian, Inc., Wallingford CT, 2019.
 
 ******************************************
 Gaussian 16:  ES64L-G16RevC.02  7-Dec-2021
                 1-Jul-2023 
 ******************************************
 %mem=8GB
 %NPROCS=4
 Will use up to    4 processors via shared memory.
 %NoSave
 ---------------------------------------------------------
 #MP2/6-31G* SCF=Tight Opt=(ModRedun, MaxCycle=20 ) NoSymm
 ---------------------------------------------------------
 1/6=20,18=120,19=15,38=1/1,3;
 2/9=110,12=2,15=1,17=6,18=5,40=1/2;
 3/5=1,6=6,7=1,11=9,25=1,30=1,71=1/1,2,3;
 4//1;
 5/5=2,32=2,38=5/2;
 8/6=4,10=2/1;
 9/15=2,16=-3/6;
 10/5=1,31=1/2;
 6/7=2,8=2,9=2,10=2/1;
 7/12=2,30=1/1,2,3,16;
 1/6=20,18=20,19=15/3(2);
 2/9=110,15=1/2;
 99//99;
 2/9=110,15=1/2;
 3/5=1,6=6,7=1,11=9,25=1,30=1,71=1/1,2,3;
 4/5=5,16=3,69=1/1;
 5/5=2,32=2,38=5/2;
 8/6=4,10=2/1;
 9/15=2,16=-3/6;
 10/5=1,31=1/2;
 7/12=2,30=1/1,2,3,16;
 1/6=20,18=20,19=15/3(-8);
 2/9=110,15=1/2;
 6/7=2,8=2,9=2,10=2/1;
 99/9=10/99;
 --------
 MolName:
 --------
 Symbolic Z-matrix:
 Charge =  0 Multiplicity = 1
 8                    0    -3.56875  -1.49828  -0.07019 
 7                    0    -3.23583  -0.32826   0.10942 
 8                    0    -4.02675   0.57769   0.37432 
 6                    0    -1.75901   0.01631  -0.03827 
 6                    0    -1.36995   1.30751   0.33945 
 7                    0    -0.08955   1.78896   0.24697 
 6                    0     1.18398   1.0072    0.28747 
 1                    0     1.81195   1.50808   1.06986 
 6                    0     2.01788   1.04588  -1.01673 
 6                    0     3.41376   0.45056  -0.75311 
 6                    0     3.31037  -0.962    -0.15684 
 6                    0     2.39678  -0.98386   1.08798 
 6                    0     0.97689  -0.43556   0.77607 
 1                    0     0.39393  -0.46792   1.72657 
 7                    0     0.35885  -1.3      -0.2357 
 6                    0    -0.86822  -1.0518   -0.5725 
 1                    0    -2.11882   1.97503   0.79733 
 1                    0     0.1185    2.74559  -0.04977 
 1                    0     1.50501   0.46892  -1.81561 
 1                    0     2.13064   2.09335  -1.36865 
 1                    0     3.99754   0.41818  -1.69901 
 1                    0     3.95958   1.10325  -0.03561 
 1                    0     2.895    -1.65063  -0.92703 
 1                    0     4.32279  -1.33369   0.11329 
 1                    0     2.31116  -2.02859   1.45952 
 1                    0     2.85829  -0.37534   1.89392 
 1                    0    -1.365    -1.72758  -1.28514 
 
 The following ModRedundant input section has been read:
 D      17       5       6       7 F                                           
 D       1       2       4      16 F                                           
 D       7      13      15      16 F                                           
 D       7       9      10      11 F                                           
 D       9      10      11      12 F                                           
 D       6       7      13      15 F                                           
 

 GradGradGradGradGradGradGradGradGradGradGradGradGradGradGradGradGradGrad
 Berny optimization.
 Initialization pass.
                           ----------------------------
                           !    Initial Parameters    !
                           ! (Angstroms and Degrees)  !
 --------------------------                            --------------------------
 ! Name  Definition              Value          Derivative Info.                !
 --------------------------------------------------------------------------------
 ! R1    R(1,2)                  1.2297         estimate D2E/DX2                !
 ! R2    R(2,3)                  1.2315         estimate D2E/DX2                !
 ! R3    R(2,4)                  1.5237         estimate D2E/DX2                !
 ! R4    R(4,5)                  1.4004         estimate D2E/DX2                !
 ! R5    R(4,16)                 1.4899         estimate D2E/DX2                !
 ! R6    R(5,6)                  1.371          estimate D2E/DX2                !
 ! R7    R(5,17)                 1.1027         estimate D2E/DX2                !
 ! R8    R(6,7)                  1.4949         estimate D2E/DX2                !
 ! R9    R(6,18)                 1.023          estimate D2E/DX2                !
 ! R10   R(7,8)                  1.1213         estimate D2E/DX2                !
 ! R11   R(7,9)                  1.5485         estimate D2E/DX2                !
 ! R12   R(7,13)                 1.5373         estimate D2E/DX2                !
 ! R13   R(9,10)                 1.5403         estimate D2E/DX2                !
 ! R14   R(9,19)                 1.1109         estimate D2E/DX2                !
 ! R15   R(9,20)                 1.1107         estimate D2E/DX2                !
 ! R16   R(10,11)                1.5367         estimate D2E/DX2                !
 ! R17   R(10,21)                1.112          estimate D2E/DX2                !
 ! R18   R(10,22)                1.113          estimate D2E/DX2                !
 ! R19   R(11,12)                1.5442         estimate D2E/DX2                !
 ! R20   R(11,23)                1.1135         estimate D2E/DX2                !
 ! R21   R(11,24)                1.1118         estimate D2E/DX2                !
 ! R22   R(12,13)                1.5537         estimate D2E/DX2                !
 ! R23   R(12,25)                1.1121         estimate D2E/DX2                !
 ! R24   R(12,26)                1.1103         estimate D2E/DX2                !
 ! R25   R(13,14)                1.1155         estimate D2E/DX2                !
 ! R26   R(13,15)                1.4673         estimate D2E/DX2                !
 ! R27   R(15,16)                1.2964         estimate D2E/DX2                !
 ! R28   R(16,27)                1.1006         estimate D2E/DX2                !
 ! A1    A(1,2,3)              123.8853         estimate D2E/DX2                !
 ! A2    A(1,2,4)              117.6094         estimate D2E/DX2                !
 ! A3    A(3,2,4)              118.4898         estimate D2E/DX2                !
 ! A4    A(2,4,5)              116.8486         estimate D2E/DX2                !
 ! A5    A(2,4,16)             116.8812         estimate D2E/DX2                !
 ! A6    A(5,4,16)             126.2702         estimate D2E/DX2                !
 ! A7    A(4,5,6)              124.4033         estimate D2E/DX2                !
 ! A8    A(4,5,17)             118.7793         estimate D2E/DX2                !
 ! A9    A(6,5,17)             116.7207         estimate D2E/DX2                !
 ! A10   A(5,6,7)              127.5993         estimate D2E/DX2                !
 ! A11   A(5,6,18)             122.5393         estimate D2E/DX2                !
 ! A12   A(7,6,18)             108.883          estimate D2E/DX2                !
 ! A13   A(6,7,8)              105.2129         estimate D2E/DX2                !
 ! A14   A(6,7,9)              115.018          estimate D2E/DX2                !
 ! A15   A(6,7,13)             112.6223         estimate D2E/DX2                !
 ! A16   A(8,7,9)              105.9571         estimate D2E/DX2                !
 ! A17   A(8,7,13)             105.8371         estimate D2E/DX2                !
 ! A18   A(9,7,13)             111.3267         estimate D2E/DX2                !
 ! A19   A(7,9,10)             109.5263         estimate D2E/DX2                !
 ! A20   A(7,9,19)             110.1257         estimate D2E/DX2                !
 ! A21   A(7,9,20)             110.1863         estimate D2E/DX2                !
 ! A22   A(10,9,19)            109.9217         estimate D2E/DX2                !
 ! A23   A(10,9,20)            109.0695         estimate D2E/DX2                !
 ! A24   A(19,9,20)            107.9868         estimate D2E/DX2                !
 ! A25   A(9,10,11)            111.144          estimate D2E/DX2                !
 ! A26   A(9,10,21)            109.9644         estimate D2E/DX2                !
 ! A27   A(9,10,22)            109.1547         estimate D2E/DX2                !
 ! A28   A(11,10,21)           109.7918         estimate D2E/DX2                !
 ! A29   A(11,10,22)           108.7781         estimate D2E/DX2                !
 ! A30   A(21,10,22)           107.9379         estimate D2E/DX2                !
 ! A31   A(10,11,12)           111.444          estimate D2E/DX2                !
 ! A32   A(10,11,23)           108.9761         estimate D2E/DX2                !
 ! A33   A(10,11,24)           109.8955         estimate D2E/DX2                !
 ! A34   A(12,11,23)           109.1545         estimate D2E/DX2                !
 ! A35   A(12,11,24)           109.7634         estimate D2E/DX2                !
 ! A36   A(23,11,24)           107.5166         estimate D2E/DX2                !
 ! A37   A(11,12,13)           111.9522         estimate D2E/DX2                !
 ! A38   A(11,12,25)           109.1563         estimate D2E/DX2                !
 ! A39   A(11,12,26)           109.357          estimate D2E/DX2                !
 ! A40   A(13,12,25)           109.1608         estimate D2E/DX2                !
 ! A41   A(13,12,26)           109.4001         estimate D2E/DX2                !
 ! A42   A(25,12,26)           107.7188         estimate D2E/DX2                !
 ! A43   A(7,13,12)            105.7773         estimate D2E/DX2                !
 ! A44   A(7,13,14)            111.6202         estimate D2E/DX2                !
 ! A45   A(7,13,15)            112.9859         estimate D2E/DX2                !
 ! A46   A(12,13,14)           107.2352         estimate D2E/DX2                !
 ! A47   A(12,13,15)           108.3885         estimate D2E/DX2                !
 ! A48   A(14,13,15)           110.5082         estimate D2E/DX2                !
 ! A49   A(13,15,16)           117.712          estimate D2E/DX2                !
 ! A50   A(4,16,15)            127.5894         estimate D2E/DX2                !
 ! A51   A(4,16,27)            113.734          estimate D2E/DX2                !
 ! A52   A(15,16,27)           118.5473         estimate D2E/DX2                !
 ! D1    D(1,2,4,5)           -171.8337         estimate D2E/DX2                !
 ! D2    D(1,2,4,16)             8.2589         Frozen                          !
 ! D3    D(3,2,4,5)              9.5418         estimate D2E/DX2                !
 ! D4    D(3,2,4,16)          -170.3656         estimate D2E/DX2                !
 ! D5    D(2,4,5,6)           -178.6866         estimate D2E/DX2                !
 ! D6    D(2,4,5,17)             5.0117         estimate D2E/DX2                !
 ! D7    D(16,4,5,6)             1.211          estimate D2E/DX2                !
 ! D8    D(16,4,5,17)         -175.0908         estimate D2E/DX2                !
 ! D9    D(2,4,16,15)         -144.1825         estimate D2E/DX2                !
 ! D10   D(2,4,16,27)           31.5828         estimate D2E/DX2                !
 ! D11   D(5,4,16,15)           35.92           estimate D2E/DX2                !
 ! D12   D(5,4,16,27)         -148.3148         estimate D2E/DX2                !
 ! D13   D(4,5,6,7)            -26.9115         estimate D2E/DX2                !
 ! D14   D(4,5,6,18)           140.4792         estimate D2E/DX2                !
 ! D15   D(17,5,6,7)           149.4596         Frozen                          !
 ! D16   D(17,5,6,18)          -43.1497         estimate D2E/DX2                !
 ! D17   D(5,6,7,8)           -128.19           estimate D2E/DX2                !
 ! D18   D(5,6,7,9)            115.6225         estimate D2E/DX2                !
 ! D19   D(5,6,7,13)           -13.3739         estimate D2E/DX2                !
 ! D20   D(18,6,7,8)            63.0256         estimate D2E/DX2                !
 ! D21   D(18,6,7,9)           -53.1619         estimate D2E/DX2                !
 ! D22   D(18,6,7,13)          177.8417         estimate D2E/DX2                !
 ! D23   D(6,7,9,10)           168.6944         estimate D2E/DX2                !
 ! D24   D(6,7,9,19)           -70.3084         estimate D2E/DX2                !
 ! D25   D(6,7,9,20)            48.7128         estimate D2E/DX2                !
 ! D26   D(8,7,9,10)            52.933          estimate D2E/DX2                !
 ! D27   D(8,7,9,19)           173.9302         estimate D2E/DX2                !
 ! D28   D(8,7,9,20)           -67.0486         estimate D2E/DX2                !
 ! D29   D(13,7,9,10)          -61.6708         estimate D2E/DX2                !
 ! D30   D(13,7,9,19)           59.3264         estimate D2E/DX2                !
 ! D31   D(13,7,9,20)          178.3476         estimate D2E/DX2                !
 ! D32   D(6,7,13,12)         -166.5591         estimate D2E/DX2                !
 ! D33   D(6,7,13,14)          -50.2524         estimate D2E/DX2                !
 ! D34   D(6,7,13,15)           75.0209         Frozen                          !
 ! D35   D(8,7,13,12)          -52.1213         estimate D2E/DX2                !
 ! D36   D(8,7,13,14)           64.1855         estimate D2E/DX2                !
 ! D37   D(8,7,13,15)         -170.5413         estimate D2E/DX2                !
 ! D38   D(9,7,13,12)           62.5571         estimate D2E/DX2                !
 ! D39   D(9,7,13,14)          178.8638         estimate D2E/DX2                !
 ! D40   D(9,7,13,15)          -55.8629         estimate D2E/DX2                !
 ! D41   D(7,9,10,11)           54.812          Frozen                          !
 ! D42   D(7,9,10,21)          176.5982         estimate D2E/DX2                !
 ! D43   D(7,9,10,22)          -65.1686         estimate D2E/DX2                !
 ! D44   D(19,9,10,11)         -66.3087         estimate D2E/DX2                !
 ! D45   D(19,9,10,21)          55.4775         estimate D2E/DX2                !
 ! D46   D(19,9,10,22)         173.7107         estimate D2E/DX2                !
 ! D47   D(20,9,10,11)         175.4746         estimate D2E/DX2                !
 ! D48   D(20,9,10,21)         -62.7392         estimate D2E/DX2                !
 ! D49   D(20,9,10,22)          55.494          estimate D2E/DX2                !
 ! D50   D(9,10,11,12)         -52.8224         Frozen                          !
 ! D51   D(9,10,11,23)          67.6977         estimate D2E/DX2                !
 ! D52   D(9,10,11,24)        -174.7261         estimate D2E/DX2                !
 ! D53   D(21,10,11,12)       -174.709          estimate D2E/DX2                !
 ! D54   D(21,10,11,23)        -54.1889         estimate D2E/DX2                !
 ! D55   D(21,10,11,24)         63.3873         estimate D2E/DX2                !
 ! D56   D(22,10,11,12)         67.3815         estimate D2E/DX2                !
 ! D57   D(22,10,11,23)       -172.0984         estimate D2E/DX2                !
 ! D58   D(22,10,11,24)        -54.5222         estimate D2E/DX2                !
 ! D59   D(10,11,12,13)         56.422          estimate D2E/DX2                !
 ! D60   D(10,11,12,25)        177.3952         estimate D2E/DX2                !
 ! D61   D(10,11,12,26)        -64.9897         estimate D2E/DX2                !
 ! D62   D(23,11,12,13)        -63.9933         estimate D2E/DX2                !
 ! D63   D(23,11,12,25)         56.9798         estimate D2E/DX2                !
 ! D64   D(23,11,12,26)        174.5949         estimate D2E/DX2                !
 ! D65   D(24,11,12,13)        178.4021         estimate D2E/DX2                !
 ! D66   D(24,11,12,25)        -60.6247         estimate D2E/DX2                !
 ! D67   D(24,11,12,26)         56.9904         estimate D2E/DX2                !
 ! D68   D(11,12,13,7)         -59.6614         estimate D2E/DX2                !
 ! D69   D(11,12,13,14)       -178.9053         estimate D2E/DX2                !
 ! D70   D(11,12,13,15)         61.7752         estimate D2E/DX2                !
 ! D71   D(25,12,13,7)         179.3681         estimate D2E/DX2                !
 ! D72   D(25,12,13,14)         60.1241         estimate D2E/DX2                !
 ! D73   D(25,12,13,15)        -59.1953         estimate D2E/DX2                !
 ! D74   D(26,12,13,7)          61.7255         estimate D2E/DX2                !
 ! D75   D(26,12,13,14)        -57.5184         estimate D2E/DX2                !
 ! D76   D(26,12,13,15)       -176.8379         estimate D2E/DX2                !
 ! D77   D(7,13,15,16)         -67.1609         Frozen                          !
 ! D78   D(12,13,15,16)        175.9507         estimate D2E/DX2                !
 ! D79   D(14,13,15,16)         58.7112         estimate D2E/DX2                !
 ! D80   D(13,15,16,4)          -0.8049         estimate D2E/DX2                !
 ! D81   D(13,15,16,27)       -176.3914         estimate D2E/DX2                !
 --------------------------------------------------------------------------------
 Trust Radius=3.00D-01 FncErr=1.00D-07 GrdErr=1.00D-07 EigMax=2.50D+02 EigMin=1.00D-04
 Number of steps in this run=     20 maximum allowed number of steps=    162.
 GradGradGradGradGradGradGradGradGradGradGradGradGradGradGradGradGradGrad

                          Input orientation:                          
 ---------------------------------------------------------------------
 Center     Atomic      Atomic             Coordinates (Angstroms)
 Number     Number       Type             X           Y           Z
 ---------------------------------------------------------------------
      1          8           0       -3.568750   -1.498280   -0.070190
      2          7           0       -3.235830   -0.328260    0.109420
      3          8           0       -4.026750    0.577690    0.374320
      4          6           0       -1.759010    0.016310   -0.038270
      5          6           0       -1.369950    1.307510    0.339450
      6          7           0       -0.089550    1.788960    0.246970
      7          6           0        1.183980    1.007200    0.287470
      8          1           0        1.811950    1.508080    1.069860
      9          6           0        2.017880    1.045880   -1.016730
     10          6           0        3.413760    0.450560   -0.753110
     11          6           0        3.310370   -0.962000   -0.156840
     12          6           0        2.396780   -0.983860    1.087980
     13          6           0        0.976890   -0.435560    0.776070
     14          1           0        0.393930   -0.467920    1.726570
     15          7           0        0.358850   -1.300000   -0.235700
     16          6           0       -0.868220   -1.051800   -0.572500
     17          1           0       -2.118820    1.975030    0.797330
     18          1           0        0.118500    2.745590   -0.049770
     19          1           0        1.505010    0.468920   -1.815610
     20          1           0        2.130640    2.093350   -1.368650
     21          1           0        3.997540    0.418180   -1.699010
     22          1           0        3.959580    1.103250   -0.035610
     23          1           0        2.895000   -1.650630   -0.927030
     24          1           0        4.322790   -1.333690    0.113290
     25          1           0        2.311160   -2.028590    1.459520
     26          1           0        2.858290   -0.375340    1.893920
     27          1           0       -1.365000   -1.727580   -1.285140
 ---------------------------------------------------------------------
                    Distance matrix (angstroms):
                    1          2          3          4          5
     1  O    0.000000
     2  N    1.229651   0.000000
     3  O    2.171867   1.231451   0.000000
     4  C    2.360119   1.523659   2.372345   0.000000
     5  C    3.588173   2.492020   2.755438   1.400442   0.000000
     6  N    4.797017   3.794815   4.121279   2.451682   1.371047
     7  C    5.384588   4.620593   5.229123   3.122364   2.572051
     8  H    6.268161   5.456617   5.953135   4.025554   3.270813
     9  C    6.211209   5.545984   6.220271   4.035133   3.658561
    10  C    7.281470   6.750375   7.526516   5.239954   4.981158
    11  C    6.900536   6.582192   7.515724   5.164278   5.225167
    12  C    6.098650   5.754449   6.649021   4.420336   4.472016
    13  C    4.744299   4.266491   5.120985   2.890067   2.955772
    14  H    4.471333   3.976159   4.739651   2.825649   2.861385
    15  N    3.936083   3.739667   4.809504   2.501396   3.180983
    16  C    2.782898   2.567898   3.678045   1.489888   2.578707
    17  H    3.862482   2.650675   2.402435   2.159693   1.102744
    18  H    5.621980   4.552519   4.697099   3.312725   2.105956
    19  H    5.714841   5.178494   5.950462   3.744011   3.689568
    20  H    6.860674   6.070246   6.576368   4.605799   3.973573
    21  H    7.973369   7.493279   8.289353   6.004783   5.810007
    22  H    7.965231   7.337859   8.014095   5.820972   5.346614
    23  H    6.522074   6.356883   7.387120   5.022787   5.342692
    24  H    7.895388   7.625198   8.569500   6.231674   6.279679
    25  H    6.098736   5.956760   6.938260   4.794922   5.092611
    26  H    6.813631   6.350193   7.114860   5.020578   4.808989
    27  H    2.526895   2.720827   3.892684   2.179697   3.442541
                    6          7          8          9         10
     6  N    0.000000
     7  C    1.494880   0.000000
     8  H    2.090872   1.121321   0.000000
     9  C    2.567171   1.548491   2.147066   0.000000
    10  C    3.881321   2.522811   2.647143   1.540254   0.000000
    11  C    4.392072   2.932012   3.138686   2.538016   1.536735
    12  C    3.818071   2.464958   2.559711   2.948426   2.545864
    13  C    2.523040   1.537261   2.135737   2.548030   3.010305
    14  H    2.741619   2.207072   2.519251   3.529093   4.013950
    15  N    3.158434   2.505538   3.420716   2.977506   3.558743
    16  C    3.057413   3.031593   4.053843   3.595438   4.541482
    17  H    2.110795   3.479244   3.967779   4.611553   5.944520
    18  H    1.022976   2.066635   2.377557   2.726109   4.076836
    19  H    2.922219   2.194482   3.082207   1.110913   2.184621
    20  H    2.762630   2.195136   2.527931   1.110746   2.173487
    21  H    4.729713   3.494162   3.692063   2.185993   1.112014
    22  H    4.116492   2.795990   2.449136   2.176255   1.112982
    23  H    4.702828   3.386246   3.890760   2.836997   2.171258
    24  H    5.407176   3.919468   3.910882   3.500273   2.181864
    25  H    4.669837   3.443872   3.592921   3.958559   3.501092
    26  H    4.010785   2.701002   2.306767   3.346347   2.827972
    27  H    4.042300   4.055789   5.109651   4.382693   5.278626
                   11         12         13         14         15
    11  C    0.000000
    12  C    1.544248   0.000000
    13  C    2.567604   1.553708   0.000000
    14  H    3.506704   2.164578   1.115500   0.000000
    15  N    2.971857   2.450557   1.467279   2.131687   0.000000
    16  C    4.200173   3.663610   2.367028   2.686943   1.296433
    17  H    6.246014   5.406492   3.923623   3.625659   4.234598
    18  H    4.893437   4.515953   3.396846   3.682104   4.056986
    19  H    2.838728   3.366995   2.795318   3.828734   2.634175
    20  H    3.492193   3.946528   3.510890   4.376831   3.992197
    21  H    2.180685   3.506489   3.997402   5.050324   4.281762
    22  H    2.168278   2.839159   3.452999   4.276414   4.333694
    23  H    1.113524   2.180154   2.838325   3.833503   2.651968
    24  H    1.111808   2.186759   3.527175   4.334532   3.979416
    25  H    2.179141   1.112130   2.187493   2.486519   2.686285
    26  H    2.180404   1.110328   2.189265   2.471770   3.411375
    27  H    4.870139   4.509524   3.376737   3.708231   2.062961
                   16         17         18         19         20
    16  C    0.000000
    17  H    3.549949   0.000000
    18  H    3.958160   2.513353   0.000000
    19  H    3.080606   4.714654   3.197472   0.000000
    20  H    4.418029   4.771098   2.492703   1.797209   0.000000
    21  H    5.206293   6.787146   4.814954   2.495772   2.529950
    22  H    5.314146   6.196833   4.177484   3.097691   2.470286
    23  H    3.827024   6.423178   5.273072   2.685915   3.846643
    24  H    5.243697   7.273918   5.860304   3.861339   4.329696
    25  H    3.897651   6.007678   5.466124   4.196893   5.002152
    26  H    4.519702   5.612341   4.585257   4.037915   4.155511
    27  H    1.100602   4.314423   4.871977   3.652803   5.179380
                   21         22         23         24         25
    21  H    0.000000
    22  H    1.799350   0.000000
    23  H    2.468101   3.084123   0.000000
    24  H    2.541509   2.468354   1.794798   0.000000
    25  H    4.336689   3.842021   2.485829   2.518308   0.000000
    26  H    3.851845   2.668736   3.096041   2.496766   1.794795
    27  H    5.790718   6.158415   4.275718   5.870410   4.597599
                   26         27
    26  H    0.000000
    27  H    5.456295   0.000000
 Symmetry turned off by external request.
 Stoichiometry    C9H13N3O2
 Framework group  C1[X(C9H13N3O2)]
 Deg. of freedom    75
 Full point group                 C1      NOp   1
 Rotational constants (GHZ):           1.6874770           0.4023075           0.3572790
 Standard basis: 6-31G(d) (6D, 7F)
   236 basis functions,   444 primitive gaussians,   236 cartesian basis functions
    52 alpha electrons       52 beta electrons
       nuclear repulsion energy       918.8145569430 Hartrees.
 NAtoms=   27 NActive=   27 NUniq=   27 SFac= 1.00D+00 NAtFMM=   60 NAOKFM=F Big=F
 Integral buffers will be    131072 words long.
 Raffenetti 1 integral format.
 Two-electron integral symmetry is turned off.
 One-electron integrals computed using PRISM.
 NBasis=   236 RedAO= T EigKep=  1.33D-03  NBF=   236
 NBsUse=   236 1.00D-06 EigRej= -1.00D+00 NBFU=   236
 ExpMin= 1.61D-01 ExpMax= 5.48D+03 ExpMxC= 8.25D+02 IAcc=3 IRadAn=         5 AccDes= 0.00D+00
 Harris functional with IExCor=  205 and IRadAn=       5 diagonalized for initial guess.
 HarFok:  IExCor=  205 AccDes= 0.00D+00 IRadAn=         5 IDoV= 1 UseB2=F ITyADJ=14
 ICtDFT=  3500011 ScaDFX=  1.000000  1.000000  1.000000  1.000000
 FoFCou: FMM=F IPFlag=           0 FMFlag=      100000 FMFlg1=           0
         NFxFlg=           0 DoJE=T BraDBF=F KetDBF=T FulRan=T
         wScrn=  0.000000 ICntrl=       500 IOpCl=  0 I1Cent=   200000004 NGrid=           0
         NMat0=    1 NMatS0=      1 NMatT0=    0 NMatD0=    1 NMtDS0=    0 NMtDT0=    0
 Symmetry not used in FoFCou.
 Keep R1 ints in memory in canonical form, NReq=397720213.
 Requested convergence on RMS density matrix=1.00D-08 within 128 cycles.
 Requested convergence on MAX density matrix=1.00D-06.
 Requested convergence on             energy=1.00D-06.
 No special actions if energy rises.
 SCF Done:  E(RHF) =  -661.272144601     A.U. after   16 cycles
            NFock= 16  Conv=0.91D-08     -V/T= 2.0037
 ExpMin= 1.61D-01 ExpMax= 5.48D+03 ExpMxC= 8.25D+02 IAcc=3 IRadAn=         5 AccDes= 0.00D+00
 HarFok:  IExCor=  205 AccDes= 0.00D+00 IRadAn=         5 IDoV=-2 UseB2=F ITyADJ=14
 ICtDFT= 12500011 ScaDFX=  1.000000  1.000000  1.000000  1.000000
 Range of M.O.s used for correlation:    15   236
 NBasis=   236 NAE=    52 NBE=    52 NFC=    14 NFV=     0
 NROrb=    222 NOA=    38 NOB=    38 NVA=   184 NVB=   184
 Fully direct method using O(ONN) memory.
 JobTyp=1 Pass  1:  I=  15 to  52 NPSUse=  4 ParTrn=T ParDer=T DoDerP=T.
 Spin components of T(2) and E(2):
     alpha-alpha T2 =       0.9196961804D-01 E2=     -0.2717676169D+00
     alpha-beta  T2 =       0.5008813964D+00 E2=     -0.1494884644D+01
     beta-beta   T2 =       0.9196961804D-01 E2=     -0.2717676169D+00
 ANorm=    0.1298006407D+01
 E2 =    -0.2038419878D+01 EUMP2 =    -0.66331056447873D+03
          IDoAtm=111111111111111111111111111
          Differentiating once with respect to electric field.
                with respect to dipole field.
          Differentiating once with respect to nuclear coordinates.
 Keep R1 ints in memory in canonical form, NReq=397723379.
          There are     1 degrees of freedom in the 1st order CPHF.  IDoFFX=0 NUNeed=     1.
 LinEq1:  Iter=  0 NonCon=     1 RMS=4.58D-03 Max=1.02D-01 NDo=     1
 AX will form     1 AO Fock derivatives at one time.
 LinEq1:  Iter=  1 NonCon=     1 RMS=1.55D-03 Max=3.27D-02 NDo=     1
 LinEq1:  Iter=  2 NonCon=     1 RMS=6.37D-04 Max=1.64D-02 NDo=     1
 LinEq1:  Iter=  3 NonCon=     1 RMS=2.97D-04 Max=9.10D-03 NDo=     1
 LinEq1:  Iter=  4 NonCon=     1 RMS=9.19D-05 Max=2.12D-03 NDo=     1
 LinEq1:  Iter=  5 NonCon=     1 RMS=3.92D-05 Max=2.04D-03 NDo=     1
 LinEq1:  Iter=  6 NonCon=     1 RMS=1.62D-05 Max=6.08D-04 NDo=     1
 LinEq1:  Iter=  7 NonCon=     1 RMS=6.36D-06 Max=1.15D-04 NDo=     1
 LinEq1:  Iter=  8 NonCon=     1 RMS=2.56D-06 Max=6.61D-05 NDo=     1
 LinEq1:  Iter=  9 NonCon=     1 RMS=9.90D-07 Max=2.75D-05 NDo=     1
 LinEq1:  Iter= 10 NonCon=     1 RMS=4.79D-07 Max=1.49D-05 NDo=     1
 LinEq1:  Iter= 11 NonCon=     1 RMS=1.66D-07 Max=5.83D-06 NDo=     1
 LinEq1:  Iter= 12 NonCon=     1 RMS=5.80D-08 Max=9.53D-07 NDo=     1
 LinEq1:  Iter= 13 NonCon=     1 RMS=1.86D-08 Max=3.55D-07 NDo=     1
 LinEq1:  Iter= 14 NonCon=     1 RMS=6.41D-09 Max=1.54D-07 NDo=     1
 LinEq1:  Iter= 15 NonCon=     1 RMS=2.51D-09 Max=5.02D-08 NDo=     1
 LinEq1:  Iter= 16 NonCon=     1 RMS=9.44D-10 Max=1.41D-08 NDo=     1
 LinEq1:  Iter= 17 NonCon=     1 RMS=2.91D-10 Max=4.69D-09 NDo=     1
 LinEq1:  Iter= 18 NonCon=     1 RMS=9.64D-11 Max=1.33D-09 NDo=     1
 LinEq1:  Iter= 19 NonCon=     0 RMS=3.10D-11 Max=7.17D-10 NDo=     1
 Linear equations converged to 1.000D-10 1.000D-09 after    19 iterations.
 End of Minotr F.D. properties file   721 does not exist.
 End of Minotr F.D. properties file   722 does not exist.
 End of Minotr F.D. properties file   788 does not exist.

 **********************************************************************

            Population analysis using the SCF Density.

 **********************************************************************

 Alpha  occ. eigenvalues --  -20.60041 -20.59552 -15.85409 -15.62130 -15.57613
 Alpha  occ. eigenvalues --  -11.35526 -11.30717 -11.30368 -11.29916 -11.27806
 Alpha  occ. eigenvalues --  -11.24510 -11.23804 -11.23444 -11.22855  -1.58662
 Alpha  occ. eigenvalues --   -1.38177  -1.28185  -1.22825  -1.13192  -1.08334
 Alpha  occ. eigenvalues --   -1.01788  -1.00526  -0.93406  -0.88996  -0.84848
 Alpha  occ. eigenvalues --   -0.81537  -0.78157  -0.76802  -0.74082  -0.70821
 Alpha  occ. eigenvalues --   -0.70478  -0.69903  -0.67511  -0.64453  -0.63434
 Alpha  occ. eigenvalues --   -0.61494  -0.60851  -0.57461  -0.56251  -0.54914
 Alpha  occ. eigenvalues --   -0.53073  -0.50713  -0.49006  -0.48522  -0.47717
 Alpha  occ. eigenvalues --   -0.47129  -0.46002  -0.45653  -0.44094  -0.42125
 Alpha  occ. eigenvalues --   -0.40606  -0.34010
 Alpha virt. eigenvalues --    0.06630   0.11525   0.19071   0.21426   0.23055
 Alpha virt. eigenvalues --    0.24110   0.26058   0.27361   0.28571   0.28899
 Alpha virt. eigenvalues --    0.29890   0.31013   0.31892   0.32185   0.33355
 Alpha virt. eigenvalues --    0.33688   0.34252   0.35725   0.37494   0.38542
 Alpha virt. eigenvalues --    0.40790   0.42307   0.44812   0.45401   0.45748
 Alpha virt. eigenvalues --    0.46031   0.49373   0.52887   0.57602   0.58719
 Alpha virt. eigenvalues --    0.63355   0.69140   0.69852   0.72107   0.73900
 Alpha virt. eigenvalues --    0.75117   0.75699   0.75914   0.77479   0.79820
 Alpha virt. eigenvalues --    0.80372   0.83404   0.85082   0.85632   0.88226
 Alpha virt. eigenvalues --    0.88521   0.90515   0.91074   0.91864   0.93771
 Alpha virt. eigenvalues --    0.95951   0.97106   0.98326   1.00150   1.01790
 Alpha virt. eigenvalues --    1.02668   1.05191   1.05853   1.06687   1.07953
 Alpha virt. eigenvalues --    1.09325   1.10452   1.10836   1.11515   1.13182
 Alpha virt. eigenvalues --    1.13703   1.14323   1.14765   1.16222   1.17342
 Alpha virt. eigenvalues --    1.17747   1.19489   1.20520   1.21941   1.22881
 Alpha virt. eigenvalues --    1.23250   1.24611   1.25925   1.26978   1.27518
 Alpha virt. eigenvalues --    1.28745   1.31881   1.32711   1.35325   1.40391
 Alpha virt. eigenvalues --    1.41467   1.44728   1.46616   1.48099   1.51388
 Alpha virt. eigenvalues --    1.52870   1.54693   1.60721   1.62771   1.65975
 Alpha virt. eigenvalues --    1.69471   1.69979   1.71219   1.74075   1.75919
 Alpha virt. eigenvalues --    1.78935   1.81757   1.84184   1.88233   1.92495
 Alpha virt. eigenvalues --    1.93116   1.96738   1.97754   1.98998   1.99681
 Alpha virt. eigenvalues --    2.03382   2.04372   2.05879   2.08727   2.11972
 Alpha virt. eigenvalues --    2.12256   2.15663   2.17707   2.18098   2.18637
 Alpha virt. eigenvalues --    2.21384   2.22367   2.24587   2.24639   2.27038
 Alpha virt. eigenvalues --    2.29319   2.32474   2.34016   2.35895   2.36804
 Alpha virt. eigenvalues --    2.38439   2.39476   2.40824   2.43045   2.45876
 Alpha virt. eigenvalues --    2.48285   2.50199   2.53131   2.56091   2.57600
 Alpha virt. eigenvalues --    2.61453   2.62690   2.67138   2.67907   2.68895
 Alpha virt. eigenvalues --    2.70356   2.70897   2.75356   2.78371   2.80647
 Alpha virt. eigenvalues --    2.82912   2.86760   2.90444   2.91952   2.95578
 Alpha virt. eigenvalues --    2.98055   2.98332   3.02473   3.02570   3.05752
 Alpha virt. eigenvalues --    3.06674   3.11597   3.20321   3.22122   3.26998
 Alpha virt. eigenvalues --    3.28028   3.32834   3.36253   3.43175   3.57688
 Alpha virt. eigenvalues --    4.08875   4.22614   4.32045   4.36026   4.42338
 Alpha virt. eigenvalues --    4.52941   4.59417   4.60284   4.70769   4.77332
 Alpha virt. eigenvalues --    4.94355   4.99187   5.02151   5.10570
          Condensed to atoms (all electrons):
               1          2          3          4          5          6
     1  O    8.297956   0.313141  -0.088805  -0.079581   0.003249  -0.000018
     2  N    0.313141   5.691948   0.307663   0.259824  -0.042657   0.001073
     3  O   -0.088805   0.307663   8.327122  -0.085420   0.007651   0.000419
     4  C   -0.079581   0.259824  -0.085420   5.230291   0.574958  -0.055169
     5  C    0.003249  -0.042657   0.007651   0.574958   4.667218   0.305516
     6  N   -0.000018   0.001073   0.000419  -0.055169   0.305516   7.218125
     7  C    0.000003  -0.000092   0.000000   0.001908  -0.031206   0.198574
     8  H   -0.000000   0.000003  -0.000000  -0.000016   0.001222  -0.053874
     9  C   -0.000000  -0.000003   0.000000   0.000305   0.002550  -0.053654
    10  C   -0.000000   0.000000  -0.000000  -0.000011  -0.000084   0.003267
    11  C   -0.000000  -0.000000  -0.000000  -0.000023   0.000014  -0.000155
    12  C   -0.000000   0.000002  -0.000000   0.000060  -0.000028   0.003542
    13  C   -0.000024  -0.000057  -0.000003  -0.013287   0.000477  -0.042340
    14  H   -0.000006  -0.000027  -0.000001   0.003293   0.006289  -0.005678
    15  N   -0.000008   0.001605  -0.000014  -0.060465  -0.004447   0.001902
    16  C    0.004773  -0.030206   0.001836   0.321618  -0.040038  -0.002319
    17  H    0.000077  -0.002796   0.009501  -0.032430   0.381664  -0.035586
    18  H    0.000000  -0.000037   0.000010   0.000666  -0.022711   0.327074
    19  H    0.000000   0.000001   0.000000  -0.000435   0.000207   0.001163
    20  H    0.000000  -0.000000   0.000000  -0.000018   0.000040  -0.002406
    21  H   -0.000000  -0.000000   0.000000  -0.000000   0.000001  -0.000055
    22  H   -0.000000   0.000000  -0.000000   0.000000  -0.000003  -0.000099
    23  H    0.000000  -0.000000   0.000000   0.000023  -0.000000  -0.000024
    24  H   -0.000000   0.000000   0.000000   0.000000  -0.000000   0.000004
    25  H    0.000000  -0.000000   0.000000   0.000019  -0.000001  -0.000070
    26  H   -0.000000  -0.000000   0.000000   0.000009  -0.000003  -0.000066
    27  H    0.004316  -0.000066  -0.000021  -0.063457   0.002246   0.000100
               7          8          9         10         11         12
     1  O    0.000003  -0.000000  -0.000000  -0.000000  -0.000000  -0.000000
     2  N   -0.000092   0.000003  -0.000003   0.000000  -0.000000   0.000002
     3  O    0.000000  -0.000000   0.000000  -0.000000  -0.000000  -0.000000
     4  C    0.001908  -0.000016   0.000305  -0.000011  -0.000023   0.000060
     5  C   -0.031206   0.001222   0.002550  -0.000084   0.000014  -0.000028
     6  N    0.198574  -0.053874  -0.053654   0.003267  -0.000155   0.003542
     7  C    4.977801   0.419512   0.339043  -0.049077  -0.007480  -0.063091
     8  H    0.419512   0.555864  -0.062781   0.001852  -0.000419  -0.002608
     9  C    0.339043  -0.062781   5.183658   0.316976  -0.052921  -0.006743
    10  C   -0.049077   0.001852   0.316976   5.126943   0.332739  -0.059617
    11  C   -0.007480  -0.000419  -0.052921   0.332739   5.122580   0.331064
    12  C   -0.063091  -0.002608  -0.006743  -0.059617   0.331064   5.135269
    13  C    0.340006  -0.043655  -0.045962  -0.002484  -0.047758   0.365728
    14  H   -0.039238  -0.000857   0.003831  -0.000394   0.003922  -0.040794
    15  N   -0.056822   0.004174  -0.012943   0.001530  -0.007511  -0.072714
    16  C   -0.003737   0.000105  -0.001314   0.000014  -0.000016   0.003103
    17  H    0.001649   0.000008  -0.000064   0.000001   0.000000   0.000001
    18  H   -0.027228  -0.001703   0.000675  -0.000124   0.000011  -0.000123
    19  H   -0.034989   0.004256   0.384661  -0.032446  -0.002401   0.000699
    20  H   -0.041082  -0.001970   0.397584  -0.037594   0.004164  -0.000347
    21  H    0.004013  -0.000083  -0.035861   0.400276  -0.035951   0.004197
    22  H   -0.004035   0.003521  -0.045584   0.395997  -0.045567  -0.001307
    23  H    0.000380   0.000035  -0.002018  -0.040181   0.396832  -0.037001
    24  H   -0.000139  -0.000093   0.004383  -0.038434   0.400329  -0.037757
    25  H    0.004899   0.000002  -0.000365   0.004101  -0.034202   0.395900
    26  H   -0.004448   0.001752   0.000975  -0.002357  -0.042228   0.394902
    27  H   -0.000402   0.000010  -0.000061   0.000005   0.000003  -0.000020
              13         14         15         16         17         18
     1  O   -0.000024  -0.000006  -0.000008   0.004773   0.000077   0.000000
     2  N   -0.000057  -0.000027   0.001605  -0.030206  -0.002796  -0.000037
     3  O   -0.000003  -0.000001  -0.000014   0.001836   0.009501   0.000010
     4  C   -0.013287   0.003293  -0.060465   0.321618  -0.032430   0.000666
     5  C    0.000477   0.006289  -0.004447  -0.040038   0.381664  -0.022711
     6  N   -0.042340  -0.005678   0.001902  -0.002319  -0.035586   0.327074
     7  C    0.340006  -0.039238  -0.056822  -0.003737   0.001649  -0.027228
     8  H   -0.043655  -0.000857   0.004174   0.000105   0.000008  -0.001703
     9  C   -0.045962   0.003831  -0.012943  -0.001314  -0.000064   0.000675
    10  C   -0.002484  -0.000394   0.001530   0.000014   0.000001  -0.000124
    11  C   -0.047758   0.003922  -0.007511  -0.000016   0.000000   0.000011
    12  C    0.365728  -0.040794  -0.072714   0.003103   0.000001  -0.000123
    13  C    5.040482   0.399240   0.236024  -0.070953  -0.000074   0.003488
    14  H    0.399240   0.520814  -0.035570  -0.005044   0.000122   0.000020
    15  N    0.236024  -0.035570   6.920349   0.581713  -0.000081  -0.000116
    16  C   -0.070953  -0.005044   0.581713   4.713749   0.001612  -0.000249
    17  H   -0.000074   0.000122  -0.000081   0.001612   0.394738  -0.001459
    18  H    0.003488   0.000020  -0.000116  -0.000249  -0.001459   0.321509
    19  H   -0.006626   0.000063   0.007027   0.002647   0.000008  -0.000102
    20  H    0.003811  -0.000047   0.000068  -0.000030   0.000000   0.003223
    21  H   -0.000350   0.000009  -0.000021   0.000002  -0.000000  -0.000000
    22  H    0.000337  -0.000046  -0.000000  -0.000001  -0.000000   0.000002
    23  H   -0.005592   0.000005   0.006430   0.000018   0.000000   0.000000
    24  H    0.004106  -0.000057   0.000046   0.000006   0.000000  -0.000000
    25  H   -0.034933  -0.002628   0.000402  -0.000067  -0.000000   0.000002
    26  H   -0.044452  -0.000982   0.004119  -0.000082   0.000000  -0.000001
    27  H    0.004901  -0.000190  -0.039011   0.400749  -0.000054   0.000004
              19         20         21         22         23         24
     1  O    0.000000   0.000000  -0.000000  -0.000000   0.000000  -0.000000
     2  N    0.000001  -0.000000  -0.000000   0.000000  -0.000000   0.000000
     3  O    0.000000   0.000000   0.000000  -0.000000   0.000000   0.000000
     4  C   -0.000435  -0.000018  -0.000000   0.000000   0.000023   0.000000
     5  C    0.000207   0.000040   0.000001  -0.000003  -0.000000  -0.000000
     6  N    0.001163  -0.002406  -0.000055  -0.000099  -0.000024   0.000004
     7  C   -0.034989  -0.041082   0.004013  -0.004035   0.000380  -0.000139
     8  H    0.004256  -0.001970  -0.000083   0.003521   0.000035  -0.000093
     9  C    0.384661   0.397584  -0.035861  -0.045584  -0.002018   0.004383
    10  C   -0.032446  -0.037594   0.400276   0.395997  -0.040181  -0.038434
    11  C   -0.002401   0.004164  -0.035951  -0.045567   0.396832   0.400329
    12  C    0.000699  -0.000347   0.004197  -0.001307  -0.037001  -0.037757
    13  C   -0.006626   0.003811  -0.000350   0.000337  -0.005592   0.004106
    14  H    0.000063  -0.000047   0.000009  -0.000046   0.000005  -0.000057
    15  N    0.007027   0.000068  -0.000021  -0.000000   0.006430   0.000046
    16  C    0.002647  -0.000030   0.000002  -0.000001   0.000018   0.000006
    17  H    0.000008   0.000000  -0.000000  -0.000000   0.000000   0.000000
    18  H   -0.000102   0.003223  -0.000000   0.000002   0.000000  -0.000000
    19  H    0.508996  -0.024211  -0.002601   0.003770   0.001659  -0.000068
    20  H   -0.024211   0.550495  -0.002560  -0.002994  -0.000051  -0.000090
    21  H   -0.002601  -0.002560   0.526702  -0.024742  -0.002832  -0.002035
    22  H    0.003770  -0.002994  -0.024742   0.568011   0.004072  -0.003585
    23  H    0.001659  -0.000051  -0.002832   0.004072   0.511455  -0.025029
    24  H   -0.000068  -0.000090  -0.002035  -0.003585  -0.025029   0.540762
    25  H   -0.000027   0.000011  -0.000086  -0.000082  -0.002137  -0.002362
    26  H    0.000025  -0.000036  -0.000075   0.002474   0.003836  -0.002799
    27  H    0.000072  -0.000000  -0.000000   0.000000  -0.000018  -0.000000
              25         26         27
     1  O    0.000000  -0.000000   0.004316
     2  N   -0.000000  -0.000000  -0.000066
     3  O    0.000000   0.000000  -0.000021
     4  C    0.000019   0.000009  -0.063457
     5  C   -0.000001  -0.000003   0.002246
     6  N   -0.000070  -0.000066   0.000100
     7  C    0.004899  -0.004448  -0.000402
     8  H    0.000002   0.001752   0.000010
     9  C   -0.000365   0.000975  -0.000061
    10  C    0.004101  -0.002357   0.000005
    11  C   -0.034202  -0.042228   0.000003
    12  C    0.395900   0.394902  -0.000020
    13  C   -0.034933  -0.044452   0.004901
    14  H   -0.002628  -0.000982  -0.000190
    15  N    0.000402   0.004119  -0.039011
    16  C   -0.000067  -0.000082   0.400749
    17  H   -0.000000   0.000000  -0.000054
    18  H    0.000002  -0.000001   0.000004
    19  H   -0.000027   0.000025   0.000072
    20  H    0.000011  -0.000036  -0.000000
    21  H   -0.000086  -0.000075  -0.000000
    22  H   -0.000082   0.002474   0.000000
    23  H   -0.002137   0.003836  -0.000018
    24  H   -0.002362  -0.002799  -0.000000
    25  H    0.512068  -0.023110  -0.000007
    26  H   -0.023110   0.559048   0.000001
    27  H   -0.000007   0.000001   0.455354
 Mulliken charges:
               1
     1  O   -0.455074
     2  N    0.500679
     3  O   -0.479940
     4  C   -0.002662
     5  C    0.187876
     6  N   -0.809249
     7  C    0.075278
     8  H    0.175744
     9  C   -0.314367
    10  C   -0.320900
    11  C   -0.315025
    12  C   -0.312318
    13  C   -0.040048
    14  H    0.193952
    15  N   -0.475664
    16  C    0.122113
    17  H    0.283163
    18  H    0.397168
    19  H    0.188653
    20  H    0.154040
    21  H    0.172052
    22  H    0.149860
    23  H    0.190138
    24  H    0.162813
    25  H    0.182674
    26  H    0.153499
    27  H    0.235546
 Sum of Mulliken charges =  -0.00000
 Mulliken charges with hydrogens summed into heavy atoms:
               1
     1  O   -0.455074
     2  N    0.500679
     3  O   -0.479940
     4  C   -0.002662
     5  C    0.471039
     6  N   -0.412081
     7  C    0.251022
     9  C    0.028326
    10  C    0.001012
    11  C    0.037926
    12  C    0.023855
    13  C    0.153903
    15  N   -0.475664
    16  C    0.357659
 Electronic spatial extent (au):  <R**2>=           3109.7990
 Charge=             -0.0000 electrons
 Dipole moment (field-independent basis, Debye):
    X=              5.1599    Y=              4.2975    Z=              0.2372  Tot=              6.7194
 Quadrupole moment (field-independent basis, Debye-Ang):
   XX=           -104.9506   YY=            -81.1584   ZZ=            -81.7558
   XY=             -2.3154   XZ=              1.9566   YZ=             -0.2948
 Traceless Quadrupole moment (field-independent basis, Debye-Ang):
   XX=            -15.6624   YY=              8.1299   ZZ=              7.5325
   XY=             -2.3154   XZ=              1.9566   YZ=             -0.2948
 Octapole moment (field-independent basis, Debye-Ang**2):
  XXX=             97.0880  YYY=             36.1160  ZZZ=             -6.4727  XYY=             -0.6905
  XXY=             12.9263  XXZ=             -7.4555  XZZ=             -9.4428  YZZ=             -2.3043
  YYZ=             -1.5248  XYZ=             -2.9300
 Hexadecapole moment (field-independent basis, Debye-Ang**3):
 XXXX=          -3523.7082 YYYY=           -622.9210 ZZZZ=           -302.1136 XXXY=            -57.5958
 XXXZ=             86.6262 YYYX=            -34.4627 YYYZ=              5.1593 ZZZX=             52.8847
 ZZZY=             12.6449 XXYY=           -654.9520 XXZZ=           -541.6390 YYZZ=           -162.2832
 XXYZ=              3.6511 YYXZ=             19.6686 ZZXY=             -1.3718
 N-N= 9.188145569430D+02 E-N=-3.383645878212D+03  KE= 6.588610058654D+02
 Calling FoFJK, ICntrl=  10002127 FMM=F ISym2X=0 I1Cent= 0 IOpClX= 0 NMat=1 NMatS=1 NMatT=0.
 -------------------------------------------------------------------
 Center     Atomic                   Forces (Hartrees/Bohr)
 Number     Number              X              Y              Z
 -------------------------------------------------------------------
      1        8           0.002401359   -0.019874543   -0.005030958
      2        7           0.037317622    0.014559884   -0.001476686
      3        8          -0.005400334    0.014579368    0.004721152
      4        6          -0.001421951    0.014053676    0.012101241
      5        6          -0.002029333   -0.022226510   -0.009637774
      6        7           0.019657299   -0.012170563   -0.002126440
      7        6          -0.003680311    0.006739579    0.003201511
      8        1          -0.008068543   -0.002680868   -0.007727737
      9        6          -0.004355247   -0.000964104   -0.002116464
     10        6           0.002971789   -0.000590401    0.001152707
     11        6          -0.001583674   -0.004662396   -0.002685774
     12        6           0.001376626   -0.008571822   -0.002409694
     13        6           0.012140344   -0.003447530    0.005971212
     14        1           0.000165779    0.005107566   -0.010186867
     15        7          -0.004486109    0.008047077   -0.004974463
     16        6          -0.019801020    0.002519377    0.009067815
     17        1           0.003696281   -0.002476861   -0.013943634
     18        1          -0.015929054   -0.001223669    0.010735263
     19        1           0.002916598    0.006129423    0.007681897
     20        1          -0.003522833   -0.007163246    0.002586673
     21        1          -0.004767835    0.002435656    0.009404072
     22        1          -0.003637654   -0.004075626   -0.007610582
     23        1           0.003811163    0.006175851    0.009324170
     24        1          -0.009288769    0.002653025   -0.002519525
     25        1          -0.000503565    0.010487778   -0.002371539
     26        1          -0.004777057   -0.004895841   -0.004601906
     27        1           0.006798428    0.001535721    0.003472332
 -------------------------------------------------------------------
 Cartesian Forces:  Max     0.037317622 RMS     0.008948108

 GradGradGradGradGradGradGradGradGradGradGradGradGradGradGradGradGradGrad
 Berny optimization.
 FormGI is forming the generalized inverse of G from B-inverse, IUseBI=4.
 Internal  Forces:  Max     0.036991210 RMS     0.006719242
 Search for a local minimum.
 Step number   1 out of a maximum of   20
 All quantities printed in internal units (Hartrees-Bohrs-Radians)
 Mixed Optimization -- RFO/linear search
 Second derivative matrix not updated -- first step.
 ITU=  0
     Eigenvalues ---    0.00232   0.00763   0.01064   0.01148   0.01190
     Eigenvalues ---    0.01514   0.01537   0.01844   0.01974   0.02035
     Eigenvalues ---    0.02681   0.03633   0.04496   0.04689   0.04841
     Eigenvalues ---    0.05098   0.05135   0.05306   0.05902   0.06271
     Eigenvalues ---    0.07221   0.07715   0.07741   0.07910   0.07989
     Eigenvalues ---    0.08054   0.08112   0.10466   0.11753   0.12282
     Eigenvalues ---    0.13744   0.15395   0.15940   0.15957   0.16071
     Eigenvalues ---    0.20058   0.21404   0.22699   0.25000   0.25000
     Eigenvalues ---    0.25000   0.25330   0.26088   0.26650   0.27985
     Eigenvalues ---    0.28100   0.28417   0.30017   0.30976   0.31430
     Eigenvalues ---    0.32025   0.32230   0.32286   0.32376   0.32388
     Eigenvalues ---    0.32409   0.32504   0.32521   0.32565   0.32976
     Eigenvalues ---    0.33381   0.33616   0.34902   0.43867   0.44032
     Eigenvalues ---    0.48631   0.65213   0.90484   0.912321000.00000
     Eigenvalues --- 1000.000001000.000001000.000001000.000001000.00000
     Eigenvalues --- 1000.000001000.000001000.000001000.000001000.00000
     Eigenvalues --- 1000.000001000.000001000.000001000.000001000.00000
     Eigenvalues --- 1000.000001000.000001000.000001000.000001000.00000
     Eigenvalues --- 1000.000001000.000001000.000001000.000001000.00000
     Eigenvalues --- 1000.000001000.000001000.000001000.000001000.00000
     Eigenvalues --- 1000.000001000.000001000.000001000.000001000.00000
     Eigenvalues --- 1000.000001000.000001000.000001000.000001000.00000
     Eigenvalues --- 1000.000001000.000001000.000001000.000001000.00000
     Eigenvalues --- 1000.000001000.000001000.000001000.000001000.00000
     Eigenvalues --- 1000.000001000.000001000.000001000.000001000.00000
     Eigenvalues --- 1000.000001000.000001000.000001000.000001000.00000
     Eigenvalues --- 1000.000001000.000001000.000001000.000001000.00000
     Eigenvalues --- 1000.000001000.000001000.000001000.000001000.00000
     Eigenvalues --- 1000.000001000.000001000.000001000.000001000.00000
     Eigenvalues --- 1000.000001000.000001000.000001000.000001000.00000
     Eigenvalues --- 1000.000001000.000001000.000001000.000001000.00000
     Eigenvalues --- 1000.000001000.000001000.000001000.000001000.00000
     Eigenvalues --- 1000.00000
 RFO step:  Lambda=-2.32826754D-02 EMin= 2.32093868D-03
 Linear search not attempted -- first point.
 Iteration  1 RMS(Cart)=  0.05472217 RMS(Int)=  0.00130470
 Iteration  2 RMS(Cart)=  0.00148771 RMS(Int)=  0.00042440
 Iteration  3 RMS(Cart)=  0.00000236 RMS(Int)=  0.00042439
 Iteration  4 RMS(Cart)=  0.00000000 RMS(Int)=  0.00042439
 Iteration  1 RMS(Cart)=  0.00003925 RMS(Int)=  0.00002738
 Iteration  2 RMS(Cart)=  0.00002406 RMS(Int)=  0.00003040
 Iteration  3 RMS(Cart)=  0.00001493 RMS(Int)=  0.00003462
 Iteration  4 RMS(Cart)=  0.00000937 RMS(Int)=  0.00003782
 Iteration  5 RMS(Cart)=  0.00000596 RMS(Int)=  0.00003999
 Iteration  6 RMS(Cart)=  0.00000387 RMS(Int)=  0.00004142
 Iteration  7 RMS(Cart)=  0.00000260 RMS(Int)=  0.00004237
 Iteration  8 RMS(Cart)=  0.00000183 RMS(Int)=  0.00004300
 Iteration  9 RMS(Cart)=  0.00000135 RMS(Int)=  0.00004342
 Iteration 10 RMS(Cart)=  0.00000106 RMS(Int)=  0.00004372
 Iteration 11 RMS(Cart)=  0.00000086 RMS(Int)=  0.00004394
 Variable       Old X    -DE/DX   Delta X   Delta X   Delta X     New X
                                 (Linear)    (Quad)   (Total)
    R1        2.32370   0.01900   0.00000   0.02030   0.02030   2.34401
    R2        2.32711   0.01521   0.00000   0.01639   0.01639   2.34349
    R3        2.87930  -0.03553   0.00000  -0.10985  -0.10985   2.76945
    R4        2.64645  -0.03699   0.00000  -0.07993  -0.07968   2.56678
    R5        2.81548  -0.01979   0.00000  -0.05527  -0.05503   2.76045
    R6        2.59090  -0.01666   0.00000  -0.03417  -0.03410   2.55681
    R7        2.08388  -0.00980   0.00000  -0.02744  -0.02744   2.05644
    R8        2.82491  -0.01876   0.00000  -0.05507  -0.05501   2.76991
    R9        1.93314  -0.00750   0.00000  -0.01623  -0.01623   1.91691
   R10        2.11899  -0.01111   0.00000  -0.03290  -0.03290   2.08609
   R11        2.92622  -0.01338   0.00000  -0.04572  -0.04582   2.88040
   R12        2.90500  -0.00679   0.00000  -0.01747  -0.01728   2.88772
   R13        2.91066  -0.00484   0.00000  -0.01394  -0.01398   2.89668
   R14        2.09932  -0.01005   0.00000  -0.02886  -0.02886   2.07046
   R15        2.09901  -0.00793   0.00000  -0.02276  -0.02276   2.07624
   R16        2.90401  -0.00192   0.00000  -0.00732  -0.00735   2.89665
   R17        2.10140  -0.01057   0.00000  -0.03046  -0.03046   2.07094
   R18        2.10323  -0.00908   0.00000  -0.02623  -0.02623   2.07700
   R19        2.91821  -0.00899   0.00000  -0.02845  -0.02835   2.88986
   R20        2.10426  -0.01169   0.00000  -0.03383  -0.03383   2.07043
   R21        2.10101  -0.00996   0.00000  -0.02866  -0.02866   2.07235
   R22        2.93608  -0.01019   0.00000  -0.03635  -0.03632   2.89976
   R23        2.10162  -0.01061   0.00000  -0.03056  -0.03056   2.07106
   R24        2.09822  -0.00801   0.00000  -0.02295  -0.02295   2.07526
   R25        2.10799  -0.00891   0.00000  -0.02595  -0.02595   2.08204
   R26        2.77276  -0.00524   0.00000  -0.01018  -0.01072   2.76204
   R27        2.44990  -0.00964   0.00000  -0.01202  -0.01226   2.43764
   R28        2.07984  -0.00626   0.00000  -0.01742  -0.01742   2.06242
    A1        2.16221   0.01052   0.00000   0.03889   0.03844   2.20065
    A2        2.05267  -0.00816   0.00000  -0.02948  -0.02993   2.02274
    A3        2.06804  -0.00235   0.00000  -0.00821  -0.00866   2.05938
    A4        2.03939  -0.00417   0.00000  -0.01507  -0.01519   2.02420
    A5        2.03996  -0.00484   0.00000  -0.01748  -0.01760   2.02236
    A6        2.20383   0.00901   0.00000   0.03255   0.03279   2.23662
    A7        2.17125   0.00529   0.00000   0.01393   0.01371   2.18496
    A8        2.07309  -0.00333   0.00000  -0.01393  -0.01425   2.05884
    A9        2.03716  -0.00187   0.00000  -0.00266  -0.00314   2.03402
   A10        2.22703  -0.00383   0.00000  -0.00990  -0.01030   2.21673
   A11        2.13871  -0.01234   0.00000  -0.06931  -0.07020   2.06851
   A12        1.90037   0.01618   0.00000   0.08938   0.08920   1.98957
   A13        1.83631   0.00035   0.00000  -0.01063  -0.01050   1.82582
   A14        2.00744  -0.00243   0.00000  -0.01132  -0.01136   1.99608
   A15        1.96563   0.00064   0.00000   0.00429   0.00396   1.96959
   A16        1.84930   0.00247   0.00000   0.02290   0.02288   1.87218
   A17        1.84721  -0.00000   0.00000   0.00701   0.00667   1.85388
   A18        1.94302  -0.00059   0.00000  -0.00906  -0.00864   1.93438
   A19        1.91159   0.00005   0.00000  -0.00411  -0.00432   1.90728
   A20        1.92206  -0.00067   0.00000  -0.01105  -0.01101   1.91105
   A21        1.92311  -0.00165   0.00000  -0.00918  -0.00912   1.91399
   A22        1.91850  -0.00034   0.00000   0.00712   0.00718   1.92568
   A23        1.90362   0.00307   0.00000   0.02321   0.02319   1.92682
   A24        1.88472  -0.00044   0.00000  -0.00560  -0.00588   1.87884
   A25        1.93983  -0.00104   0.00000   0.00537   0.00534   1.94517
   A26        1.91924  -0.00063   0.00000  -0.00596  -0.00601   1.91323
   A27        1.90511   0.00041   0.00000  -0.00294  -0.00301   1.90210
   A28        1.91623   0.00096   0.00000   0.00742   0.00746   1.92369
   A29        1.89854   0.00156   0.00000   0.01032   0.01032   1.90885
   A30        1.88387  -0.00126   0.00000  -0.01471  -0.01477   1.86910
   A31        1.94506   0.00016   0.00000   0.00397   0.00398   1.94904
   A32        1.90199   0.00084   0.00000   0.00554   0.00555   1.90755
   A33        1.91804   0.00041   0.00000   0.00590   0.00588   1.92392
   A34        1.90511  -0.00076   0.00000  -0.01209  -0.01209   1.89301
   A35        1.91573  -0.00048   0.00000  -0.00060  -0.00065   1.91508
   A36        1.87652  -0.00018   0.00000  -0.00307  -0.00312   1.87340
   A37        1.95393  -0.00268   0.00000  -0.01859  -0.01850   1.93543
   A38        1.90514   0.00261   0.00000   0.01748   0.01735   1.92249
   A39        1.90864   0.00121   0.00000   0.01368   0.01356   1.92220
   A40        1.90522  -0.00002   0.00000  -0.00185  -0.00175   1.90347
   A41        1.90939  -0.00020   0.00000  -0.00579  -0.00573   1.90366
   A42        1.88005  -0.00087   0.00000  -0.00443  -0.00461   1.87544
   A43        1.84616   0.00405   0.00000   0.02633   0.02628   1.87244
   A44        1.94814  -0.00428   0.00000  -0.03658  -0.03724   1.91090
   A45        1.97198   0.00091   0.00000   0.00915   0.00968   1.98165
   A46        1.87161   0.00264   0.00000   0.03633   0.03683   1.90844
   A47        1.89174  -0.00247   0.00000  -0.02622  -0.02638   1.86536
   A48        1.92873  -0.00050   0.00000  -0.00571  -0.00584   1.92289
   A49        2.05446  -0.00394   0.00000  -0.01233  -0.01297   2.04149
   A50        2.22686  -0.00321   0.00000  -0.01819  -0.01785   2.20900
   A51        1.98503   0.00660   0.00000   0.03568   0.03552   2.02055
   A52        2.06904  -0.00319   0.00000  -0.01715  -0.01732   2.05172
    D1       -2.99906  -0.00131   0.00000   0.00044   0.00017  -2.99889
    D2        0.14415  -0.00055   0.00000   0.00000  -0.00000   0.14415
    D3        0.16654  -0.00174   0.00000  -0.05297  -0.05309   0.11344
    D4       -2.97344  -0.00098   0.00000  -0.05341  -0.05327  -3.02671
    D5       -3.11867  -0.00224   0.00000  -0.05126  -0.05160   3.11292
    D6        0.08747  -0.00403   0.00000  -0.00030  -0.00086   0.08661
    D7        0.02114  -0.00310   0.00000  -0.05084  -0.05146  -0.03033
    D8       -3.05591  -0.00489   0.00000   0.00012  -0.00072  -3.05663
    D9       -2.51646  -0.00232   0.00000   0.01135   0.01092  -2.50554
   D10        0.55122   0.00078   0.00000   0.01654   0.01642   0.56764
   D11        0.62692  -0.00146   0.00000   0.01092   0.01078   0.63771
   D12       -2.58858   0.00164   0.00000   0.01611   0.01628  -2.57230
   D13       -0.46969   0.00302   0.00000   0.05040   0.05048  -0.41921
   D14        2.45182   0.00485   0.00000   0.12521   0.12286   2.57468
   D15        2.60856   0.00472   0.00000   0.00000   0.00000   2.60857
   D16       -0.75310   0.00655   0.00000   0.07481   0.07238  -0.68072
   D17       -2.23734  -0.00183   0.00000  -0.02606  -0.02529  -2.26263
   D18        2.01799  -0.00378   0.00000  -0.04114  -0.04042   1.97757
   D19       -0.23342  -0.00131   0.00000  -0.02183  -0.02156  -0.25498
   D20        1.10000  -0.00079   0.00000  -0.07754  -0.07902   1.02098
   D21       -0.92785  -0.00275   0.00000  -0.09262  -0.09416  -1.02201
   D22        3.10392  -0.00028   0.00000  -0.07330  -0.07530   3.02862
   D23        2.94427   0.00307   0.00000   0.02157   0.02136   2.96563
   D24       -1.22711   0.00226   0.00000   0.02076   0.02059  -1.20652
   D25        0.85020   0.00027   0.00000   0.00123   0.00117   0.85137
   D26        0.92385   0.00234   0.00000   0.02576   0.02560   0.94946
   D27        3.03566   0.00153   0.00000   0.02495   0.02483   3.06049
   D28       -1.17022  -0.00046   0.00000   0.00542   0.00541  -1.16481
   D29       -1.07636   0.00125   0.00000   0.00912   0.00915  -1.06721
   D30        1.03544   0.00045   0.00000   0.00831   0.00838   1.04382
   D31        3.11275  -0.00154   0.00000  -0.01122  -0.01104   3.10171
   D32       -2.90700  -0.00259   0.00000  -0.01017  -0.00991  -2.91692
   D33       -0.87707   0.00072   0.00000   0.02972   0.02944  -0.84763
   D34        1.30936  -0.00266   0.00000   0.00000  -0.00001   1.30935
   D35       -0.90969  -0.00186   0.00000  -0.01660  -0.01653  -0.92622
   D36        1.12025   0.00146   0.00000   0.02329   0.02282   1.14307
   D37       -2.97651  -0.00192   0.00000  -0.00643  -0.00663  -2.98313
   D38        1.09183   0.00076   0.00000   0.00990   0.00997   1.10180
   D39        3.12176   0.00407   0.00000   0.04980   0.04933  -3.11210
   D40       -0.97499   0.00070   0.00000   0.02008   0.01988  -0.95511
   D41        0.95665   0.00043   0.00000   0.00000  -0.00001   0.95664
   D42        3.08222   0.00053   0.00000   0.00890   0.00887   3.09109
   D43       -1.13741  -0.00113   0.00000  -0.01426  -0.01423  -1.15164
   D44       -1.15730   0.00144   0.00000   0.01179   0.01184  -1.14546
   D45        0.96827   0.00153   0.00000   0.02070   0.02072   0.98899
   D46        3.03182  -0.00012   0.00000  -0.00247  -0.00239   3.02944
   D47        3.06261   0.00034   0.00000   0.00057   0.00049   3.06310
   D48       -1.09501   0.00043   0.00000   0.00947   0.00937  -1.08563
   D49        0.96855  -0.00122   0.00000  -0.01369  -0.01374   0.95482
   D50       -0.92193  -0.00097   0.00000   0.00000  -0.00001  -0.92193
   D51        1.18155  -0.00126   0.00000  -0.00890  -0.00891   1.17264
   D52       -3.04955  -0.00075   0.00000  -0.00596  -0.00597  -3.05552
   D53       -3.04925  -0.00014   0.00000  -0.00109  -0.00110  -3.05035
   D54       -0.94577  -0.00043   0.00000  -0.00999  -0.01001  -0.95578
   D55        1.10632   0.00008   0.00000  -0.00705  -0.00707   1.09925
   D56        1.17603  -0.00009   0.00000   0.00635   0.00637   1.18239
   D57       -3.00368  -0.00038   0.00000  -0.00255  -0.00254  -3.00622
   D58       -0.95159   0.00013   0.00000   0.00039   0.00040  -0.95119
   D59        0.98475  -0.00048   0.00000  -0.01335  -0.01333   0.97142
   D60        3.09613  -0.00046   0.00000  -0.01584  -0.01594   3.08019
   D61       -1.13428   0.00070   0.00000  -0.00321  -0.00313  -1.13742
   D62       -1.11689  -0.00113   0.00000  -0.01481  -0.01478  -1.13167
   D63        0.99449  -0.00112   0.00000  -0.01730  -0.01738   0.97710
   D64        3.04726   0.00005   0.00000  -0.00467  -0.00458   3.04268
   D65        3.11370  -0.00018   0.00000  -0.00364  -0.00364   3.11007
   D66       -1.05810  -0.00017   0.00000  -0.00614  -0.00624  -1.06434
   D67        0.99467   0.00100   0.00000   0.00650   0.00656   1.00123
   D68       -1.04129   0.00005   0.00000   0.00054   0.00060  -1.04068
   D69       -3.12249   0.00162   0.00000   0.01134   0.01092  -3.11157
   D70        1.07818   0.00208   0.00000   0.01215   0.01230   1.09049
   D71        3.13056  -0.00149   0.00000  -0.00815  -0.00805   3.12251
   D72        1.04936   0.00008   0.00000   0.00265   0.00226   1.05162
   D73       -1.03315   0.00054   0.00000   0.00346   0.00365  -1.02950
   D74        1.07731  -0.00032   0.00000   0.00161   0.00177   1.07908
   D75       -1.00389   0.00125   0.00000   0.01241   0.01208  -0.99181
   D76       -3.08640   0.00171   0.00000   0.01322   0.01347  -3.07294
   D77       -1.17218   0.00200   0.00000   0.00000  -0.00001  -1.17218
   D78        3.07092  -0.00194   0.00000  -0.02101  -0.02093   3.04999
   D79        1.02470  -0.00339   0.00000  -0.04617  -0.04646   0.97824
   D80       -0.01405   0.00551   0.00000   0.01888   0.01911   0.00507
   D81       -3.07861   0.00193   0.00000   0.01154   0.01158  -3.06704
         Item               Value     Threshold  Converged?
 Maximum Force            0.036681     0.000450     NO 
 RMS     Force            0.006800     0.000300     NO 
 Maximum Displacement     0.307030     0.001800     NO 
 RMS     Displacement     0.055156     0.001200     NO 
 Predicted change in Energy=-1.325694D-02
 GradGradGradGradGradGradGradGradGradGradGradGradGradGradGradGradGradGrad

                          Input orientation:                          
 ---------------------------------------------------------------------
 Center     Atomic      Atomic             Coordinates (Angstroms)
 Number     Number       Type             X           Y           Z
 ---------------------------------------------------------------------
      1          8           0       -3.406277   -1.503816   -0.050887
      2          7           0       -3.106938   -0.311067    0.111366
      3          8           0       -3.884792    0.600281    0.431200
      4          6           0       -1.690004    0.022109   -0.059116
      5          6           0       -1.330486    1.286058    0.284542
      6          7           0       -0.072057    1.780253    0.232131
      7          6           0        1.178390    1.017381    0.285964
      8          1           0        1.778414    1.520733    1.063924
      9          6           0        1.990691    1.049553   -1.003394
     10          6           0        3.372879    0.438787   -0.746145
     11          6           0        3.261503   -0.970183   -0.152841
     12          6           0        2.363919   -0.992344    1.085080
     13          6           0        0.976721   -0.419460    0.765501
     14          1           0        0.362517   -0.418867    1.680183
     15          7           0        0.378883   -1.292817   -0.242534
     16          6           0       -0.841843   -1.047331   -0.579459
     17          1           0       -2.086470    1.927440    0.733257
     18          1           0        0.053535    2.763442    0.016384
     19          1           0        1.464157    0.485772   -1.781428
     20          1           0        2.089246    2.086647   -1.352487
     21          1           0        3.943175    0.411859   -1.681573
     22          1           0        3.925273    1.085024   -0.049539
     23          1           0        2.835359   -1.646027   -0.902526
     24          1           0        4.256398   -1.353089    0.104423
     25          1           0        2.251387   -2.019086    1.451498
     26          1           0        2.818494   -0.402516    1.892215
     27          1           0       -1.321056   -1.735733   -1.277729
 ---------------------------------------------------------------------
                    Distance matrix (angstroms):
                    1          2          3          4          5
     1  O    0.000000
     2  N    1.240395   0.000000
     3  O    2.211020   1.240123   0.000000
     4  C    2.296542   1.465528   2.322022   0.000000
     5  C    3.493539   2.395116   2.648826   1.358279   0.000000
     6  N    4.688521   3.687642   3.996112   2.407000   1.353004
     7  C    5.243002   4.489910   5.082408   3.055704   2.523222
     8  H    6.105057   5.303727   5.772302   3.941702   3.213684
     9  C    6.046009   5.392568   6.064751   3.936346   3.570005
    10  C    7.086186   6.579181   7.354319   5.126247   4.888949
    11  C    6.689876   6.407908   7.340095   5.050827   5.135007
    12  C    5.903151   5.598441   6.481543   4.332735   4.413685
    13  C    4.588353   4.137138   4.978547   2.826021   2.909178
    14  H    4.286902   3.809190   4.542935   2.726254   2.778641
    15  N    3.795878   3.638685   4.713455   2.458245   3.138527
    16  C    2.657835   2.479916   3.604941   1.460766   2.535740
    17  H    3.759028   2.537522   2.255339   2.101268   1.088222
    18  H    5.494025   4.410240   4.512400   3.249698   2.042079
    19  H    5.538443   5.011240   5.789654   3.623544   3.566332
    20  H    6.692260   5.906964   6.409364   4.496427   3.874967
    21  H    7.768101   7.310359   8.110264   5.875116   5.695730
    22  H    7.775199   7.171259   7.839847   5.714999   5.270202
    23  H    6.301073   6.174219   7.210073   4.896215   5.230728
    24  H    7.665731   7.436705   8.378628   6.105539   6.181490
    25  H    5.876379   5.781430   6.749429   4.688603   5.011545
    26  H    6.613341   6.187934   6.933557   4.930979   4.759194
    27  H    2.430447   2.673692   3.866541   2.170518   3.401764
                    6          7          8          9         10
     6  N    0.000000
     7  C    1.465772   0.000000
     8  H    2.045354   1.103909   0.000000
     9  C    2.513041   1.524241   2.130933   0.000000
    10  C    3.824151   2.493151   2.643724   1.532858   0.000000
    11  C    4.338862   2.912443   3.144000   2.533325   1.532844
    12  C    3.787980   2.466387   2.580469   2.944549   2.533677
    13  C    2.494624   1.528116   2.120404   2.512991   2.960276
    14  H    2.668677   2.161551   2.479231   3.465371   3.960418
    15  N    3.142039   2.501107   3.403172   2.943387   3.495151
    16  C    3.040802   3.015515   4.020125   3.549632   4.472159
    17  H    2.081022   3.418711   3.900267   4.517730   5.848864
    18  H    1.014387   2.094445   2.369994   2.780276   4.123531
    19  H    2.844302   2.153690   3.043999   1.095639   2.171920
    20  H    2.697428   2.158126   2.501183   1.098701   2.175042
    21  H    4.653693   3.447013   3.667908   2.163048   1.095897
    22  H    4.067103   2.768124   2.457366   2.157245   1.099101
    23  H    4.634642   3.354370   3.874587   2.826622   2.158664
    24  H    5.345060   3.889245   3.914065   3.483300   2.171380
    25  H    4.617383   3.424898   3.592247   3.938401   3.482602
    26  H    3.984425   2.699277   2.338101   3.343399   2.824195
    27  H    4.025150   4.033857   5.068986   4.335982   5.200398
                   11         12         13         14         15
    11  C    0.000000
    12  C    1.529247   0.000000
    13  C    2.523268   1.534486   0.000000
    14  H    3.473910   2.165326   1.101767   0.000000
    15  N    2.902005   2.406909   1.461607   2.112084   0.000000
    16  C    4.126185   3.612565   2.347405   2.636557   1.289943
    17  H    6.146724   5.334312   3.859031   3.521274   4.171354
    18  H    4.925409   4.537171   3.397692   3.604274   4.077515
    19  H    2.828878   3.348323   2.746613   3.743626   2.590250
    20  H    3.486768   3.936669   3.464701   4.296077   3.946912
    21  H    2.170654   3.481409   3.934351   4.981228   4.204870
    22  H    2.162207   2.835603   3.409065   4.236373   4.274138
    23  H    1.095623   2.144792   2.782322   3.780377   2.567999
    24  H    1.096640   2.161782   3.473467   4.303266   3.893473
    25  H    2.166665   1.095958   2.157353   2.486128   2.627448
    26  H    2.168124   1.098181   2.159144   2.465167   3.361769
    27  H    4.780302   4.440106   3.344719   3.649356   2.039019
                   16         17         18         19         20
    16  C    0.000000
    17  H    3.481607   0.000000
    18  H    3.959636   2.406746   0.000000
    19  H    3.018736   4.583557   3.226416   0.000000
    20  H    4.360122   4.670361   2.544793   1.771307   0.000000
    21  H    5.122528   6.669709   4.852041   2.482130   2.519974
    22  H    5.249109   6.120743   4.220402   3.068491   2.464127
    23  H    3.739601   6.298401   5.293992   2.682765   3.833015
    24  H    5.152984   7.168632   5.883675   3.838549   4.318671
    25  H    3.825855   5.908295   5.455519   4.164836   4.974502
    26  H    4.463522   5.552527   4.602937   4.014840   4.154013
    27  H    1.091386   4.248383   4.879221   3.598084   5.123118
                   21         22         23         24         25
    21  H    0.000000
    22  H    1.765505   0.000000
    23  H    2.463548   3.061722   0.000000
    24  H    2.530402   2.465308   1.766101   0.000000
    25  H    4.311354   3.832819   2.453899   2.505640   0.000000
    26  H    3.834068   2.684798   3.058951   2.483417   1.768938
    27  H    5.699770   6.081866   4.174280   5.758885   4.504589
                   26         27
    26  H    0.000000
    27  H    5.381625   0.000000
 Symmetry turned off by external request.
 Stoichiometry    C9H13N3O2
 Framework group  C1[X(C9H13N3O2)]
 Deg. of freedom    75
 Full point group                 C1      NOp   1
 Rotational constants (GHZ):           1.6967157           0.4242376           0.3742258
 Standard basis: 6-31G(d) (6D, 7F)
   236 basis functions,   444 primitive gaussians,   236 cartesian basis functions
    52 alpha electrons       52 beta electrons
       nuclear repulsion energy       933.2653130298 Hartrees.
 NAtoms=   27 NActive=   27 NUniq=   27 SFac= 1.00D+00 NAtFMM=   60 NAOKFM=F Big=F
 Integral buffers will be    131072 words long.
 Raffenetti 1 integral format.
 Two-electron integral symmetry is turned off.
 One-electron integrals computed using PRISM.
 NBasis=   236 RedAO= T EigKep=  1.05D-03  NBF=   236
 NBsUse=   236 1.00D-06 EigRej= -1.00D+00 NBFU=   236
 Initial guess from the checkpoint file:  "/home/alexey/tmp/Gau-1264043.chk"
 B after Tr=     0.054846    0.002903    0.000697
         Rot=    0.999999    0.000982   -0.001281   -0.000071 Ang=   0.19 deg.
 ExpMin= 1.61D-01 ExpMax= 5.48D+03 ExpMxC= 8.25D+02 IAcc=3 IRadAn=         5 AccDes= 0.00D+00
 Harris functional with IExCor=  205 and IRadAn=       5 diagonalized for initial guess.
 HarFok:  IExCor=  205 AccDes= 0.00D+00 IRadAn=         5 IDoV= 1 UseB2=F ITyADJ=14
 ICtDFT=  3500011 ScaDFX=  1.000000  1.000000  1.000000  1.000000
 FoFCou: FMM=F IPFlag=           0 FMFlag=      100000 FMFlg1=           0
         NFxFlg=           0 DoJE=T BraDBF=F KetDBF=T FulRan=T
         wScrn=  0.000000 ICntrl=       500 IOpCl=  0 I1Cent=   200000004 NGrid=           0
         NMat0=    1 NMatS0=      1 NMatT0=    0 NMatD0=    1 NMtDS0=    0 NMtDT0=    0
 Symmetry not used in FoFCou.
 Keep R1 ints in memory in canonical form, NReq=397720213.
 Requested convergence on RMS density matrix=1.00D-08 within 128 cycles.
 Requested convergence on MAX density matrix=1.00D-06.
 Requested convergence on             energy=1.00D-06.
 No special actions if energy rises.
 SCF Done:  E(RHF) =  -661.289360064     A.U. after   15 cycles
            NFock= 15  Conv=0.42D-08     -V/T= 2.0025
 ExpMin= 1.61D-01 ExpMax= 5.48D+03 ExpMxC= 8.25D+02 IAcc=3 IRadAn=         5 AccDes= 0.00D+00
 HarFok:  IExCor=  205 AccDes= 0.00D+00 IRadAn=         5 IDoV=-2 UseB2=F ITyADJ=14
 ICtDFT= 12500011 ScaDFX=  1.000000  1.000000  1.000000  1.000000
 Range of M.O.s used for correlation:    15   236
 NBasis=   236 NAE=    52 NBE=    52 NFC=    14 NFV=     0
 NROrb=    222 NOA=    38 NOB=    38 NVA=   184 NVB=   184
 Fully direct method using O(ONN) memory.
 JobTyp=1 Pass  1:  I=  15 to  52 NPSUse=  4 ParTrn=T ParDer=T DoDerP=T.
 Spin components of T(2) and E(2):
     alpha-alpha T2 =       0.9125111317D-01 E2=     -0.2723069302D+00
     alpha-beta  T2 =       0.4926607102D+00 E2=     -0.1489420036D+01
     beta-beta   T2 =       0.9125111317D-01 E2=     -0.2723069302D+00
 ANorm=    0.1294280857D+01
 E2 =    -0.2034033897D+01 EUMP2 =    -0.66332339396083D+03
          IDoAtm=111111111111111111111111111
          Differentiating once with respect to electric field.
                with respect to dipole field.
          Differentiating once with respect to nuclear coordinates.
 Keep R1 ints in memory in canonical form, NReq=397723379.
          There are     1 degrees of freedom in the 1st order CPHF.  IDoFFX=0 NUNeed=     1.
 LinEq1:  Iter=  0 NonCon=     1 RMS=4.54D-03 Max=9.60D-02 NDo=     1
 AX will form     1 AO Fock derivatives at one time.
 LinEq1:  Iter=  1 NonCon=     1 RMS=1.52D-03 Max=2.60D-02 NDo=     1
 LinEq1:  Iter=  2 NonCon=     1 RMS=6.39D-04 Max=1.61D-02 NDo=     1
 LinEq1:  Iter=  3 NonCon=     1 RMS=2.82D-04 Max=7.89D-03 NDo=     1
 LinEq1:  Iter=  4 NonCon=     1 RMS=8.74D-05 Max=1.90D-03 NDo=     1
 LinEq1:  Iter=  5 NonCon=     1 RMS=3.69D-05 Max=1.89D-03 NDo=     1
 LinEq1:  Iter=  6 NonCon=     1 RMS=1.45D-05 Max=5.70D-04 NDo=     1
 LinEq1:  Iter=  7 NonCon=     1 RMS=5.64D-06 Max=1.16D-04 NDo=     1
[...]
    27  H    4.738628   4.431996   3.352760   3.654172   2.033725
                   16         17         18         19         20
    16  C    0.000000
    17  H    3.468436   0.000000
    18  H    4.051262   2.229683   0.000000
    19  H    2.986086   4.541363   3.584556   0.000000
    20  H    4.350754   4.664667   2.962034   1.767407   0.000000
    21  H    5.097823   6.651982   5.129178   2.498359   2.523601
    22  H    5.236223   6.107910   4.313518   3.070107   2.461661
    23  H    3.714952   6.267751   5.428125   2.705818   3.843316
    24  H    5.143118   7.147901   5.917793   3.851004   4.317817
    25  H    3.826687   5.880232   5.309314   4.173625   4.983771
    26  H    4.485769   5.554632   4.414649   4.040971   4.184091
    27  H    1.089758   4.257341   5.034095   3.547898   5.096750
                   21         22         23         24         25
    21  H    0.000000
    22  H    1.758634   0.000000
    23  H    2.468612   3.061758   0.000000
    24  H    2.517566   2.459877   1.764438   0.000000
    25  H    4.312253   3.840210   2.444644   2.520259   0.000000
    26  H    3.847498   2.705864   3.060455   2.489034   1.767227
    27  H    5.643722   6.044078   4.118067   5.718343   4.486619
                   26         27
    26  H    0.000000
    27  H    5.385517   0.000000
 Symmetry turned off by external request.
 Stoichiometry    C9H13N3O2
 Framework group  C1[X(C9H13N3O2)]
 Deg. of freedom    75
 Full point group                 C1      NOp   1
 Rotational constants (GHZ):           1.6930147           0.4212802           0.3732922

 **********************************************************************

            Population analysis using the SCF Density.

 **********************************************************************

 Alpha  occ. eigenvalues --  -20.59435 -20.59109 -15.84837 -15.63465 -15.56782
 Alpha  occ. eigenvalues --  -11.34829 -11.29749 -11.29619 -11.28816 -11.27263
 Alpha  occ. eigenvalues --  -11.23484 -11.23123 -11.22827 -11.22128  -1.57265
 Alpha  occ. eigenvalues --   -1.36899  -1.30585  -1.23310  -1.14675  -1.09823
 Alpha  occ. eigenvalues --   -1.02728  -1.01233  -0.94443  -0.89634  -0.85402
 Alpha  occ. eigenvalues --   -0.82446  -0.78383  -0.77489  -0.75032  -0.71673
 Alpha  occ. eigenvalues --   -0.70065  -0.69493  -0.67805  -0.65040  -0.63636
 Alpha  occ. eigenvalues --   -0.62094  -0.60717  -0.57641  -0.57043  -0.55007
 Alpha  occ. eigenvalues --   -0.54427  -0.50756  -0.49774  -0.48711  -0.48111
 Alpha  occ. eigenvalues --   -0.47459  -0.46222  -0.45962  -0.43749  -0.41650
 Alpha  occ. eigenvalues --   -0.40395  -0.34316
 Alpha virt. eigenvalues --    0.06936   0.11662   0.17431   0.21772   0.24127
 Alpha virt. eigenvalues --    0.25372   0.26763   0.28476   0.29031   0.29671
 Alpha virt. eigenvalues --    0.30469   0.31831   0.31934   0.32627   0.34146
 Alpha virt. eigenvalues --    0.34437   0.35720   0.37188   0.38549   0.40141
 Alpha virt. eigenvalues --    0.41189   0.42853   0.45344   0.46314   0.46527
 Alpha virt. eigenvalues --    0.47148   0.48759   0.53404   0.57834   0.59364
 Alpha virt. eigenvalues --    0.63577   0.69600   0.70048   0.72799   0.74227
 Alpha virt. eigenvalues --    0.75036   0.75854   0.76693   0.78365   0.79819
 Alpha virt. eigenvalues --    0.81279   0.84252   0.85875   0.86682   0.88519
 Alpha virt. eigenvalues --    0.89748   0.90306   0.92515   0.92804   0.94370
 Alpha virt. eigenvalues --    0.95965   0.97755   0.99328   1.01919   1.02441
 Alpha virt. eigenvalues --    1.02845   1.05053   1.06466   1.07235   1.08888
 Alpha virt. eigenvalues --    1.09961   1.10135   1.11748   1.12025   1.13900
 Alpha virt. eigenvalues --    1.14274   1.14965   1.15322   1.16572   1.18577
 Alpha virt. eigenvalues --    1.19674   1.20579   1.21316   1.23322   1.23910
 Alpha virt. eigenvalues --    1.24142   1.26458   1.26955   1.27355   1.29204
 Alpha virt. eigenvalues --    1.29916   1.33696   1.34917   1.36220   1.40518
 Alpha virt. eigenvalues --    1.42097   1.46336   1.48393   1.49575   1.53970
 Alpha virt. eigenvalues --    1.54627   1.56483   1.62907   1.63628   1.66098
 Alpha virt. eigenvalues --    1.68024   1.69153   1.72887   1.75246   1.76685
 Alpha virt. eigenvalues --    1.83359   1.83965   1.86508   1.89425   1.93127
 Alpha virt. eigenvalues --    1.95435   1.96623   1.99309   2.00447   2.01621
 Alpha virt. eigenvalues --    2.05077   2.05829   2.08228   2.10214   2.12016
 Alpha virt. eigenvalues --    2.12988   2.15193   2.16956   2.19896   2.20939
 Alpha virt. eigenvalues --    2.23859   2.24783   2.25368   2.28216   2.30367
 Alpha virt. eigenvalues --    2.31912   2.33709   2.35601   2.37584   2.38488
 Alpha virt. eigenvalues --    2.39664   2.41094   2.43462   2.45505   2.49479
 Alpha virt. eigenvalues --    2.51059   2.53260   2.54119   2.56032   2.61592
 Alpha virt. eigenvalues --    2.62995   2.64973   2.68186   2.69974   2.71383
 Alpha virt. eigenvalues --    2.73272   2.73868   2.78717   2.79264   2.82955
 Alpha virt. eigenvalues --    2.86557   2.87416   2.92859   2.93669   2.96552
 Alpha virt. eigenvalues --    3.00113   3.00674   3.03209   3.04234   3.08073
 Alpha virt. eigenvalues --    3.08904   3.13970   3.22131   3.24292   3.27058
 Alpha virt. eigenvalues --    3.30602   3.36562   3.37160   3.51856   3.63237
 Alpha virt. eigenvalues --    4.12054   4.27616   4.33840   4.38675   4.44770
 Alpha virt. eigenvalues --    4.56233   4.61507   4.62119   4.73396   4.78921
 Alpha virt. eigenvalues --    4.98221   5.00812   5.03784   5.11509
          Condensed to atoms (all electrons):
               1          2          3          4          5          6
     1  O    8.313905   0.309473  -0.082070  -0.087412   0.004452  -0.000018
     2  N    0.309473   5.721007   0.301720   0.266019  -0.051037   0.000945
     3  O   -0.082070   0.301720   8.348863  -0.092207   0.005651   0.000670
     4  C   -0.087412   0.266019  -0.092207   5.200163   0.573963  -0.052721
     5  C    0.004452  -0.051037   0.005651   0.573963   4.706355   0.319687
     6  N   -0.000018   0.000945   0.000670  -0.052721   0.319687   7.169071
     7  C    0.000005  -0.000141  -0.000000   0.001459  -0.033195   0.179244
     8  H   -0.000000   0.000004  -0.000000  -0.000068   0.002275  -0.050930
     9  C   -0.000000  -0.000004   0.000000   0.000684   0.001812  -0.060377
    10  C    0.000000   0.000000  -0.000000  -0.000025  -0.000079   0.003613
    11  C   -0.000000  -0.000000  -0.000000  -0.000041   0.000025  -0.000205
    12  C   -0.000000   0.000003  -0.000000  -0.000056   0.000006   0.003927
    13  C   -0.000033  -0.000087  -0.000004  -0.013856  -0.001050  -0.045609
    14  H   -0.000008  -0.000080  -0.000000   0.003238   0.008214  -0.007612
    15  N    0.000086   0.002403  -0.000017  -0.063174  -0.006365   0.001261
    16  C    0.002552  -0.031760   0.002366   0.331214  -0.048884  -0.002496
    17  H    0.000148  -0.005939   0.013921  -0.024982   0.376866  -0.035088
    18  H    0.000001  -0.000057   0.000012   0.002314  -0.032389   0.339090
    19  H    0.000000   0.000000   0.000000  -0.000764   0.000633   0.000041
    20  H    0.000000  -0.000000   0.000000  -0.000067   0.000154  -0.000569
    21  H   -0.000000   0.000000   0.000000   0.000000   0.000001  -0.000069
    22  H   -0.000000   0.000000  -0.000000   0.000000  -0.000004  -0.000119
    23  H   -0.000000  -0.000000   0.000000   0.000038  -0.000000  -0.000029
    24  H   -0.000000   0.000000   0.000000   0.000000  -0.000000   0.000005
    25  H   -0.000000  -0.000000   0.000000   0.000031  -0.000004  -0.000090
    26  H   -0.000000  -0.000000   0.000000   0.000010  -0.000004  -0.000052
    27  H    0.005004  -0.000946  -0.000013  -0.060006   0.002526   0.000023
               7          8          9         10         11         12
     1  O    0.000005  -0.000000  -0.000000   0.000000  -0.000000  -0.000000
     2  N   -0.000141   0.000004  -0.000004   0.000000  -0.000000   0.000003
     3  O   -0.000000  -0.000000   0.000000  -0.000000  -0.000000  -0.000000
     4  C    0.001459  -0.000068   0.000684  -0.000025  -0.000041  -0.000056
     5  C   -0.033195   0.002275   0.001812  -0.000079   0.000025   0.000006
     6  N    0.179244  -0.050930  -0.060377   0.003613  -0.000205   0.003927
     7  C    5.019849   0.418761   0.345586  -0.054871  -0.008631  -0.059975
     8  H    0.418761   0.544526  -0.056102   0.000934  -0.000441  -0.002121
     9  C    0.345586  -0.056102   5.159139   0.322991  -0.049958  -0.005367
    10  C   -0.054871   0.000934   0.322991   5.123205   0.336246  -0.060795
    11  C   -0.008631  -0.000441  -0.049958   0.336246   5.119479   0.336169
    12  C   -0.059975  -0.002121  -0.005367  -0.060795   0.336169   5.117608
    13  C    0.345891  -0.040193  -0.059348  -0.000261  -0.051052   0.369070
    14  H   -0.046645  -0.000496   0.004441  -0.000404   0.004129  -0.036041
    15  N   -0.057408   0.004131  -0.015408   0.001671  -0.012712  -0.080614
    16  C   -0.002143   0.000042  -0.001668   0.000004   0.000024   0.003152
    17  H    0.002082  -0.000058  -0.000068   0.000001   0.000000  -0.000001
    18  H   -0.024348  -0.005191   0.001870  -0.000097   0.000004  -0.000128
    19  H   -0.036719   0.004478   0.389849  -0.032309  -0.002328   0.000721
    20  H   -0.041152  -0.002033   0.399699  -0.035614   0.003933  -0.000398
    21  H    0.004575  -0.000074  -0.036119   0.402546  -0.034933   0.004334
    22  H   -0.004786   0.003600  -0.046757   0.397563  -0.045693  -0.001050
    23  H    0.000544   0.000040  -0.001928  -0.039049   0.399305  -0.037917
    24  H   -0.000125  -0.000101   0.004332  -0.038219   0.402222  -0.038791
    25  H    0.005029  -0.000019  -0.000441   0.004184  -0.033518   0.398524
    26  H   -0.004045   0.001800   0.000933  -0.002197  -0.041302   0.396888
    27  H   -0.000402   0.000010  -0.000066   0.000007   0.000009  -0.000035
              13         14         15         16         17         18
     1  O   -0.000033  -0.000008   0.000086   0.002552   0.000148   0.000001
     2  N   -0.000087  -0.000080   0.002403  -0.031760  -0.005939  -0.000057
     3  O   -0.000004  -0.000000  -0.000017   0.002366   0.013921   0.000012
     4  C   -0.013856   0.003238  -0.063174   0.331214  -0.024982   0.002314
     5  C   -0.001050   0.008214  -0.006365  -0.048884   0.376866  -0.032389
     6  N   -0.045609  -0.007612   0.001261  -0.002496  -0.035088   0.339090
     7  C    0.345891  -0.046645  -0.057408  -0.002143   0.002082  -0.024348
     8  H   -0.040193  -0.000496   0.004131   0.000042  -0.000058  -0.005191
     9  C   -0.059348   0.004441  -0.015408  -0.001668  -0.000068   0.001870
    10  C   -0.000261  -0.000404   0.001671   0.000004   0.000001  -0.000097
    11  C   -0.051052   0.004129  -0.012712   0.000024   0.000000   0.000004
    12  C    0.369070  -0.036041  -0.080614   0.003152  -0.000001  -0.000128
    13  C    5.049816   0.400139   0.244625  -0.072205  -0.000049   0.002881
    14  H    0.400139   0.530929  -0.037363  -0.005364   0.000170  -0.000073
    15  N    0.244625  -0.037363   6.944921   0.582899  -0.000098  -0.000111
    16  C   -0.072205  -0.005364   0.582899   4.717683   0.002149  -0.000163
    17  H   -0.000049   0.000170  -0.000098   0.002149   0.386806  -0.003304
    18  H    0.002881  -0.000073  -0.000111  -0.000163  -0.003304   0.321743
    19  H   -0.007593   0.000112   0.007902   0.002994   0.000011  -0.000143
    20  H    0.004274  -0.000065   0.000135  -0.000038   0.000003   0.000450
    21  H   -0.000418   0.000010  -0.000031   0.000003  -0.000000   0.000002
    22  H    0.000061  -0.000057   0.000015  -0.000002   0.000000  -0.000001
    23  H   -0.007292  -0.000002   0.008194   0.000057   0.000000   0.000000
    24  H    0.004701  -0.000055   0.000139   0.000007   0.000000  -0.000000
    25  H   -0.035630  -0.002755   0.000033  -0.000027  -0.000000   0.000002
    26  H   -0.047164  -0.001069   0.004801  -0.000089   0.000000  -0.000000
    27  H    0.005151  -0.000193  -0.040519   0.401489  -0.000068   0.000001
              19         20         21         22         23         24
     1  O    0.000000   0.000000  -0.000000  -0.000000  -0.000000  -0.000000
     2  N    0.000000  -0.000000   0.000000   0.000000  -0.000000   0.000000
     3  O    0.000000   0.000000   0.000000  -0.000000   0.000000   0.000000
     4  C   -0.000764  -0.000067   0.000000   0.000000   0.000038   0.000000
     5  C    0.000633   0.000154   0.000001  -0.000004  -0.000000  -0.000000
     6  N    0.000041  -0.000569  -0.000069  -0.000119  -0.000029   0.000005
     7  C   -0.036719  -0.041152   0.004575  -0.004786   0.000544  -0.000125
     8  H    0.004478  -0.002033  -0.000074   0.003600   0.000040  -0.000101
     9  C    0.389849   0.399699  -0.036119  -0.046757  -0.001928   0.004332
    10  C   -0.032309  -0.035614   0.402546   0.397563  -0.039049  -0.038219
    11  C   -0.002328   0.003933  -0.034933  -0.045693   0.399305   0.402222
    12  C    0.000721  -0.000398   0.004334  -0.001050  -0.037917  -0.038791
    13  C   -0.007593   0.004274  -0.000418   0.000061  -0.007292   0.004701
    14  H    0.000112  -0.000065   0.000010  -0.000057  -0.000002  -0.000055
    15  N    0.007902   0.000135  -0.000031   0.000015   0.008194   0.000139
    16  C    0.002994  -0.000038   0.000003  -0.000002   0.000057   0.000007
    17  H    0.000011   0.000003  -0.000000   0.000000   0.000000   0.000000
    18  H   -0.000143   0.000450   0.000002  -0.000001   0.000000  -0.000000
    19  H    0.505141  -0.024164  -0.002782   0.003952   0.001519  -0.000065
    20  H   -0.024164   0.536805  -0.002630  -0.003005  -0.000047  -0.000081
    21  H   -0.002782  -0.002630   0.523846  -0.027423  -0.002932  -0.002214
    22  H    0.003952  -0.003005  -0.027423   0.572108   0.004160  -0.003667
    23  H    0.001519  -0.000047  -0.002932   0.004160   0.500069  -0.025506
    24  H   -0.000065  -0.000081  -0.002214  -0.003667  -0.025506   0.538130
    25  H   -0.000026   0.000012  -0.000088  -0.000079  -0.002357  -0.002235
    26  H    0.000019  -0.000030  -0.000083   0.002384   0.004062  -0.003087
    27  H    0.000079   0.000000  -0.000000   0.000000  -0.000031  -0.000000
              25         26         27
     1  O   -0.000000  -0.000000   0.005004
     2  N   -0.000000  -0.000000  -0.000946
     3  O    0.000000   0.000000  -0.000013
     4  C    0.000031   0.000010  -0.060006
     5  C   -0.000004  -0.000004   0.002526
     6  N   -0.000090  -0.000052   0.000023
     7  C    0.005029  -0.004045  -0.000402
     8  H   -0.000019   0.001800   0.000010
     9  C   -0.000441   0.000933  -0.000066
    10  C    0.004184  -0.002197   0.000007
    11  C   -0.033518  -0.041302   0.000009
    12  C    0.398524   0.396888  -0.000035
    13  C   -0.035630  -0.047164   0.005151
    14  H   -0.002755  -0.001069  -0.000193
    15  N    0.000033   0.004801  -0.040519
    16  C   -0.000027  -0.000089   0.401489
    17  H   -0.000000   0.000000  -0.000068
    18  H    0.000002  -0.000000   0.000001
    19  H   -0.000026   0.000019   0.000079
    20  H    0.000012  -0.000030   0.000000
    21  H   -0.000088  -0.000083  -0.000000
    22  H   -0.000079   0.002384   0.000000
    23  H   -0.002357   0.004062  -0.000031
    24  H   -0.002235  -0.003087  -0.000000
    25  H    0.506657  -0.024178  -0.000010
    26  H   -0.024178   0.561323   0.000001
    27  H   -0.000010   0.000001   0.445697
 Mulliken charges:
               1
     1  O   -0.466085
     2  N    0.488477
     3  O   -0.498890
     4  C    0.016245
     5  C    0.170391
     6  N   -0.761594
     7  C    0.051562
     8  H    0.177225
     9  C   -0.297728
    10  C   -0.329048
    11  C   -0.320731
    12  C   -0.307114
    13  C   -0.044766
    14  H    0.186903
    15  N   -0.489396
    16  C    0.118205
    17  H    0.287498
    18  H    0.397635
    19  H    0.189441
    20  H    0.164426
    21  H    0.174478
    22  H    0.148799
    23  H    0.199102
    24  H    0.164610
    25  H    0.186983
    26  H    0.151077
    27  H    0.242294
 Sum of Mulliken charges =  -0.00000
 Mulliken charges with hydrogens summed into heavy atoms:
               1
     1  O   -0.466085
     2  N    0.488477
     3  O   -0.498890
     4  C    0.016245
     5  C    0.457889
     6  N   -0.363959
     7  C    0.228787
     9  C    0.056139
    10  C   -0.005771
    11  C    0.042982
    12  C    0.030946
    13  C    0.142137
    15  N   -0.489396
    16  C    0.360498
 Electronic spatial extent (au):  <R**2>=           2994.1190
 Charge=              0.0000 electrons
 Dipole moment (field-independent basis, Debye):
    X=              5.2837    Y=              4.6103    Z=              1.2836  Tot=              7.1288
 Quadrupole moment (field-independent basis, Debye-Ang):
   XX=           -105.5777   YY=            -80.3825   ZZ=            -80.9118
   XY=             -2.3241   XZ=              1.2837   YZ=              2.9196
 Traceless Quadrupole moment (field-independent basis, Debye-Ang):
   XX=            -16.6204   YY=              8.5748   ZZ=              8.0455
   XY=             -2.3241   XZ=              1.2837   YZ=              2.9196
 Octapole moment (field-independent basis, Debye-Ang**2):
  XXX=             89.1887  YYY=             34.4246  ZZZ=             -0.2086  XYY=             -3.0598
  XXY=             11.5134  XXZ=             -2.4398  XZZ=            -11.1420  YZZ=             -0.2187
  YYZ=              9.8014  XYZ=             -1.7801
 Hexadecapole moment (field-independent basis, Debye-Ang**3):
 XXXX=          -3359.8710 YYYY=           -610.0167 ZZZZ=           -301.6486 XXXY=            -41.1159
 XXXZ=             51.0737 YYYX=            -23.4411 YYYZ=             30.7697 ZZZX=             33.5933
 ZZZY=             12.3606 XXYY=           -627.7520 XXZZ=           -519.3779 YYZZ=           -154.3751
 XXYZ=             -0.1733 YYXZ=             12.6166 ZZXY=              1.1258
 N-N= 9.321589256982D+02 E-N=-3.411003057597D+03  KE= 6.596269295560D+02
 Unable to Open any file for archive entry.
 1\1\GINC-LOTUS\FOpt\RMP2-FC\6-31G(d)\C9H13N3O2\ALEXEY\01-Jul-2023\0\\#
 MP2/6-31G* SCF=Tight Opt=(ModRedun, MaxCycle=20 ) NoSymm\\MolName:\\0,
 1\O,-3.4536033918,-1.4667836369,-0.1912913816\N,-3.1096590085,-0.28523
 09862,0.010048783\O,-3.9068340091,0.6343902037,0.2751153305\C,-1.68830
 22399,0.0015500193,-0.0597637645\C,-1.3118107158,1.2708462814,0.279890
 6683\N,-0.0666682527,1.788765825,0.2084343083\C,1.1906216262,1.0392111
 185,0.26414399\H,1.8076573239,1.5745404558,1.0026444328\C,1.9702292123
 ,1.023510326,-1.0481425832\C,3.3527381924,0.4106159629,-0.796736353\C,
 3.2595394104,-0.9751530015,-0.1524928149\C,2.3924230847,-0.9600842035,
 1.1086138332\C,1.0040632381,-0.3949539101,0.7908690671\H,0.3769325769,
 -0.3526781635,1.6965910397\N,0.3966286125,-1.289711671,-0.1933385597\C
 ,-0.8336640889,-1.0736864651,-0.5379325504\H,-2.0682128589,1.910796147
 ,0.7265055547\H,-0.0002691814,2.7309766076,0.5768383149\H,1.4145153461
 ,0.4409357432,-1.7902566613\H,2.0635753791,2.0458543906,-1.4343294272\
 H,3.910804116,0.3535420968,-1.7382815449\H,3.9212214448,1.0824757116,-
 0.13786212\H,2.8170540997,-1.679442918,-0.8637954402\H,4.2641159733,-1
 .3428874858,0.0880358626\H,2.2759582486,-1.9756310831,1.5017433038\H,2
 .8657447194,-0.3569902696,1.8957570554\H,-1.2837788575,-1.7917770951,-
 1.2229983434\\Version=ES64L-G16RevC.02\HF=-661.2947635\MP2=-663.330533
 7\RMSD=3.813e-09\RMSF=2.108e-03\Dipole=1.9056497,1.6007846,0.4765964\P
 G=C01 [X(C9H13N3O2)]\\@
 The archive entry for this job was punched.


 A great many people think they are thinking when they
 are merely rearranging their prejudices.
                               -- William James
 Job cpu time:       0 days  1 hours 32 minutes 53.8 seconds.
 Elapsed time:       0 days  0 hours 27 minutes 55.3 seconds.
 File lengths (MBytes):  RWF=     31 Int=      0 D2E=      0 Chk=      7 Scr=      1
 Normal termination of Gaussian 16 at Sat Jul  1 04:34:04 2023.
