 Entering Gaussian System, Link 0=g16
 Initial command:
 /home/alexey/programs//g16/l1.exe "/home/alexey/tmp/Gau-1507750.inp" -scrdir="/home/alexey/tmp/"
 Entering Link 1 = /home/alexey/programs//g16/l1.exe PID=   1507752.
  
 Copyright (c) 1988-2021, Gaussian, Inc.  All Rights Reserved.
  
 This is part of the Gaussian(R) 16 program.  It is based on
 the Gaussian(R) 09 system (copyright 2009, Gaussian, Inc.),
 the Gaussian(R) 03 system (copyright 2003, Gaussian, Inc.),
 the Gaussian(R) 98 system (copyright 1998, Gaussian, Inc.),
 the Gaussian(R) 94 system (copyright 1995, Gaussian, Inc.),
 the Gaussian 92(TM) system (copyright 1992, Gaussian, Inc.),
 the Gaussian 90(TM) system (copyright 1990, Gaussian, Inc.),
 the Gaussian 88(TM) system (copyright 1988, Gaussian, Inc.),
 the Gaussian 86(TM) system (copyright 1986, Carnegie Mellon
 University), and the Gaussian 82(TM) system (copyright 1983,
 Carnegie Mellon University). Gaussian is a federally registered
 trademark of Gaussian, Inc.
  
 This software contains proprietary and confidential information,
 including trade secrets, belonging to Gaussian, Inc.
  
 This software is provided under written license and may be
 used, copied, transmitted, or stored only in accord with that
 written license.
  
 The following legend is applicable only to US Government
 contracts under FAR:
  
                    RESTRICTED RIGHTS LEGEND
  
 Use, reproduction and disclosure by the US Government is
 subject to restrictions as set forth in subparagraphs (a)
 and (c) of the Commercial Computer Software - Restricted
 Rights clause in FAR 52.227-19.
  
 Gaussian, Inc.
 340 Quinnipiac St., Bldg. 40, Wallingford CT 06492
  
  
 ---------------------------------------------------------------
 Warning -- This program may not be used in any manner that
 competes with the business of Gaussian, Inc. or will provide
 assistance to any competitor of Gaussian, Inc.  The licensee
 of this program is prohibited from giving any competitor of
 Gaussian, Inc. access to this program.  By using this program,
 the user acknowledges that Gaussian, Inc. is engaged in the
 business of creating and licensing software in the field of
 computational chemistry and represents and warrants to the
 licensee that it is not a competitor of Gaussian, Inc. and that
 it will not use this program in any manner prohibited above.
 ---------------------------------------------------------------
  

 Cite this work as:
 Gaussian 16, Revision C.02,
 M. J. Frisch, G. W. Trucks, H. B. Schlegel, G. E. Scuseria, 
 M. A. Robb, J. R. Cheeseman, G. Scalmani, V. Barone, 
 G. A. Petersson, H. Nakatsuji, X. Li, M. Caricato, A. V. Marenich, 
 J. Bloino, B. G. Janesko, R. Gomperts, B. Mennucci, H. P. Hratchian, 
 J. V. Ortiz, A. F. Izmaylov, J. L. Sonnenberg, D. Williams-Young, 
 F. Ding, F. Lipparini, F. Egidi, J. Goings, B. Peng, A. Petrone, 
 T. Henderson, D. Ranasinghe, V. G. Zakrzewski, J. Gao, N. Rega, 
 G. Zheng, W. Liang, M. Hada, M. Ehara, K. Toyota, R. Fukuda, 
 J. Hasegawa, M. Ishida, T. Nakajima, Y. Honda, O. Kitao, H. Nakai, 
 T. Vreven, K. Throssell, J. A. Montgomery, Jr., J. E. Peralta, 
 F. Ogliaro, M. J. Bearpark, J. J. Heyd, E. N. Brothers, K. N. Kudin, 
 V. N. Staroverov, T. A. Keith, R. Kobayashi, J. Normand, 
 K. Raghavachari, A. P. Rendell, J. C. Burant, S. S. Iyengar, 
 J. Tomasi, M. Cossi, J. M. Millam, M. Klene, C. Adamo, R. Cammi, 
 J. W. Ochterski, R. L. Martin, K. Morokuma, O. Farkas, 
 J. B. Foresman, and D. J. Fox, Gaussian, Inc., Wallingford CT, 2019.
 
 ******************************************
 Gaussian 16:  ES64L-G16RevC.02  7-Dec-2021
                 2-Jul-2023 
 ******************************************
 %mem=8GB
 %NPROCS=4
 Will use up to    4 processors via shared memory.
 %NoSave
 ---------------------------------------------------------
 #MP2/6-31G* SCF=Tight Opt=(ModRedun, MaxCycle=20 ) NoSymm
 ---------------------------------------------------------
 1/6=20,18=120,19=15,38=1/1,3;
 2/9=110,12=2,15=1,17=6,18=5,40=1/2;
 3/5=1,6=6,7=1,11=9,25=1,30=1,71=1/1,2,3;
 4//1;
 5/5=2,32=2,38=5/2;
 8/6=4,10=2/1;
 9/15=2,16=-3/6;
 10/5=1,31=1/2;
 6/7=2,8=2,9=2,10=2/1;
 7/12=2,30=1/1,2,3,16;
 1/6=20,18=20,19=15/3(2);
 2/9=110,15=1/2;
 99//99;
 2/9=110,15=1/2;
 3/5=1,6=6,7=1,11=9,25=1,30=1,71=1/1,2,3;
 4/5=5,16=3,69=1/1;
 5/5=2,32=2,38=5/2;
 8/6=4,10=2/1;
 9/15=2,16=-3/6;
 10/5=1,31=1/2;
 7/12=2,30=1/1,2,3,16;
 1/6=20,18=20,19=15/3(-8);
 2/9=110,15=1/2;
 6/7=2,8=2,9=2,10=2/1;
 99/9=10/99;
 --------
 MolName:
 --------
 Symbolic Z-matrix:
 Charge =  0 Multiplicity = 1
 8                    0    -3.6485   -1.31686  -0.52248 
 7                    0    -3.22588  -0.17146  -0.37502 
 8                    0    -3.93074   0.83194  -0.49272 
 6                    0    -1.73603   0.00713  -0.06383 
 6                    0    -1.33979   1.30765   0.27004 
 7                    0    -0.08017   1.70747   0.62108 
 6                    0     1.20488   0.97038   0.46924 
 1                    0     1.92482   1.47646   1.16414 
 6                    0     1.84642   1.04072  -0.93896 
 6                    0     3.28049   0.48149  -0.87513 
 6                    0     3.29617  -0.93698  -0.2833 
 6                    0     2.56305  -0.98892   1.07465 
 6                    0     1.10041  -0.48049   0.95106 
 1                    0     0.63341  -0.52777   1.96279 
 7                    0     0.37831  -1.37285   0.04248 
 6                    0    -0.89012  -1.21852  -0.15519 
 1                    0    -2.1056    2.10092   0.27432 
 1                    0     0.15401   2.70252   0.65695 
 1                    0     1.24276   0.45404  -1.66379 
 1                    0     1.87912   2.09318  -1.29236 
 1                    0     3.7286    0.46981  -1.89279 
 1                    0     3.9032    1.1446   -0.23402 
 1                    0     2.79798  -1.63249  -0.99595 
 1                    0     4.34547  -1.28229  -0.15739 
 1                    0     2.55695  -2.03653   1.44767 
 1                    0     3.11081  -0.36947   1.81531 
 1                    0    -1.43104  -2.09169  -0.54978 
 
 The following ModRedundant input section has been read:
 D       5       4      16      27 F                                           
 D       1       2       4      16 F                                           
 D       7      13      15      16 F                                           
 D       7       9      10      11 F                                           
 D       9      10      11      12 F                                           
 D       6       7      13      15 F                                           
 

 GradGradGradGradGradGradGradGradGradGradGradGradGradGradGradGradGradGrad
 Berny optimization.
 Initialization pass.
                           ----------------------------
                           !    Initial Parameters    !
                           ! (Angstroms and Degrees)  !
 --------------------------                            --------------------------
 ! Name  Definition              Value          Derivative Info.                !
 --------------------------------------------------------------------------------
 ! R1    R(1,2)                  1.2298         estimate D2E/DX2                !
 ! R2    R(2,3)                  1.2319         estimate D2E/DX2                !
 ! R3    R(2,4)                  1.5324         estimate D2E/DX2                !
 ! R4    R(4,5)                  1.3999         estimate D2E/DX2                !
 ! R5    R(4,16)                 1.492          estimate D2E/DX2                !
 ! R6    R(5,6)                  1.3674         estimate D2E/DX2                !
 ! R7    R(5,17)                 1.1026         estimate D2E/DX2                !
 ! R8    R(6,7)                  1.4892         estimate D2E/DX2                !
 ! R9    R(6,18)                 1.0229         estimate D2E/DX2                !
 ! R10   R(7,8)                  1.1213         estimate D2E/DX2                !
 ! R11   R(7,9)                  1.549          estimate D2E/DX2                !
 ! R12   R(7,13)                 1.5323         estimate D2E/DX2                !
 ! R13   R(9,10)                 1.5406         estimate D2E/DX2                !
 ! R14   R(9,19)                 1.1108         estimate D2E/DX2                !
 ! R15   R(9,20)                 1.1107         estimate D2E/DX2                !
 ! R16   R(10,11)                1.5371         estimate D2E/DX2                !
 ! R17   R(10,21)                1.112          estimate D2E/DX2                !
 ! R18   R(10,22)                1.1129         estimate D2E/DX2                !
 ! R19   R(11,12)                1.5441         estimate D2E/DX2                !
 ! R20   R(11,23)                1.1135         estimate D2E/DX2                !
 ! R21   R(11,24)                1.1118         estimate D2E/DX2                !
 ! R22   R(12,13)                1.5534         estimate D2E/DX2                !
 ! R23   R(12,25)                1.1121         estimate D2E/DX2                !
 ! R24   R(12,26)                1.1101         estimate D2E/DX2                !
 ! R25   R(13,14)                1.1153         estimate D2E/DX2                !
 ! R26   R(13,15)                1.464          estimate D2E/DX2                !
 ! R27   R(15,16)                1.293          estimate D2E/DX2                !
 ! R28   R(16,27)                1.1003         estimate D2E/DX2                !
 ! A1    A(1,2,3)              123.406          estimate D2E/DX2                !
 ! A2    A(1,2,4)              117.8401         estimate D2E/DX2                !
 ! A3    A(3,2,4)              118.7352         estimate D2E/DX2                !
 ! A4    A(2,4,5)              115.5861         estimate D2E/DX2                !
 ! A5    A(2,4,16)             116.2973         estimate D2E/DX2                !
 ! A6    A(5,4,16)             128.1166         estimate D2E/DX2                !
 ! A7    A(4,5,6)              126.4125         estimate D2E/DX2                !
 ! A8    A(4,5,17)             118.2093         estimate D2E/DX2                !
 ! A9    A(6,5,17)             115.3688         estimate D2E/DX2                !
 ! A10   A(5,6,7)              128.6095         estimate D2E/DX2                !
 ! A11   A(5,6,18)             120.2884         estimate D2E/DX2                !
 ! A12   A(7,6,18)             106.7092         estimate D2E/DX2                !
 ! A13   A(6,7,8)              105.5133         estimate D2E/DX2                !
 ! A14   A(6,7,9)              115.3148         estimate D2E/DX2                !
 ! A15   A(6,7,13)             112.1944         estimate D2E/DX2                !
 ! A16   A(8,7,9)              106.0797         estimate D2E/DX2                !
 ! A17   A(8,7,13)             106.0363         estimate D2E/DX2                !
 ! A18   A(9,7,13)             110.9205         estimate D2E/DX2                !
 ! A19   A(7,9,10)             109.352          estimate D2E/DX2                !
 ! A20   A(7,9,19)             110.1288         estimate D2E/DX2                !
 ! A21   A(7,9,20)             110.1495         estimate D2E/DX2                !
 ! A22   A(10,9,19)            109.9485         estimate D2E/DX2                !
 ! A23   A(10,9,20)            109.2534         estimate D2E/DX2                !
 ! A24   A(19,9,20)            107.989          estimate D2E/DX2                !
 ! A25   A(9,10,11)            111.1274         estimate D2E/DX2                !
 ! A26   A(9,10,21)            109.9384         estimate D2E/DX2                !
 ! A27   A(9,10,22)            109.1741         estimate D2E/DX2                !
 ! A28   A(11,10,21)           109.7895         estimate D2E/DX2                !
 ! A29   A(11,10,22)           108.8054         estimate D2E/DX2                !
 ! A30   A(21,10,22)           107.9374         estimate D2E/DX2                !
 ! A31   A(10,11,12)           111.3967         estimate D2E/DX2                !
 ! A32   A(10,11,23)           108.9923         estimate D2E/DX2                !
 ! A33   A(10,11,24)           109.8679         estimate D2E/DX2                !
 ! A34   A(12,11,23)           109.2343         estimate D2E/DX2                !
 ! A35   A(12,11,24)           109.7584         estimate D2E/DX2                !
 ! A36   A(23,11,24)           107.5026         estimate D2E/DX2                !
 ! A37   A(11,12,13)           111.4734         estimate D2E/DX2                !
 ! A38   A(11,12,25)           109.2257         estimate D2E/DX2                !
 ! A39   A(11,12,26)           109.4948         estimate D2E/DX2                !
 ! A40   A(13,12,25)           109.2599         estimate D2E/DX2                !
 ! A41   A(13,12,26)           109.5752         estimate D2E/DX2                !
 ! A42   A(25,12,26)           107.7328         estimate D2E/DX2                !
 ! A43   A(7,13,12)            105.7071         estimate D2E/DX2                !
 ! A44   A(7,13,14)            110.7269         estimate D2E/DX2                !
 ! A45   A(7,13,15)            114.5581         estimate D2E/DX2                !
 ! A46   A(12,13,14)           107.951          estimate D2E/DX2                !
 ! A47   A(12,13,15)           108.3183         estimate D2E/DX2                !
 ! A48   A(14,13,15)           109.306          estimate D2E/DX2                !
 ! A49   A(13,15,16)           120.3979         estimate D2E/DX2                !
 ! A50   A(4,16,15)            130.1566         estimate D2E/DX2                !
 ! A51   A(4,16,27)            113.2737         estimate D2E/DX2                !
 ! A52   A(15,16,27)           116.2552         estimate D2E/DX2                !
 ! D1    D(1,2,4,5)           -171.8286         estimate D2E/DX2                !
 ! D2    D(1,2,4,16)             8.2584         Frozen                          !
 ! D3    D(3,2,4,5)              9.6922         estimate D2E/DX2                !
 ! D4    D(3,2,4,16)          -170.2208         estimate D2E/DX2                !
 ! D5    D(2,4,5,6)            178.0871         estimate D2E/DX2                !
 ! D6    D(2,4,5,17)            -0.747          estimate D2E/DX2                !
 ! D7    D(16,4,5,6)            -2.0122         estimate D2E/DX2                !
 ! D8    D(16,4,5,17)          179.1538         estimate D2E/DX2                !
 ! D9    D(2,4,16,15)          179.6988         estimate D2E/DX2                !
 ! D10   D(2,4,16,27)            6.4835         estimate D2E/DX2                !
 ! D11   D(5,4,16,15)           -0.2014         estimate D2E/DX2                !
 ! D12   D(5,4,16,27)         -173.4166         Frozen                          !
 ! D13   D(4,5,6,7)             13.9562         estimate D2E/DX2                !
 ! D14   D(4,5,6,18)           167.1489         estimate D2E/DX2                !
 ! D15   D(17,5,6,7)          -167.1809         estimate D2E/DX2                !
 ! D16   D(17,5,6,18)          -13.9882         estimate D2E/DX2                !
 ! D17   D(5,6,7,8)           -161.8849         estimate D2E/DX2                !
 ! D18   D(5,6,7,9)             81.4177         estimate D2E/DX2                !
 ! D19   D(5,6,7,13)           -46.8686         estimate D2E/DX2                !
 ! D20   D(18,6,7,8)            42.1064         estimate D2E/DX2                !
 ! D21   D(18,6,7,9)           -74.591          estimate D2E/DX2                !
 ! D22   D(18,6,7,13)          157.1227         estimate D2E/DX2                !
 ! D23   D(6,7,9,10)           168.9244         estimate D2E/DX2                !
 ! D24   D(6,7,9,19)           -70.1545         estimate D2E/DX2                !
 ! D25   D(6,7,9,20)            48.8484         estimate D2E/DX2                !
 ! D26   D(8,7,9,10)            52.5479         estimate D2E/DX2                !
 ! D27   D(8,7,9,19)           173.469          estimate D2E/DX2                !
 ! D28   D(8,7,9,20)           -67.5281         estimate D2E/DX2                !
 ! D29   D(13,7,9,10)          -62.1588         estimate D2E/DX2                !
 ! D30   D(13,7,9,19)           58.7622         estimate D2E/DX2                !
 ! D31   D(13,7,9,20)          177.7652         estimate D2E/DX2                !
 ! D32   D(6,7,13,12)         -165.8038         estimate D2E/DX2                !
 ! D33   D(6,7,13,14)          -49.1416         estimate D2E/DX2                !
 ! D34   D(6,7,13,15)           75.0223         Frozen                          !
 ! D35   D(8,7,13,12)          -51.1064         estimate D2E/DX2                !
 ! D36   D(8,7,13,14)           65.5557         estimate D2E/DX2                !
 ! D37   D(8,7,13,15)         -170.2803         estimate D2E/DX2                !
 ! D38   D(9,7,13,12)           63.6275         estimate D2E/DX2                !
 ! D39   D(9,7,13,14)         -179.7104         estimate D2E/DX2                !
 ! D40   D(9,7,13,15)          -55.5464         estimate D2E/DX2                !
 ! D41   D(7,9,10,11)           54.8125         Frozen                          !
 ! D42   D(7,9,10,21)          176.567          estimate D2E/DX2                !
 ! D43   D(7,9,10,22)          -65.204          estimate D2E/DX2                !
 ! D44   D(19,9,10,11)         -66.2181         estimate D2E/DX2                !
 ! D45   D(19,9,10,21)          55.5364         estimate D2E/DX2                !
 ! D46   D(19,9,10,22)         173.7654         estimate D2E/DX2                !
 ! D47   D(20,9,10,11)         175.4365         estimate D2E/DX2                !
 ! D48   D(20,9,10,21)         -62.809          estimate D2E/DX2                !
 ! D49   D(20,9,10,22)          55.42           estimate D2E/DX2                !
 ! D50   D(9,10,11,12)         -52.8224         Frozen                          !
 ! D51   D(9,10,11,23)          67.778          estimate D2E/DX2                !
 ! D52   D(9,10,11,24)        -174.6692         estimate D2E/DX2                !
 ! D53   D(21,10,11,12)       -174.6636         estimate D2E/DX2                !
 ! D54   D(21,10,11,23)        -54.0632         estimate D2E/DX2                !
 ! D55   D(21,10,11,24)         63.4896         estimate D2E/DX2                !
 ! D56   D(22,10,11,12)         67.4128         estimate D2E/DX2                !
 ! D57   D(22,10,11,23)       -171.9868         estimate D2E/DX2                !
 ! D58   D(22,10,11,24)        -54.4341         estimate D2E/DX2                !
 ! D59   D(10,11,12,13)         56.6893         estimate D2E/DX2                !
 ! D60   D(10,11,12,25)        177.5251         estimate D2E/DX2                !
 ! D61   D(10,11,12,26)        -64.7229         estimate D2E/DX2                !
 ! D62   D(23,11,12,13)        -63.7689         estimate D2E/DX2                !
 ! D63   D(23,11,12,25)         57.0668         estimate D2E/DX2                !
 ! D64   D(23,11,12,26)        174.8189         estimate D2E/DX2                !
 ! D65   D(24,11,12,13)        178.5995         estimate D2E/DX2                !
 ! D66   D(24,11,12,25)        -60.5647         estimate D2E/DX2                !
 ! D67   D(24,11,12,26)         57.1873         estimate D2E/DX2                !
 ! D68   D(11,12,13,7)         -60.5941         estimate D2E/DX2                !
 ! D69   D(11,12,13,14)       -179.1205         estimate D2E/DX2                !
 ! D70   D(11,12,13,15)         62.6281         estimate D2E/DX2                !
 ! D71   D(25,12,13,7)         178.5901         estimate D2E/DX2                !
 ! D72   D(25,12,13,14)         60.0637         estimate D2E/DX2                !
 ! D73   D(25,12,13,15)        -58.1877         estimate D2E/DX2                !
 ! D74   D(26,12,13,7)          60.7714         estimate D2E/DX2                !
 ! D75   D(26,12,13,14)        -57.755          estimate D2E/DX2                !
 ! D76   D(26,12,13,15)       -176.0064         estimate D2E/DX2                !
 ! D77   D(7,13,15,16)         -67.1608         Frozen                          !
 ! D78   D(12,13,15,16)        175.1408         estimate D2E/DX2                !
 ! D79   D(14,13,15,16)         57.7551         estimate D2E/DX2                !
 ! D80   D(13,15,16,4)          27.3777         estimate D2E/DX2                !
 ! D81   D(13,15,16,27)       -159.5728         estimate D2E/DX2                !
 --------------------------------------------------------------------------------
 Trust Radius=3.00D-01 FncErr=1.00D-07 GrdErr=1.00D-07 EigMax=2.50D+02 EigMin=1.00D-04
 Number of steps in this run=     20 maximum allowed number of steps=    162.
 GradGradGradGradGradGradGradGradGradGradGradGradGradGradGradGradGradGrad

                          Input orientation:                          
 ---------------------------------------------------------------------
 Center     Atomic      Atomic             Coordinates (Angstroms)
 Number     Number       Type             X           Y           Z
 ---------------------------------------------------------------------
      1          8           0       -3.648500   -1.316860   -0.522480
      2          7           0       -3.225880   -0.171460   -0.375020
      3          8           0       -3.930740    0.831940   -0.492720
      4          6           0       -1.736030    0.007130   -0.063830
      5          6           0       -1.339790    1.307650    0.270040
      6          7           0       -0.080170    1.707470    0.621080
      7          6           0        1.204880    0.970380    0.469240
      8          1           0        1.924820    1.476460    1.164140
      9          6           0        1.846420    1.040720   -0.938960
     10          6           0        3.280490    0.481490   -0.875130
     11          6           0        3.296170   -0.936980   -0.283300
     12          6           0        2.563050   -0.988920    1.074650
     13          6           0        1.100410   -0.480490    0.951060
     14          1           0        0.633410   -0.527770    1.962790
     15          7           0        0.378310   -1.372850    0.042480
     16          6           0       -0.890120   -1.218520   -0.155190
     17          1           0       -2.105600    2.100920    0.274320
     18          1           0        0.154010    2.702520    0.656950
     19          1           0        1.242760    0.454040   -1.663790
     20          1           0        1.879120    2.093180   -1.292360
     21          1           0        3.728600    0.469810   -1.892790
     22          1           0        3.903200    1.144600   -0.234020
     23          1           0        2.797980   -1.632490   -0.995950
     24          1           0        4.345470   -1.282290   -0.157390
     25          1           0        2.556950   -2.036530    1.447670
     26          1           0        3.110810   -0.369470    1.815310
     27          1           0       -1.431040   -2.091690   -0.549780
 ---------------------------------------------------------------------
                    Distance matrix (angstroms):
                    1          2          3          4          5
     1  O    0.000000
     2  N    1.229753   0.000000
     3  O    2.167461   1.231865   0.000000
     4  C    2.370833   1.532445   2.383487   0.000000
     5  C    3.584171   2.482177   2.742467   1.399938   0.000000
     6  N    4.815317   3.797115   4.102925   2.470249   1.367380
     7  C    5.456214   4.652763   5.226770   3.140217   2.574641
     8  H    6.458268   5.622665   6.119491   4.131424   3.389040
     9  C    5.993812   5.245535   5.798129   3.829897   3.418313
    10  C    7.167240   6.558148   7.229861   5.103793   4.831246
    11  C    6.959164   6.567463   7.443196   5.124700   5.180413
    12  C    6.421972   6.023412   6.923979   4.557449   4.599325
    13  C    5.042121   4.535501   5.396243   3.051748   3.100937
    14  H    5.013380   4.526194   5.358153   3.163472   3.182403
    15  N    4.066634   3.822019   4.869851   2.527069   3.191979
    16  C    2.784463   2.569131   3.682891   1.492022   2.600876
    17  H    3.833621   2.615412   2.351552   2.152878   1.102615
    18  H    5.657345   4.555039   4.637455   3.370000   2.080096
    19  H    5.325702   4.692646   5.317830   3.410688   3.337351
    20  H    6.540311   5.659605   5.998719   4.350885   3.663268
    21  H    7.713076   7.147003   7.794666   5.781120   5.573902
    22  H    7.947966   7.250909   7.844444   5.755321   5.269687
    23  H    6.471545   6.229531   7.183476   4.910646   5.231472
    24  H    8.002377   7.655498   8.548571   6.217395   6.262002
    25  H    6.550345   6.343643   7.354139   4.989074   5.268295
    26  H    7.214644   6.707488   7.506918   5.211991   5.000843
    27  H    2.349093   2.634250   3.846995   2.175824   3.497991
                    6          7          8          9         10
     6  N    0.000000
     7  C    1.489198   0.000000
     8  H    2.090039   1.121301   0.000000
     9  C    2.567105   1.549048   2.149196   0.000000
    10  C    3.877590   2.520814   2.643185   1.540574   0.000000
    11  C    4.383000   2.928794   3.130555   2.538299   1.537064
    12  C    3.803006   2.459675   2.548224   2.947477   2.545283
    13  C    2.507952   1.532347   2.134176   2.538264   3.002187
    14  H    2.702902   2.191283   2.514462   3.514500   4.009916
    15  N    3.167547   2.521125   3.430508   2.990634   3.564160
    16  C    3.133693   3.093577   4.114297   3.634159   4.560958
    17  H    2.092227   3.503626   4.174448   4.267849   5.740536
    18  H    1.022864   2.034667   2.212743   2.858804   4.129785
    19  H    2.922646   2.194962   3.083462   1.110845   2.185196
    20  H    2.765654   2.195111   2.533145   1.110690   2.176112
    21  H    4.728432   3.492695   3.689416   2.185939   1.112012
    22  H    4.112816   2.793897   2.445193   2.176712   1.112881
    23  H    4.696154   3.385215   3.885096   2.838092   2.171710
    24  H    5.397311   3.915417   3.900858   3.500354   2.181800
    25  H    4.653514   3.439030   3.580653   3.958576   3.501333
    26  H    3.990265   2.690664   2.288679   3.342652   2.826905
    27  H    4.198735   4.166863   5.189510   4.550296   5.378255
                   11         12         13         14         15
    11  C    0.000000
    12  C    1.544083   0.000000
    13  C    2.559959   1.553413   0.000000
    14  H    3.507515   2.173698   1.115313   0.000000
    15  N    2.968168   2.446603   1.463985   2.113487   0.000000
    16  C    4.197702   3.672820   2.393885   2.698911   1.292983
    17  H    6.222451   5.655434   4.171349   4.154891   4.276755
    18  H    4.899306   4.427717   3.333726   3.517075   4.127532
    19  H    2.838518   3.365168   2.780477   3.806224   2.645025
    20  H    3.494010   3.945863   3.501871   4.360868   4.005945
    21  H    2.180943   3.506009   3.987222   5.043894   4.285453
    22  H    2.168845   2.839107   3.449777   4.279524   4.340375
    23  H    1.113462   2.180999   2.828373   3.828826   2.645856
    24  H    1.111811   2.186552   3.521642   4.340951   3.973224
    25  H    2.179843   1.112056   2.188468   2.498342   2.676098
    26  H    2.181878   1.110107   2.191110   2.486829   3.408263
    27  H    4.873488   4.450576   3.355104   3.608436   2.035006
                   16         17         18         19         20
    16  C    0.000000
    17  H    3.560976   0.000000
    18  H    4.138156   2.369423   0.000000
    19  H    3.102017   4.204759   3.409820   0.000000
    20  H    4.464214   4.281652   2.673408   1.797135   0.000000
    21  H    5.215581   6.433877   4.925836   2.496415   2.533066
    22  H    5.344761   6.105623   4.156605   3.098234   2.473214
    23  H    3.805303   6.292617   5.339941   2.686694   3.848737
    24  H    5.235979   7.297177   5.840394   3.861462   4.331840
    25  H    3.888521   6.343076   5.371960   4.196572   5.002172
    26  H    4.539956   5.973978   4.418324   4.033846   4.152026
    27  H    1.100328   4.325754   5.191631   3.856289   5.387181
                   21         22         23         24         25
    21  H    0.000000
    22  H    1.799262   0.000000
    23  H    2.467801   3.084522   0.000000
    24  H    2.542046   2.468050   1.794589   0.000000
    25  H    4.337416   3.841882   2.488498   2.518710   0.000000
    26  H    3.851761   2.668341   3.097784   2.499834   1.794717
    27  H    5.914968   6.247191   4.277212   5.846124   4.460596
                   26         27
    26  H    0.000000
    27  H    5.402601   0.000000
 Symmetry turned off by external request.
 Stoichiometry    C9H13N3O2
 Framework group  C1[X(C9H13N3O2)]
 Deg. of freedom    75
 Full point group                 C1      NOp   1
 Rotational constants (GHZ):           1.6167808           0.4022747           0.3598267
 Standard basis: 6-31G(d) (6D, 7F)
   236 basis functions,   444 primitive gaussians,   236 cartesian basis functions
    52 alpha electrons       52 beta electrons
       nuclear repulsion energy       917.3063568657 Hartrees.
 NAtoms=   27 NActive=   27 NUniq=   27 SFac= 1.00D+00 NAtFMM=   60 NAOKFM=F Big=F
 Integral buffers will be    131072 words long.
 Raffenetti 1 integral format.
 Two-electron integral symmetry is turned off.
 One-electron integrals computed using PRISM.
 NBasis=   236 RedAO= T EigKep=  1.26D-03  NBF=   236
 NBsUse=   236 1.00D-06 EigRej= -1.00D+00 NBFU=   236
 ExpMin= 1.61D-01 ExpMax= 5.48D+03 ExpMxC= 8.25D+02 IAcc=3 IRadAn=         5 AccDes= 0.00D+00
 Harris functional with IExCor=  205 and IRadAn=       5 diagonalized for initial guess.
 HarFok:  IExCor=  205 AccDes= 0.00D+00 IRadAn=         5 IDoV= 1 UseB2=F ITyADJ=14
 ICtDFT=  3500011 ScaDFX=  1.000000  1.000000  1.000000  1.000000
 FoFCou: FMM=F IPFlag=           0 FMFlag=      100000 FMFlg1=           0
         NFxFlg=           0 DoJE=T BraDBF=F KetDBF=T FulRan=T
         wScrn=  0.000000 ICntrl=       500 IOpCl=  0 I1Cent=   200000004 NGrid=           0
         NMat0=    1 NMatS0=      1 NMatT0=    0 NMatD0=    1 NMtDS0=    0 NMtDT0=    0
 Symmetry not used in FoFCou.
 Keep R1 ints in memory in canonical form, NReq=397720213.
 Requested convergence on RMS density matrix=1.00D-08 within 128 cycles.
 Requested convergence on MAX density matrix=1.00D-06.
 Requested convergence on             energy=1.00D-06.
 No special actions if energy rises.
 SCF Done:  E(RHF) =  -661.277233295     A.U. after   16 cycles
            NFock= 16  Conv=0.70D-08     -V/T= 2.0037
 ExpMin= 1.61D-01 ExpMax= 5.48D+03 ExpMxC= 8.25D+02 IAcc=3 IRadAn=         5 AccDes= 0.00D+00
 HarFok:  IExCor=  205 AccDes= 0.00D+00 IRadAn=         5 IDoV=-2 UseB2=F ITyADJ=14
 ICtDFT= 12500011 ScaDFX=  1.000000  1.000000  1.000000  1.000000
 Range of M.O.s used for correlation:    15   236
 NBasis=   236 NAE=    52 NBE=    52 NFC=    14 NFV=     0
 NROrb=    222 NOA=    38 NOB=    38 NVA=   184 NVB=   184
 Fully direct method using O(ONN) memory.
 JobTyp=1 Pass  1:  I=  15 to  52 NPSUse=  4 ParTrn=T ParDer=T DoDerP=T.
 Spin components of T(2) and E(2):
     alpha-alpha T2 =       0.9213676902D-01 E2=     -0.2719621204D+00
     alpha-beta  T2 =       0.4996637017D+00 E2=     -0.1493696565D+01
     beta-beta   T2 =       0.9213676902D-01 E2=     -0.2719621204D+00
 ANorm=    0.1297666074D+01
 E2 =    -0.2037620806D+01 EUMP2 =    -0.66331485410039D+03
          IDoAtm=111111111111111111111111111
          Differentiating once with respect to electric field.
                with respect to dipole field.
          Differentiating once with respect to nuclear coordinates.
 Keep R1 ints in memory in canonical form, NReq=397723379.
          There are     1 degrees of freedom in the 1st order CPHF.  IDoFFX=0 NUNeed=     1.
 LinEq1:  Iter=  0 NonCon=     1 RMS=4.67D-03 Max=1.28D-01 NDo=     1
 AX will form     1 AO Fock derivatives at one time.
 LinEq1:  Iter=  1 NonCon=     1 RMS=1.59D-03 Max=4.74D-02 NDo=     1
 LinEq1:  Iter=  2 NonCon=     1 RMS=6.55D-04 Max=2.09D-02 NDo=     1
 LinEq1:  Iter=  3 NonCon=     1 RMS=2.99D-04 Max=9.67D-03 NDo=     1
 LinEq1:  Iter=  4 NonCon=     1 RMS=9.44D-05 Max=2.58D-03 NDo=     1
 LinEq1:  Iter=  5 NonCon=     1 RMS=3.90D-05 Max=1.79D-03 NDo=     1
 LinEq1:  Iter=  6 NonCon=     1 RMS=1.61D-05 Max=5.49D-04 NDo=     1
 LinEq1:  Iter=  7 NonCon=     1 RMS=6.09D-06 Max=6.78D-05 NDo=     1
 LinEq1:  Iter=  8 NonCon=     1 RMS=2.41D-06 Max=5.07D-05 NDo=     1
 LinEq1:  Iter=  9 NonCon=     1 RMS=8.91D-07 Max=2.51D-05 NDo=     1
 LinEq1:  Iter= 10 NonCon=     1 RMS=4.23D-07 Max=1.30D-05 NDo=     1
 LinEq1:  Iter= 11 NonCon=     1 RMS=1.60D-07 Max=5.47D-06 NDo=     1
 LinEq1:  Iter= 12 NonCon=     1 RMS=5.72D-08 Max=9.97D-07 NDo=     1
 LinEq1:  Iter= 13 NonCon=     1 RMS=1.81D-08 Max=3.99D-07 NDo=     1
 LinEq1:  Iter= 14 NonCon=     1 RMS=5.66D-09 Max=1.61D-07 NDo=     1
 LinEq1:  Iter= 15 NonCon=     1 RMS=2.06D-09 Max=6.58D-08 NDo=     1
 LinEq1:  Iter= 16 NonCon=     1 RMS=7.44D-10 Max=1.25D-08 NDo=     1
 LinEq1:  Iter= 17 NonCon=     1 RMS=2.52D-10 Max=4.43D-09 NDo=     1
 LinEq1:  Iter= 18 NonCon=     1 RMS=9.08D-11 Max=1.56D-09 NDo=     1
 LinEq1:  Iter= 19 NonCon=     0 RMS=3.26D-11 Max=7.20D-10 NDo=     1
 Linear equations converged to 1.000D-10 1.000D-09 after    19 iterations.
 End of Minotr F.D. properties file   721 does not exist.
 End of Minotr F.D. properties file   722 does not exist.
 End of Minotr F.D. properties file   788 does not exist.

 **********************************************************************

            Population analysis using the SCF Density.

 **********************************************************************

 Alpha  occ. eigenvalues --  -20.59783 -20.59432 -15.85312 -15.63818 -15.56041
 Alpha  occ. eigenvalues --  -11.36016 -11.30512 -11.30183 -11.29990 -11.27541
 Alpha  occ. eigenvalues --  -11.24650 -11.23893 -11.23261 -11.22842  -1.58487
 Alpha  occ. eigenvalues --   -1.37960  -1.29015  -1.22407  -1.13278  -1.08411
 Alpha  occ. eigenvalues --   -1.01702  -1.00729  -0.93713  -0.88894  -0.84894
 Alpha  occ. eigenvalues --   -0.81514  -0.78005  -0.77026  -0.74414  -0.71242
 Alpha  occ. eigenvalues --   -0.70278  -0.69811  -0.67356  -0.64005  -0.63335
 Alpha  occ. eigenvalues --   -0.61878  -0.59814  -0.57442  -0.56476  -0.54801
 Alpha  occ. eigenvalues --   -0.54158  -0.50520  -0.49795  -0.48615  -0.47847
 Alpha  occ. eigenvalues --   -0.47765  -0.46418  -0.45333  -0.44053  -0.42220
 Alpha  occ. eigenvalues --   -0.38886  -0.33508
 Alpha virt. eigenvalues --    0.07314   0.11451   0.17308   0.21598   0.23798
 Alpha virt. eigenvalues --    0.25157   0.25817   0.27943   0.28601   0.28886
 Alpha virt. eigenvalues --    0.29979   0.31471   0.31783   0.32419   0.33185
 Alpha virt. eigenvalues --    0.33932   0.34672   0.35692   0.37708   0.38816
 Alpha virt. eigenvalues --    0.40343   0.41114   0.43780   0.45167   0.45308
 Alpha virt. eigenvalues --    0.47036   0.49857   0.53376   0.57666   0.59132
 Alpha virt. eigenvalues --    0.63278   0.68362   0.69468   0.72484   0.74088
 Alpha virt. eigenvalues --    0.74857   0.75732   0.75896   0.78220   0.78604
 Alpha virt. eigenvalues --    0.81038   0.82359   0.84640   0.84960   0.87866
 Alpha virt. eigenvalues --    0.88502   0.90694   0.91760   0.92453   0.93720
 Alpha virt. eigenvalues --    0.95024   0.97451   0.99388   1.00972   1.01948
 Alpha virt. eigenvalues --    1.03067   1.04965   1.06087   1.07149   1.08628
 Alpha virt. eigenvalues --    1.09853   1.10665   1.11790   1.12905   1.13198
 Alpha virt. eigenvalues --    1.13335   1.14333   1.15330   1.15865   1.16622
 Alpha virt. eigenvalues --    1.17890   1.20431   1.21393   1.21846   1.22977
 Alpha virt. eigenvalues --    1.23304   1.25031   1.25708   1.27252   1.28496
 Alpha virt. eigenvalues --    1.29075   1.31408   1.34295   1.36602   1.39000
 Alpha virt. eigenvalues --    1.41979   1.47855   1.51565   1.52600   1.53863
 Alpha virt. eigenvalues --    1.54131   1.58637   1.60729   1.63856   1.65238
 Alpha virt. eigenvalues --    1.67380   1.68884   1.71884   1.72519   1.76653
 Alpha virt. eigenvalues --    1.79625   1.82377   1.83690   1.87342   1.91246
 Alpha virt. eigenvalues --    1.93360   1.96015   1.97934   1.99977   2.00862
 Alpha virt. eigenvalues --    2.02955   2.03165   2.05603   2.09621   2.11629
 Alpha virt. eigenvalues --    2.11899   2.13304   2.16814   2.18120   2.19676
 Alpha virt. eigenvalues --    2.20434   2.22211   2.23967   2.24705   2.25891
 Alpha virt. eigenvalues --    2.28987   2.31961   2.32808   2.35293   2.37027
 Alpha virt. eigenvalues --    2.39600   2.41583   2.42583   2.44841   2.45536
 Alpha virt. eigenvalues --    2.48675   2.50675   2.50916   2.56304   2.57310
 Alpha virt. eigenvalues --    2.60350   2.63767   2.65997   2.67810   2.68404
 Alpha virt. eigenvalues --    2.69283   2.70328   2.74105   2.75215   2.81383
 Alpha virt. eigenvalues --    2.84853   2.86487   2.89771   2.91479   2.94120
 Alpha virt. eigenvalues --    2.97703   2.98029   3.02176   3.05687   3.06941
 Alpha virt. eigenvalues --    3.07962   3.14672   3.18542   3.22776   3.27212
 Alpha virt. eigenvalues --    3.31729   3.32024   3.38250   3.42367   3.60709
 Alpha virt. eigenvalues --    4.10504   4.23066   4.32253   4.36451   4.44492
 Alpha virt. eigenvalues --    4.52110   4.59373   4.60066   4.70651   4.78272
 Alpha virt. eigenvalues --    4.96829   4.99228   5.04683   5.08920
          Condensed to atoms (all electrons):
               1          2          3          4          5          6
     1  O    8.302615   0.309676  -0.090381  -0.076823   0.003518  -0.000011
     2  N    0.309676   5.679171   0.312174   0.263610  -0.048688   0.000731
     3  O   -0.090381   0.312174   8.328846  -0.088160   0.008095   0.000488
     4  C   -0.076823   0.263610  -0.088160   5.259649   0.562911  -0.050988
     5  C    0.003518  -0.048688   0.008095   0.562911   4.685994   0.316038
     6  N   -0.000011   0.000731   0.000488  -0.050988   0.316038   7.155144
     7  C    0.000001  -0.000100   0.000001   0.006149  -0.029586   0.204835
     8  H   -0.000000   0.000001  -0.000000  -0.000260   0.002887  -0.045731
     9  C    0.000000  -0.000005  -0.000000   0.000668   0.000638  -0.058318
    10  C   -0.000000   0.000000   0.000000  -0.000025  -0.000031   0.003352
    11  C   -0.000000  -0.000000  -0.000000  -0.000011   0.000010  -0.000150
    12  C   -0.000000   0.000001  -0.000000  -0.000256  -0.000138   0.003885
    13  C   -0.000008   0.000020  -0.000001  -0.007627  -0.000757  -0.052075
    14  H    0.000000  -0.000029   0.000000   0.001789   0.002824  -0.005053
    15  N    0.000419   0.001461  -0.000009  -0.063228  -0.004847   0.002165
    16  C    0.001027  -0.021584   0.002087   0.310280  -0.044265   0.001109
    17  H    0.000154  -0.004504   0.012830  -0.023847   0.374427  -0.031717
    18  H    0.000000  -0.000033   0.000008   0.001617  -0.026464   0.331749
    19  H    0.000000  -0.000004  -0.000000  -0.000998   0.001258  -0.000313
    20  H    0.000000   0.000000   0.000000  -0.000038  -0.000030  -0.000505
    21  H   -0.000000  -0.000000  -0.000000   0.000001   0.000001  -0.000063
    22  H   -0.000000   0.000000  -0.000000  -0.000000  -0.000001  -0.000092
    23  H    0.000000  -0.000000   0.000000   0.000025  -0.000001  -0.000024
    24  H    0.000000   0.000000   0.000000  -0.000000  -0.000000   0.000005
    25  H    0.000000  -0.000000   0.000000   0.000024  -0.000001  -0.000076
    26  H    0.000000  -0.000000   0.000000   0.000004  -0.000001  -0.000078
    27  H    0.006996  -0.000103   0.000065  -0.068054   0.001980  -0.000022
               7          8          9         10         11         12
     1  O    0.000001  -0.000000   0.000000  -0.000000  -0.000000  -0.000000
     2  N   -0.000100   0.000001  -0.000005   0.000000  -0.000000   0.000001
     3  O    0.000001  -0.000000  -0.000000   0.000000  -0.000000  -0.000000
     4  C    0.006149  -0.000260   0.000668  -0.000025  -0.000011  -0.000256
     5  C   -0.029586   0.002887   0.000638  -0.000031   0.000010  -0.000138
     6  N    0.204835  -0.045731  -0.058318   0.003352  -0.000150   0.003885
     7  C    5.049951   0.413032   0.342779  -0.049152  -0.008227  -0.065149
     8  H    0.413032   0.543920  -0.057138   0.000606  -0.000181  -0.003365
     9  C    0.342779  -0.057138   5.172907   0.320086  -0.053750  -0.005353
    10  C   -0.049152   0.000606   0.320086   5.126367   0.332551  -0.060806
    11  C   -0.008227  -0.000181  -0.053750   0.332551   5.125065   0.330435
    12  C   -0.065149  -0.003365  -0.005353  -0.060806   0.330435   5.142414
    13  C    0.313292  -0.037688  -0.055072  -0.000893  -0.047011   0.367632
    14  H   -0.042468  -0.000802   0.003773  -0.000384   0.003964  -0.041299
    15  N   -0.064472   0.004045  -0.011444   0.001200  -0.007204  -0.075951
    16  C   -0.000250  -0.000178   0.000001  -0.000086  -0.000013   0.002448
    17  H    0.001442  -0.000050  -0.000043   0.000001  -0.000000   0.000001
    18  H   -0.030176  -0.004256   0.001129  -0.000114   0.000010  -0.000158
    19  H   -0.035298   0.003973   0.388600  -0.033504  -0.002102   0.000518
    20  H   -0.042012  -0.001803   0.397081  -0.036895   0.004124  -0.000387
    21  H    0.004093  -0.000067  -0.035980   0.400114  -0.035767   0.004242
    22  H   -0.004535   0.003543  -0.045534   0.395743  -0.045489  -0.001246
    23  H    0.000508   0.000034  -0.002039  -0.040261   0.396571  -0.036800
    24  H   -0.000147  -0.000106   0.004409  -0.038474   0.400413  -0.037686
    25  H    0.005223  -0.000019  -0.000391   0.004112  -0.033650   0.394632
    26  H   -0.004408   0.001453   0.001105  -0.002445  -0.042552   0.393881
    27  H   -0.000381   0.000008  -0.000041   0.000002   0.000006  -0.000023
              13         14         15         16         17         18
     1  O   -0.000008   0.000000   0.000419   0.001027   0.000154   0.000000
     2  N    0.000020  -0.000029   0.001461  -0.021584  -0.004504  -0.000033
     3  O   -0.000001   0.000000  -0.000009   0.002087   0.012830   0.000008
     4  C   -0.007627   0.001789  -0.063228   0.310280  -0.023847   0.001617
     5  C   -0.000757   0.002824  -0.004847  -0.044265   0.374427  -0.026464
     6  N   -0.052075  -0.005053   0.002165   0.001109  -0.031717   0.331749
     7  C    0.313292  -0.042468  -0.064472  -0.000250   0.001442  -0.030176
     8  H   -0.037688  -0.000802   0.004045  -0.000178  -0.000050  -0.004256
     9  C   -0.055072   0.003773  -0.011444   0.000001  -0.000043   0.001129
    10  C   -0.000893  -0.000384   0.001200  -0.000086   0.000001  -0.000114
    11  C   -0.047011   0.003964  -0.007204  -0.000013  -0.000000   0.000010
    12  C    0.367632  -0.041299  -0.075951   0.002448   0.000001  -0.000158
    13  C    5.016566   0.409404   0.251674  -0.066164  -0.000079   0.004049
    14  H    0.409404   0.516934  -0.033828  -0.007892   0.000006  -0.000010
    15  N    0.251674  -0.033828   6.965170   0.578702  -0.000057  -0.000125
    16  C   -0.066164  -0.007892   0.578702   4.710074   0.001378  -0.000170
    17  H   -0.000079   0.000006  -0.000057   0.001378   0.380172  -0.002592
    18  H    0.004049  -0.000010  -0.000125  -0.000170  -0.002592   0.325960
    19  H   -0.005784   0.000059   0.006570   0.001685   0.000004  -0.000131
    20  H    0.003953  -0.000053   0.000089  -0.000043  -0.000013   0.002021
    21  H   -0.000413   0.000009  -0.000034   0.000003  -0.000000   0.000000
    22  H    0.000323  -0.000041   0.000010  -0.000000   0.000000   0.000002
    23  H   -0.006029   0.000001   0.006776   0.000096   0.000000   0.000000
    24  H    0.004156  -0.000061   0.000007   0.000005   0.000000  -0.000000
    25  H   -0.034314  -0.002755   0.001525  -0.000062  -0.000000   0.000003
    26  H   -0.045120  -0.000895   0.004246  -0.000027   0.000000  -0.000001
    27  H    0.004650  -0.000134  -0.041120   0.404205  -0.000063   0.000000
              19         20         21         22         23         24
     1  O    0.000000   0.000000  -0.000000  -0.000000   0.000000   0.000000
     2  N   -0.000004   0.000000  -0.000000   0.000000  -0.000000   0.000000
     3  O   -0.000000   0.000000  -0.000000  -0.000000   0.000000   0.000000
     4  C   -0.000998  -0.000038   0.000001  -0.000000   0.000025  -0.000000
     5  C    0.001258  -0.000030   0.000001  -0.000001  -0.000001  -0.000000
     6  N   -0.000313  -0.000505  -0.000063  -0.000092  -0.000024   0.000005
     7  C   -0.035298  -0.042012   0.004093  -0.004535   0.000508  -0.000147
     8  H    0.003973  -0.001803  -0.000067   0.003543   0.000034  -0.000106
     9  C    0.388600   0.397081  -0.035980  -0.045534  -0.002039   0.004409
    10  C   -0.033504  -0.036895   0.400114   0.395743  -0.040261  -0.038474
    11  C   -0.002102   0.004124  -0.035767  -0.045489   0.396571   0.400413
    12  C    0.000518  -0.000387   0.004242  -0.001246  -0.036800  -0.037686
    13  C   -0.005784   0.003953  -0.000413   0.000323  -0.006029   0.004156
    14  H    0.000059  -0.000053   0.000009  -0.000041   0.000001  -0.000061
    15  N    0.006570   0.000089  -0.000034   0.000010   0.006776   0.000007
    16  C    0.001685  -0.000043   0.000003  -0.000000   0.000096   0.000005
    17  H    0.000004  -0.000013  -0.000000   0.000000   0.000000   0.000000
    18  H   -0.000131   0.002021   0.000000   0.000002   0.000000  -0.000000
    19  H    0.505412  -0.023679  -0.002545   0.003760   0.001683  -0.000074
    20  H   -0.023679   0.546720  -0.002664  -0.002917  -0.000049  -0.000090
    21  H   -0.002545  -0.002664   0.525471  -0.024679  -0.002825  -0.002065
    22  H    0.003760  -0.002917  -0.024679   0.569432   0.004068  -0.003545
    23  H    0.001683  -0.000049  -0.002825   0.004068   0.510427  -0.024890
    24  H   -0.000074  -0.000090  -0.002065  -0.003545  -0.024890   0.540420
    25  H   -0.000028   0.000011  -0.000086  -0.000083  -0.002053  -0.002415
    26  H    0.000023  -0.000035  -0.000072   0.002452   0.003849  -0.002760
    27  H    0.000063   0.000000  -0.000000   0.000000  -0.000021  -0.000000
              25         26         27
     1  O    0.000000   0.000000   0.006996
     2  N   -0.000000  -0.000000  -0.000103
     3  O    0.000000   0.000000   0.000065
     4  C    0.000024   0.000004  -0.068054
     5  C   -0.000001  -0.000001   0.001980
     6  N   -0.000076  -0.000078  -0.000022
     7  C    0.005223  -0.004408  -0.000381
     8  H   -0.000019   0.001453   0.000008
     9  C   -0.000391   0.001105  -0.000041
    10  C    0.004112  -0.002445   0.000002
    11  C   -0.033650  -0.042552   0.000006
    12  C    0.394632   0.393881  -0.000023
    13  C   -0.034314  -0.045120   0.004650
    14  H   -0.002755  -0.000895  -0.000134
    15  N    0.001525   0.004246  -0.041120
    16  C   -0.000062  -0.000027   0.404205
    17  H   -0.000000   0.000000  -0.000063
    18  H    0.000003  -0.000001   0.000000
    19  H   -0.000028   0.000023   0.000063
    20  H    0.000011  -0.000035   0.000000
    21  H   -0.000086  -0.000072  -0.000000
    22  H   -0.000083   0.002452   0.000000
    23  H   -0.002053   0.003849  -0.000021
    24  H   -0.002415  -0.002760  -0.000000
    25  H    0.509702  -0.023230  -0.000017
    26  H   -0.023230   0.565019   0.000001
    27  H   -0.000017   0.000001   0.440057
 Mulliken charges:
               1
     1  O   -0.457183
     2  N    0.508206
     3  O   -0.486044
     4  C   -0.026411
     5  C    0.194228
     6  N   -0.774285
     7  C    0.035052
     8  H    0.178142
     9  C   -0.308067
    10  C   -0.321064
    11  C   -0.317043
    12  C   -0.311471
    13  C   -0.016684
    14  H    0.196942
    15  N   -0.521738
    16  C    0.127633
    17  H    0.292549
    18  H    0.397680
    19  H    0.190851
    20  H    0.157214
    21  H    0.173325
    22  H    0.148830
    23  H    0.190950
    24  H    0.162901
    25  H    0.183949
    26  H    0.149590
    27  H    0.251946
 Sum of Mulliken charges =  -0.00000
 Mulliken charges with hydrogens summed into heavy atoms:
               1
     1  O   -0.457183
     2  N    0.508206
     3  O   -0.486044
     4  C   -0.026411
     5  C    0.486778
     6  N   -0.376606
     7  C    0.213194
     9  C    0.039999
    10  C    0.001091
    11  C    0.036808
    12  C    0.022068
    13  C    0.180258
    15  N   -0.521738
    16  C    0.379579
 Electronic spatial extent (au):  <R**2>=           3111.6164
 Charge=             -0.0000 electrons
 Dipole moment (field-independent basis, Debye):
    X=              5.3238    Y=              4.4392    Z=              1.6097  Tot=              7.1162
 Quadrupole moment (field-independent basis, Debye-Ang):
   XX=           -104.7513   YY=            -79.7202   ZZ=            -83.0984
   XY=             -0.4828   XZ=             -3.3085   YZ=              1.1613
 Traceless Quadrupole moment (field-independent basis, Debye-Ang):
   XX=            -15.5614   YY=              9.4698   ZZ=              6.0916
   XY=             -0.4828   XZ=             -3.3085   YZ=              1.1613
 Octapole moment (field-independent basis, Debye-Ang**2):
  XXX=             95.3606  YYY=             32.9468  ZZZ=              2.5148  XYY=             -3.5396
  XXY=              6.8614  XXZ=             20.8629  XZZ=             -4.7731  YZZ=             -2.1107
  YYZ=              7.9521  XYZ=             -0.4306
 Hexadecapole moment (field-independent basis, Debye-Ang**3):
 XXXX=          -3478.5393 YYYY=           -616.3221 ZZZZ=           -330.5997 XXXY=             -2.6459
 XXXZ=           -130.9956 YYYX=             12.4866 YYYZ=             24.7610 ZZZX=            -56.8441
 ZZZY=              8.2262 XXYY=           -646.6095 XXZZ=           -553.3059 YYZZ=           -170.1810
 XXYZ=              6.9142 YYXZ=            -20.4269 ZZXY=              9.0132
 N-N= 9.173063568657D+02 E-N=-3.380651393348D+03  KE= 6.588697650951D+02
 Calling FoFJK, ICntrl=  10002127 FMM=F ISym2X=0 I1Cent= 0 IOpClX= 0 NMat=1 NMatS=1 NMatT=0.
 -------------------------------------------------------------------
 Center     Atomic                   Forces (Hartrees/Bohr)
 Number     Number              X              Y              Z
 -------------------------------------------------------------------
      1        8           0.000327649   -0.018924811    0.000151884
      2        7           0.039411028    0.008594516    0.006851935
      3        8          -0.003425953    0.016869988    0.001184880
      4        6          -0.002940345    0.002665455    0.011964613
      5        6           0.002474088   -0.013726876   -0.006151037
      6        7           0.016405821   -0.002603567   -0.010264113
      7        6          -0.003598566    0.005963638    0.005755285
      8        1          -0.012343077   -0.001762039   -0.006782934
      9        6          -0.004356207    0.001228029   -0.002149250
     10        6           0.002693812   -0.001355282    0.000669885
     11        6          -0.001177488   -0.004171553   -0.001788824
     12        6           0.000674903   -0.009448863   -0.002863739
     13        6           0.013304228    0.000531604   -0.002316831
     14        1           0.001113868    0.003290976   -0.011520972
     15        7          -0.000573091   -0.008814481    0.022145453
     16        6          -0.021623372    0.015201749   -0.014735381
     17        1           0.006944216   -0.008313494    0.000061902
     18        1          -0.018547139   -0.002592494    0.000527155
     19        1           0.003345085    0.005688181    0.007300852
     20        1          -0.002915903   -0.007786048    0.002910379
     21        1          -0.003558623    0.002352683    0.009924142
     22        1          -0.004564369   -0.004006714   -0.006984058
     23        1           0.004516323    0.005923712    0.008778096
     24        1          -0.009618465    0.002312607   -0.001418864
     25        1          -0.001267007    0.010610849   -0.002506750
     26        1          -0.004941160   -0.004691063   -0.003948983
     27        1           0.004239746    0.006963300   -0.004794726
 -------------------------------------------------------------------
 Cartesian Forces:  Max     0.039411028 RMS     0.009095850

 GradGradGradGradGradGradGradGradGradGradGradGradGradGradGradGradGradGrad
 Berny optimization.
 FormGI is forming the generalized inverse of G from B-inverse, IUseBI=4.
 Internal  Forces:  Max     0.037728394 RMS     0.007041280
 Search for a local minimum.
 Step number   1 out of a maximum of   20
 All quantities printed in internal units (Hartrees-Bohrs-Radians)
 Mixed Optimization -- RFO/linear search
 Second derivative matrix not updated -- first step.
 ITU=  0
     Eigenvalues ---    0.00233   0.00779   0.01057   0.01146   0.01232
     Eigenvalues ---    0.01503   0.01544   0.01839   0.02046   0.02106
     Eigenvalues ---    0.02711   0.03684   0.04517   0.04697   0.04840
     Eigenvalues ---    0.05090   0.05140   0.05311   0.05878   0.06245
     Eigenvalues ---    0.07159   0.07668   0.07690   0.07807   0.07984
     Eigenvalues ---    0.08035   0.08045   0.10435   0.11663   0.12159
     Eigenvalues ---    0.12756   0.14385   0.15099   0.15945   0.15998
     Eigenvalues ---    0.20081   0.22261   0.23333   0.25000   0.25000
     Eigenvalues ---    0.25000   0.25395   0.26398   0.26647   0.27975
     Eigenvalues ---    0.28087   0.28534   0.29199   0.31432   0.32039
     Eigenvalues ---    0.32044   0.32236   0.32297   0.32383   0.32388
     Eigenvalues ---    0.32409   0.32511   0.32527   0.32589   0.33304
     Eigenvalues ---    0.33395   0.33646   0.35543   0.43884   0.44349
     Eigenvalues ---    0.50277   0.67265   0.90314   0.911891000.00000
     Eigenvalues --- 1000.000001000.000001000.000001000.000001000.00000
     Eigenvalues --- 1000.000001000.000001000.000001000.000001000.00000
     Eigenvalues --- 1000.000001000.000001000.000001000.000001000.00000
     Eigenvalues --- 1000.000001000.000001000.000001000.000001000.00000
     Eigenvalues --- 1000.000001000.000001000.000001000.000001000.00000
     Eigenvalues --- 1000.000001000.000001000.000001000.000001000.00000
     Eigenvalues --- 1000.000001000.000001000.000001000.000001000.00000
     Eigenvalues --- 1000.000001000.000001000.000001000.000001000.00000
     Eigenvalues --- 1000.000001000.000001000.000001000.000001000.00000
     Eigenvalues --- 1000.000001000.000001000.000001000.000001000.00000
     Eigenvalues --- 1000.000001000.000001000.000001000.000001000.00000
     Eigenvalues --- 1000.000001000.000001000.000001000.000001000.00000
     Eigenvalues --- 1000.000001000.000001000.000001000.000001000.00000
     Eigenvalues --- 1000.000001000.000001000.000001000.000001000.00000
     Eigenvalues --- 1000.000001000.000001000.000001000.000001000.00000
     Eigenvalues --- 1000.000001000.000001000.000001000.000001000.00000
     Eigenvalues --- 1000.000001000.000001000.000001000.000001000.00000
     Eigenvalues --- 1000.000001000.000001000.000001000.000001000.00000
     Eigenvalues --- 1000.00000
 RFO step:  Lambda=-2.50376413D-02 EMin= 2.32508807D-03
 Linear search not attempted -- first point.
 Iteration  1 RMS(Cart)=  0.06088103 RMS(Int)=  0.00154988
 Iteration  2 RMS(Cart)=  0.00193185 RMS(Int)=  0.00048775
 Iteration  3 RMS(Cart)=  0.00000117 RMS(Int)=  0.00048775
 Iteration  4 RMS(Cart)=  0.00000000 RMS(Int)=  0.00048775
 Iteration  1 RMS(Cart)=  0.00004660 RMS(Int)=  0.00003847
 Iteration  2 RMS(Cart)=  0.00002615 RMS(Int)=  0.00004271
 Iteration  3 RMS(Cart)=  0.00001587 RMS(Int)=  0.00004807
 Iteration  4 RMS(Cart)=  0.00001017 RMS(Int)=  0.00005193
 Iteration  5 RMS(Cart)=  0.00000681 RMS(Int)=  0.00005451
 Iteration  6 RMS(Cart)=  0.00000475 RMS(Int)=  0.00005623
 Iteration  7 RMS(Cart)=  0.00000346 RMS(Int)=  0.00005739
 Iteration  8 RMS(Cart)=  0.00000263 RMS(Int)=  0.00005820
 Iteration  9 RMS(Cart)=  0.00000207 RMS(Int)=  0.00005879
 Iteration 10 RMS(Cart)=  0.00000167 RMS(Int)=  0.00005922
 Iteration 11 RMS(Cart)=  0.00000138 RMS(Int)=  0.00005955
 Iteration 12 RMS(Cart)=  0.00000115 RMS(Int)=  0.00005981
 Iteration 13 RMS(Cart)=  0.00000097 RMS(Int)=  0.00006002
 Variable       Old X    -DE/DX   Delta X   Delta X   Delta X     New X
                                 (Linear)    (Quad)   (Total)
    R1        2.32390   0.01750   0.00000   0.01867   0.01867   2.34257
    R2        2.32789   0.01559   0.00000   0.01679   0.01679   2.34468
    R3        2.89590  -0.03773   0.00000  -0.11901  -0.11901   2.77689
    R4        2.64550  -0.03192   0.00000  -0.06852  -0.06824   2.57726
    R5        2.81951  -0.02623   0.00000  -0.07785  -0.07771   2.74180
    R6        2.58397  -0.02344   0.00000  -0.04292  -0.04269   2.54128
    R7        2.08364  -0.01080   0.00000  -0.03010  -0.03010   2.05355
    R8        2.81418  -0.01728   0.00000  -0.04337  -0.04345   2.77073
    R9        1.93293  -0.00675   0.00000  -0.01455  -0.01455   1.91838
   R10        2.11895  -0.01292   0.00000  -0.03808  -0.03808   2.08087
   R11        2.92728  -0.01297   0.00000  -0.04375  -0.04375   2.88353
   R12        2.89572  -0.00135   0.00000  -0.00092  -0.00095   2.89477
   R13        2.91126  -0.00424   0.00000  -0.01445  -0.01455   2.89672
   R14        2.09919  -0.00959   0.00000  -0.02738  -0.02738   2.07182
   R15        2.09890  -0.00839   0.00000  -0.02395  -0.02395   2.07495
   R16        2.90463  -0.00141   0.00000  -0.00663  -0.00655   2.89808
   R17        2.10140  -0.01054   0.00000  -0.03021  -0.03021   2.07119
   R18        2.10304  -0.00896   0.00000  -0.02576  -0.02576   2.07728
   R19        2.91789  -0.00936   0.00000  -0.02972  -0.02971   2.88819
   R20        2.10414  -0.01134   0.00000  -0.03264  -0.03264   2.07150
   R21        2.10102  -0.00996   0.00000  -0.02852  -0.02852   2.07250
   R22        2.93552  -0.01112   0.00000  -0.03661  -0.03650   2.89902
   R23        2.10148  -0.01083   0.00000  -0.03104  -0.03104   2.07044
   R24        2.09780  -0.00769   0.00000  -0.02192  -0.02192   2.07588
   R25        2.10764  -0.01106   0.00000  -0.03200  -0.03200   2.07563
   R26        2.76653  -0.00459   0.00000  -0.00878  -0.00927   2.75726
   R27        2.44338  -0.00109   0.00000  -0.00283  -0.00297   2.44041
   R28        2.07932  -0.00589   0.00000  -0.01629  -0.01629   2.06302
    A1        2.15384   0.01119   0.00000   0.04103   0.04063   2.19448
    A2        2.05670  -0.00541   0.00000  -0.01932  -0.01972   2.03698
    A3        2.07232  -0.00573   0.00000  -0.02047  -0.02087   2.05145
    A4        2.01736  -0.00989   0.00000  -0.03141  -0.03148   1.98587
    A5        2.02977  -0.00275   0.00000  -0.00544  -0.00552   2.02425
    A6        2.23606   0.01264   0.00000   0.03686   0.03699   2.27304
    A7        2.20631   0.00646   0.00000   0.02496   0.02526   2.23158
    A8        2.06314  -0.00399   0.00000  -0.01641  -0.01657   2.04657
    A9        2.01357  -0.00247   0.00000  -0.00840  -0.00858   2.00499
   A10        2.24466  -0.00730   0.00000  -0.01171  -0.01237   2.23228
   A11        2.09943  -0.01231   0.00000  -0.07373  -0.07508   2.02435
   A12        1.86243   0.01977   0.00000   0.10756   0.10809   1.97052
   A13        1.84155  -0.00236   0.00000  -0.01545  -0.01487   1.82668
   A14        2.01262  -0.00117   0.00000  -0.01429  -0.01461   1.99802
   A15        1.95816   0.00209   0.00000  -0.01262  -0.01380   1.94436
   A16        1.85144   0.00334   0.00000   0.02962   0.02948   1.88092
   A17        1.85068   0.00160   0.00000   0.03295   0.03241   1.88309
   A18        1.93593  -0.00307   0.00000  -0.01259  -0.01211   1.92382
   A19        1.90855   0.00026   0.00000  -0.00727  -0.00743   1.90113
   A20        1.92211  -0.00066   0.00000  -0.01415  -0.01412   1.90799
   A21        1.92247  -0.00189   0.00000  -0.00540  -0.00539   1.91708
   A22        1.91896  -0.00075   0.00000   0.00370   0.00353   1.92249
   A23        1.90683   0.00342   0.00000   0.02820   0.02828   1.93512
   A24        1.88476  -0.00036   0.00000  -0.00463  -0.00488   1.87989
   A25        1.93954  -0.00074   0.00000   0.00550   0.00542   1.94495
   A26        1.91879  -0.00081   0.00000  -0.00738  -0.00738   1.91141
   A27        1.90545   0.00029   0.00000  -0.00286  -0.00296   1.90249
   A28        1.91619   0.00054   0.00000   0.00665   0.00667   1.92286
   A29        1.89901   0.00193   0.00000   0.01178   0.01181   1.91082
   A30        1.88386  -0.00119   0.00000  -0.01412  -0.01420   1.86966
   A31        1.94424   0.00154   0.00000   0.00814   0.00811   1.95235
   A32        1.90227   0.00013   0.00000   0.00534   0.00546   1.90774
   A33        1.91756   0.00041   0.00000   0.00494   0.00485   1.92241
   A34        1.90650  -0.00143   0.00000  -0.01550  -0.01553   1.89097
   A35        1.91565  -0.00073   0.00000   0.00006   0.00002   1.91567
   A36        1.87627   0.00002   0.00000  -0.00352  -0.00358   1.87270
   A37        1.94558  -0.00413   0.00000  -0.02263  -0.02250   1.92308
   A38        1.90635   0.00260   0.00000   0.01526   0.01518   1.92153
   A39        1.91105   0.00192   0.00000   0.01578   0.01554   1.92659
   A40        1.90694   0.00079   0.00000  -0.00288  -0.00288   1.90406
   A41        1.91245  -0.00012   0.00000  -0.00252  -0.00236   1.91009
   A42        1.88029  -0.00096   0.00000  -0.00232  -0.00249   1.87780
   A43        1.84494   0.00591   0.00000   0.02107   0.02083   1.86577
   A44        1.93255  -0.00475   0.00000  -0.02344  -0.02388   1.90867
   A45        1.99942   0.00005   0.00000   0.01564   0.01651   2.01593
   A46        1.88410   0.00204   0.00000   0.02673   0.02698   1.91108
   A47        1.89051  -0.00416   0.00000  -0.03540  -0.03540   1.85511
   A48        1.90775   0.00118   0.00000  -0.00307  -0.00321   1.90454
   A49        2.10134  -0.00409   0.00000  -0.00239  -0.00351   2.09783
   A50        2.27166  -0.00665   0.00000  -0.03537  -0.03603   2.23563
   A51        1.97700   0.00293   0.00000   0.01599   0.01566   1.99266
   A52        2.02904   0.00371   0.00000   0.02471   0.02444   2.05347
    D1       -2.99898   0.00041   0.00000   0.00715   0.00672  -2.99225
    D2        0.14414   0.00154   0.00000   0.00000  -0.00000   0.14414
    D3        0.16916  -0.00185   0.00000  -0.04367  -0.04387   0.12529
    D4       -2.97091  -0.00073   0.00000  -0.05081  -0.05060  -3.02151
    D5        3.10821   0.00130   0.00000  -0.00052  -0.00076   3.10745
    D6       -0.01304   0.00126   0.00000  -0.00923  -0.01002  -0.02306
    D7       -0.03512   0.00000   0.00000   0.00756   0.00710  -0.02802
    D8        3.12682  -0.00004   0.00000  -0.00114  -0.00216   3.12466
    D9        3.13634   0.00311   0.00000   0.06763   0.06727  -3.07958
   D10        0.11316   0.00283   0.00000   0.00812   0.00798   0.12114
   D11       -0.00352   0.00442   0.00000   0.05951   0.05929   0.05578
   D12       -3.02669   0.00414   0.00000   0.00000   0.00000  -3.02669
   D13        0.24358  -0.00228   0.00000  -0.06424  -0.06442   0.17916
   D14        2.91730   0.00294   0.00000   0.02486   0.02202   2.93932
   D15       -2.91786  -0.00226   0.00000  -0.05584  -0.05543  -2.97329
   D16       -0.24414   0.00296   0.00000   0.03325   0.03100  -0.21313
   D17       -2.82542   0.00001   0.00000   0.03933   0.03990  -2.78552
   D18        1.42101  -0.00189   0.00000   0.02093   0.02143   1.44243
   D19       -0.81801   0.00158   0.00000   0.06327   0.06296  -0.75505
   D20        0.73490   0.00126   0.00000  -0.00561  -0.00707   0.72782
   D21       -1.30186  -0.00064   0.00000  -0.02401  -0.02554  -1.32740
   D22        2.74231   0.00283   0.00000   0.01833   0.01599   2.75830
   D23        2.94829   0.00267   0.00000   0.04511   0.04523   2.99352
   D24       -1.22443   0.00149   0.00000   0.03616   0.03625  -1.18818
   D25        0.85257  -0.00054   0.00000   0.01828   0.01842   0.87098
   D26        0.91713   0.00401   0.00000   0.05232   0.05230   0.96944
   D27        3.02760   0.00283   0.00000   0.04337   0.04332   3.07092
   D28       -1.17859   0.00079   0.00000   0.02548   0.02549  -1.15310
   D29       -1.08488   0.00179   0.00000   0.00330   0.00336  -1.08151
   D30        1.02559   0.00061   0.00000  -0.00565  -0.00562   1.01997
   D31        3.10259  -0.00142   0.00000  -0.02354  -0.02345   3.07913
   D32       -2.89382  -0.00094   0.00000  -0.02060  -0.02015  -2.91398
   D33       -0.85768   0.00241   0.00000   0.01107   0.01114  -0.84654
   D34        1.30939   0.00019   0.00000   0.00000   0.00001   1.30940
   D35       -0.89198  -0.00177   0.00000  -0.02623  -0.02631  -0.91829
   D36        1.14416   0.00158   0.00000   0.00544   0.00498   1.14915
   D37       -2.97195  -0.00065   0.00000  -0.00563  -0.00615  -2.97810
   D38        1.11051   0.00154   0.00000   0.02071   0.02081   1.13132
   D39       -3.13654   0.00488   0.00000   0.05238   0.05210  -3.08444
   D40       -0.96947   0.00266   0.00000   0.04131   0.04097  -0.92850
   D41        0.95666   0.00105   0.00000   0.00000   0.00000   0.95666
   D42        3.08167   0.00069   0.00000   0.00704   0.00700   3.08867
   D43       -1.13802  -0.00107   0.00000  -0.01620  -0.01617  -1.15420
   D44       -1.15572   0.00217   0.00000   0.01977   0.01986  -1.13586
   D45        0.96929   0.00181   0.00000   0.02681   0.02685   0.99614
   D46        3.03278   0.00005   0.00000   0.00357   0.00368   3.03646
   D47        3.06194   0.00100   0.00000   0.00627   0.00625   3.06819
   D48       -1.09622   0.00064   0.00000   0.01331   0.01324  -1.08298
   D49        0.96726  -0.00112   0.00000  -0.00993  -0.00993   0.95733
   D50       -0.92192  -0.00083   0.00000   0.00000   0.00000  -0.92192
   D51        1.18295  -0.00156   0.00000  -0.01065  -0.01063   1.17232
   D52       -3.04855  -0.00122   0.00000  -0.00891  -0.00890  -3.05746
   D53       -3.04846   0.00031   0.00000   0.00115   0.00115  -3.04730
   D54       -0.94358  -0.00042   0.00000  -0.00950  -0.00948  -0.95306
   D55        1.10810  -0.00008   0.00000  -0.00777  -0.00776   1.10034
   D56        1.17657   0.00031   0.00000   0.00746   0.00748   1.18406
   D57       -3.00174  -0.00042   0.00000  -0.00318  -0.00315  -3.00488
   D58       -0.95005  -0.00008   0.00000  -0.00145  -0.00142  -0.95148
   D59        0.98941  -0.00139   0.00000  -0.00970  -0.00958   0.97984
   D60        3.09840  -0.00131   0.00000  -0.01764  -0.01765   3.08074
   D61       -1.12963   0.00017   0.00000  -0.00239  -0.00222  -1.13185
   D62       -1.11298  -0.00158   0.00000  -0.01131  -0.01122  -1.12420
   D63        0.99600  -0.00150   0.00000  -0.01926  -0.01930   0.97670
   D64        3.05116  -0.00003   0.00000  -0.00400  -0.00386   3.04730
   D65        3.11715  -0.00034   0.00000   0.00203   0.00207   3.11922
   D66       -1.05705  -0.00026   0.00000  -0.00592  -0.00601  -1.06306
   D67        0.99811   0.00122   0.00000   0.00934   0.00943   1.00754
   D68       -1.05757  -0.00008   0.00000  -0.00563  -0.00562  -1.06318
   D69       -3.12624   0.00135   0.00000  -0.00264  -0.00281  -3.12905
   D70        1.09307   0.00110   0.00000   0.00562   0.00606   1.09913
   D71        3.11698  -0.00122   0.00000  -0.00829  -0.00837   3.10862
   D72        1.04831   0.00021   0.00000  -0.00529  -0.00556   1.04275
   D73       -1.01557  -0.00004   0.00000   0.00296   0.00331  -1.01226
   D74        1.06066  -0.00046   0.00000  -0.00232  -0.00232   1.05834
   D75       -1.00802   0.00097   0.00000   0.00067   0.00049  -1.00752
   D76       -3.07189   0.00073   0.00000   0.00893   0.00936  -3.06253
   D77       -1.17218   0.00794   0.00000   0.00000   0.00001  -1.17217
   D78        3.05678   0.00334   0.00000  -0.01171  -0.01151   3.04528
   D79        1.00802   0.00261   0.00000  -0.02193  -0.02207   0.98594
   D80        0.47783  -0.00751   0.00000  -0.05779  -0.05683   0.42100
   D81       -2.78507  -0.00729   0.00000   0.00254   0.00358  -2.78150
         Item               Value     Threshold  Converged?
 Maximum Force            0.037728     0.000450     NO 
 RMS     Force            0.007008     0.000300     NO 
 Maximum Displacement     0.270967     0.001800     NO 
 RMS     Displacement     0.061367     0.001200     NO 
 Predicted change in Energy=-1.410293D-02
 GradGradGradGradGradGradGradGradGradGradGradGradGradGradGradGradGradGrad

                          Input orientation:                          
 ---------------------------------------------------------------------
 Center     Atomic      Atomic             Coordinates (Angstroms)
 Number     Number       Type             X           Y           Z
 ---------------------------------------------------------------------
      1          8           0       -3.513414   -1.322260   -0.488896
      2          7           0       -3.095063   -0.165047   -0.338776
      3          8           0       -3.787350    0.864373   -0.361163
      4          6           0       -1.656564   -0.010954   -0.081264
      5          6           0       -1.291190    1.258942    0.256204
      6          7           0       -0.065651    1.705897    0.582920
      7          6           0        1.212950    0.998633    0.461600
      8          1           0        1.889097    1.524509    1.153560
      9          6           0        1.836226    1.053443   -0.930120
     10          6           0        3.250872    0.466740   -0.864815
     11          6           0        3.244596   -0.946576   -0.269476
     12          6           0        2.523781   -0.993565    1.077412
     13          6           0        1.094929   -0.454353    0.932193
     14          1           0        0.592000   -0.481219    1.908293
     15          7           0        0.407751   -1.357805    0.015416
     16          6           0       -0.854563   -1.212596   -0.215279
     17          1           0       -2.073605    2.012756    0.278227
     18          1           0        0.043201    2.714290    0.625969
     19          1           0        1.218989    0.474377   -1.627045
     20          1           0        1.859269    2.091409   -1.287522
     21          1           0        3.687708    0.451533   -1.869910
     22          1           0        3.881920    1.121778   -0.247519
     23          1           0        2.732493   -1.627914   -0.958795
     24          1           0        4.272083   -1.311973   -0.153070
     25          1           0        2.482102   -2.024382    1.446304
     26          1           0        3.066098   -0.395933    1.822698
     27          1           0       -1.399675   -2.072113   -0.610125
 ---------------------------------------------------------------------
                    Distance matrix (angstroms):
                    1          2          3          4          5
     1  O    0.000000
     2  N    1.239635   0.000000
     3  O    2.207424   1.240753   0.000000
     4  C    2.309454   1.469469   2.320516   0.000000
     5  C    3.486554   2.373964   2.601469   1.363825   0.000000
     6  N    4.712281   3.677947   3.930713   2.433048   1.344789
     7  C    5.350561   4.533622   5.069317   3.089996   2.525998
     8  H    6.323676   5.470239   5.912040   4.056371   3.315117
     9  C    5.870033   5.113904   5.655446   3.748743   3.351167
    10  C    7.006954   6.398966   7.067415   4.992502   4.744955
    11  C    6.772000   6.388026   7.261971   4.993213   5.070898
    12  C    6.245725   5.853498   6.734375   4.447846   4.505793
    13  C    4.899957   4.388062   5.220005   2.965537   3.014284
    14  H    4.827866   4.329401   5.112705   3.039000   3.050240
    15  N    3.953622   3.717234   4.762222   2.466728   3.129176
    16  C    2.675141   2.476378   3.596710   1.450899   2.553711
    17  H    3.712661   2.483323   2.159751   2.097274   1.086689
    18  H    5.494194   4.366923   4.366893   3.288820   2.008822
    19  H    5.188345   4.547477   5.178609   3.300574   3.234682
    20  H    6.415345   5.526040   5.852185   4.270370   3.605756
    21  H    7.543851   6.980725   7.636966   5.654589   5.473727
    22  H    7.792467   7.095247   7.674430   5.655574   5.199386
    23  H    6.271011   6.040267   7.005499   4.759038   5.099038
    24  H    7.792743   7.458201   8.350703   6.070144   6.142240
    25  H    6.339099   6.143973   7.135676   4.849320   5.141428
    26  H    7.035021   6.533390   7.302560   5.106546   4.917162
    27  H    2.246079   2.566101   3.792879   2.143377   3.443577
                    6          7          8          9         10
     6  N    0.000000
     7  C    1.466207   0.000000
     8  H    2.044400   1.101149   0.000000
     9  C    2.516371   1.525897   2.136918   0.000000
    10  C    3.825019   2.489059   2.654646   1.532877   0.000000
    11  C    4.326654   2.906182   3.157320   2.533779   1.533600
    12  C    3.773165   2.462996   2.597944   2.948416   2.536414
    13  C    2.477018   1.531847   2.143735   2.508222   2.953937
    14  H    2.640567   2.160662   2.505000   3.458305   3.957064
    15  N    3.151577   2.529867   3.434747   2.957820   3.491005
    16  C    3.126837   3.101985   4.110126   3.589746   4.482931
    17  H    2.053991   3.444346   4.087493   4.203232   5.660987
    18  H    1.015164   2.082981   2.258598   2.897372   4.190832
    19  H    2.837408   2.153443   3.046897   1.096358   2.170162
    20  H    2.711547   2.161322   2.506222   1.098017   2.180549
    21  H    4.655910   3.443788   3.677995   2.161824   1.096026
    22  H    4.076044   2.764310   2.469121   2.157655   1.099249
    23  H    4.617445   3.350415   3.887304   2.827330   2.159890
    24  H    5.335274   3.882655   3.928298   3.483159   2.171006
    25  H    4.599071   3.423303   3.609983   3.941770   3.483958
    26  H    3.970213   2.689156   2.349718   3.345338   2.828616
    27  H    4.180471   4.171796   5.182885   4.510272   5.304548
                   11         12         13         14         15
    11  C    0.000000
    12  C    1.528362   0.000000
    13  C    2.511446   1.534097   0.000000
    14  H    3.463452   2.164402   1.098376   0.000000
    15  N    2.880619   2.395431   1.459081   2.094118   0.000000
    16  C    4.108140   3.623842   2.385821   2.671519   1.291411
    17  H    6.110720   5.550911   4.068649   3.997809   4.193671
    18  H    4.944967   4.483889   3.352642   3.486662   4.133719
    19  H    2.822266   3.342367   2.725367   3.715493   2.590884
    20  H    3.490688   3.943546   3.462984   4.293904   3.962528
    21  H    2.170817   3.482777   3.923635   4.972750   4.193600
    22  H    2.164429   2.841594   3.412217   4.247434   4.276367
    23  H    1.096190   2.142918   2.763096   3.757235   2.535050
    24  H    1.096719   2.161488   3.465200   4.299114   3.868275
    25  H    2.164940   1.095629   2.157208   2.483399   2.606664
    26  H    2.170774   1.098510   2.163775   2.477047   3.355335
    27  H    4.790838   4.405060   3.349468   3.583315   2.041648
                   16         17         18         19         20
    16  C    0.000000
    17  H    3.483175   0.000000
    18  H    4.115108   2.256977   0.000000
    19  H    3.023009   4.103394   3.387589   0.000000
    20  H    4.408065   4.233822   2.710632   1.772011   0.000000
    21  H    5.112666   6.343866   4.963054   2.480741   2.524195
    22  H    5.280588   6.044711   4.246744   3.068129   2.472430
    23  H    3.686771   6.154940   5.347757   2.675235   3.834573
    24  H    5.127987   7.176879   5.890767   3.832105   4.323385
    25  H    3.814864   6.198173   5.392235   4.157490   4.980107
    26  H    4.493537   5.882493   4.499284   4.008737   4.161343
    27  H    1.091705   4.234325   5.149707   3.791588   5.330525
                   21         22         23         24         25
    21  H    0.000000
    22  H    1.766097   0.000000
    23  H    2.463060   3.063968   0.000000
    24  H    2.529621   2.466635   1.766167   0.000000
    25  H    4.310558   3.837557   2.450385   2.503909   0.000000
    26  H    3.839264   2.693475   3.060355   2.489415   1.770471
    27  H    5.816984   6.182852   4.170575   5.740692   4.393105
                   26         27
    26  H    0.000000
    27  H    5.354562   0.000000
 Symmetry turned off by external request.
 Stoichiometry    C9H13N3O2
 Framework group  C1[X(C9H13N3O2)]
 Deg. of freedom    75
 Full point group                 C1      NOp   1
 Rotational constants (GHZ):           1.6387658           0.4240710           0.3764128
 Standard basis: 6-31G(d) (6D, 7F)
   236 basis functions,   444 primitive gaussians,   236 cartesian basis functions
    52 alpha electrons       52 beta electrons
       nuclear repulsion energy       932.0494645605 Hartrees.
 NAtoms=   27 NActive=   27 NUniq=   27 SFac= 1.00D+00 NAtFMM=   60 NAOKFM=F Big=F
 Integral buffers will be    131072 words long.
 Raffenetti 1 integral format.
 Two-electron integral symmetry is turned off.
 One-electron integrals computed using PRISM.
 NBasis=   236 RedAO= T EigKep=  1.00D-03  NBF=   236
 NBsUse=   236 1.00D-06 EigRej= -1.00D+00 NBFU=   236
 Initial guess from the checkpoint file:  "/home/alexey/tmp/Gau-1507752.chk"
 B after Tr=     0.057955    0.003396    0.010129
         Rot=    0.999996   -0.001287   -0.002424    0.000106 Ang=  -0.31 deg.
 ExpMin= 1.61D-01 ExpMax= 5.48D+03 ExpMxC= 8.25D+02 IAcc=3 IRadAn=         5 AccDes= 0.00D+00
 Harris functional with IExCor=  205 and IRadAn=       5 diagonalized for initial guess.
 HarFok:  IExCor=  205 AccDes= 0.00D+00 IRadAn=         5 IDoV= 1 UseB2=F ITyADJ=14
 ICtDFT=  3500011 ScaDFX=  1.000000  1.000000  1.000000  1.000000
 FoFCou: FMM=F IPFlag=           0 FMFlag=      100000 FMFlg1=           0
         NFxFlg=           0 DoJE=T BraDBF=F KetDBF=T FulRan=T
         wScrn=  0.000000 ICntrl=       500 IOpCl=  0 I1Cent=   200000004 NGrid=           0
         NMat0=    1 NMatS0=      1 NMatT0=    0 NMatD0=    1 NMtDS0=    0 NMtDT0=    0
 Symmetry not used in FoFCou.
 Keep R1 ints in memory in canonical form, NReq=397720213.
 Requested convergence on RMS density matrix=1.00D-08 within 128 cycles.
 Requested convergence on MAX density matrix=1.00D-06.
 Requested convergence on             energy=1.00D-06.
 No special actions if energy rises.
 SCF Done:  E(RHF) =  -661.294483412     A.U. after   15 cycles
            NFock= 15  Conv=0.49D-08     -V/T= 2.0024
 ExpMin= 1.61D-01 ExpMax= 5.48D+03 ExpMxC= 8.25D+02 IAcc=3 IRadAn=         5 AccDes= 0.00D+00
 HarFok:  IExCor=  205 AccDes= 0.00D+00 IRadAn=         5 IDoV=-2 UseB2=F ITyADJ=14
 ICtDFT= 12500011 ScaDFX=  1.000000  1.000000  1.000000  1.000000
 Range of M.O.s used for correlation:    15   236
 NBasis=   236 NAE=    52 NBE=    52 NFC=    14 NFV=     0
 NROrb=    222 NOA=    38 NOB=    38 NVA=   184 NVB=   184
 Fully direct method using O(ONN) memory.
 JobTyp=1 Pass  1:  I=  15 to  52 NPSUse=  4 ParTrn=T ParDer=T DoDerP=T.
 Spin components of T(2) and E(2):
     alpha-alpha T2 =       0.9147217647D-01 E2=     -0.2726008468D+00
     alpha-beta  T2 =       0.4915630498D+00 E2=     -0.1488236897D+01
     beta-beta   T2 =       0.9147217647D-01 E2=     -0.2726008468D+00
 ANorm=    0.1294027590D+01
 E2 =    -0.2033438591D+01 EUMP2 =    -0.66332792200240D+03
          IDoAtm=111111111111111111111111111
          Differentiating once with respect to electric field.
                with respect to dipole field.
          Differentiating once with respect to nuclear coordinates.
 Keep R1 ints in memory in canonical form, NReq=397723379.
          There are     1 degrees of freedom in the 1st order CPHF.  IDoFFX=0 NUNeed=     1.
 LinEq1:  Iter=  0 NonCon=     1 RMS=4.63D-03 Max=1.11D-01 NDo=     1
 AX will form     1 AO Fock derivatives at one time.
 LinEq1:  Iter=  1 NonCon=     1 RMS=1.56D-03 Max=3.41D-02 NDo=     1
 LinEq1:  Iter=  2 NonCon=     1 RMS=6.56D-04 Max=1.83D-02 NDo=     1
 LinEq1:  Iter=  3 NonCon=     1 RMS=2.86D-04 Max=8.77D-03 NDo=     1
 LinEq1:  Iter=  4 NonCon=     1 RMS=9.11D-05 Max=2.32D-03 NDo=     1
 LinEq1:  Iter=  5 NonCon=     1 RMS=3.78D-05 Max=1.69D-03 NDo=     1
[...]
                   16         17         18         19         20
    16  C    0.000000
    17  H    3.470159   0.000000
    18  H    4.118073   2.228014   0.000000
    19  H    3.007601   4.257238   3.561975   0.000000
    20  H    4.408035   4.425185   2.965010   1.769146   0.000000
    21  H    5.104746   6.482694   5.140057   2.500569   2.521952
    22  H    5.267576   6.094238   4.348108   3.070698   2.464357
    23  H    3.677252   6.200170   5.429935   2.700408   3.842468
    24  H    5.125119   7.184217   5.943346   3.847245   4.318910
    25  H    3.808910   6.080442   5.329787   4.167561   4.985676
    26  H    4.501223   5.784203   4.445062   4.029563   4.180136
    27  H    1.089506   4.248745   5.160573   3.751276   5.308993
                   21         22         23         24         25
    21  H    0.000000
    22  H    1.758903   0.000000
    23  H    2.470476   3.063194   0.000000
    24  H    2.517368   2.461440   1.764416   0.000000
    25  H    4.312001   3.839515   2.443650   2.519374   0.000000
    26  H    3.845726   2.703119   3.060334   2.495481   1.769078
    27  H    5.777231   6.147121   4.129090   5.711447   4.375471
                   26         27
    26  H    0.000000
    27  H    5.350546   0.000000
 Symmetry turned off by external request.
 Stoichiometry    C9H13N3O2
 Framework group  C1[X(C9H13N3O2)]
 Deg. of freedom    75
 Full point group                 C1      NOp   1
 Rotational constants (GHZ):           1.6603590           0.4207310           0.3732813

 **********************************************************************

            Population analysis using the SCF Density.

 **********************************************************************

 Alpha  occ. eigenvalues --  -20.59351 -20.59039 -15.84793 -15.64182 -15.55768
 Alpha  occ. eigenvalues --  -11.35075 -11.29574 -11.29557 -11.28733 -11.27088
 Alpha  occ. eigenvalues --  -11.23724 -11.23186 -11.22582 -11.22050  -1.57212
 Alpha  occ. eigenvalues --   -1.36805  -1.30948  -1.22815  -1.14705  -1.09792
 Alpha  occ. eigenvalues --   -1.02756  -1.01261  -0.94495  -0.89698  -0.85463
 Alpha  occ. eigenvalues --   -0.82478  -0.78696  -0.77387  -0.75216  -0.72079
 Alpha  occ. eigenvalues --   -0.69851  -0.69432  -0.67750  -0.64685  -0.63940
 Alpha  occ. eigenvalues --   -0.62219  -0.60285  -0.57774  -0.56719  -0.55132
 Alpha  occ. eigenvalues --   -0.54638  -0.50605  -0.50248  -0.48828  -0.48099
 Alpha  occ. eigenvalues --   -0.47432  -0.46251  -0.45793  -0.43752  -0.42050
 Alpha  occ. eigenvalues --   -0.39155  -0.33615
 Alpha virt. eigenvalues --    0.07366   0.11346   0.17195   0.21884   0.24407
 Alpha virt. eigenvalues --    0.26290   0.26766   0.28572   0.29303   0.29393
 Alpha virt. eigenvalues --    0.30913   0.31777   0.32143   0.32839   0.33988
 Alpha virt. eigenvalues --    0.34385   0.36098   0.37498   0.38681   0.40434
 Alpha virt. eigenvalues --    0.41179   0.42173   0.44598   0.46050   0.46663
 Alpha virt. eigenvalues --    0.47310   0.49064   0.54118   0.57898   0.60035
 Alpha virt. eigenvalues --    0.63784   0.69554   0.69899   0.72929   0.74222
 Alpha virt. eigenvalues --    0.74786   0.75695   0.76527   0.78483   0.79764
 Alpha virt. eigenvalues --    0.81826   0.83440   0.85545   0.85930   0.88730
 Alpha virt. eigenvalues --    0.89273   0.91492   0.92018   0.92976   0.94471
 Alpha virt. eigenvalues --    0.95406   0.98190   1.00293   1.02098   1.02362
 Alpha virt. eigenvalues --    1.03322   1.05939   1.07124   1.08436   1.09272
 Alpha virt. eigenvalues --    1.10523   1.11603   1.12004   1.12808   1.14025
 Alpha virt. eigenvalues --    1.14169   1.15048   1.15505   1.17122   1.18578
 Alpha virt. eigenvalues --    1.18945   1.21612   1.22561   1.23066   1.23981
 Alpha virt. eigenvalues --    1.25539   1.26744   1.27458   1.27858   1.29453
 Alpha virt. eigenvalues --    1.30149   1.33642   1.35179   1.37221   1.40113
 Alpha virt. eigenvalues --    1.43121   1.48353   1.50772   1.51189   1.54648
 Alpha virt. eigenvalues --    1.57042   1.58892   1.60625   1.62613   1.65371
 Alpha virt. eigenvalues --    1.67405   1.69020   1.71688   1.76132   1.77584
 Alpha virt. eigenvalues --    1.81161   1.83444   1.87248   1.90950   1.93209
 Alpha virt. eigenvalues --    1.94672   1.95714   1.99602   2.01625   2.02962
 Alpha virt. eigenvalues --    2.04831   2.05777   2.08579   2.09974   2.12630
 Alpha virt. eigenvalues --    2.12657   2.16056   2.17892   2.20107   2.21683
 Alpha virt. eigenvalues --    2.23175   2.23999   2.25294   2.28419   2.29026
 Alpha virt. eigenvalues --    2.31709   2.33434   2.35295   2.36677   2.39125
 Alpha virt. eigenvalues --    2.39615   2.42731   2.44617   2.45655   2.46282
 Alpha virt. eigenvalues --    2.49728   2.51977   2.54090   2.55428   2.60166
 Alpha virt. eigenvalues --    2.62476   2.66127   2.66954   2.70099   2.70483
 Alpha virt. eigenvalues --    2.71698   2.72757   2.77008   2.77867   2.83485
 Alpha virt. eigenvalues --    2.88013   2.89086   2.92489   2.93163   2.96009
 Alpha virt. eigenvalues --    2.99494   3.01325   3.04187   3.06154   3.08201
 Alpha virt. eigenvalues --    3.09609   3.15236   3.21099   3.24447   3.27488
 Alpha virt. eigenvalues --    3.32546   3.36686   3.39018   3.51631   3.66803
 Alpha virt. eigenvalues --    4.12944   4.26553   4.34186   4.38508   4.46112
 Alpha virt. eigenvalues --    4.55507   4.61409   4.62119   4.73824   4.79119
 Alpha virt. eigenvalues --    4.99763   5.00900   5.06744   5.10298
          Condensed to atoms (all electrons):
               1          2          3          4          5          6
     1  O    8.317405   0.303828  -0.083013  -0.081888   0.004145  -0.000018
     2  N    0.303828   5.732939   0.299813   0.256230  -0.053199   0.001085
     3  O   -0.083013   0.299813   8.350367  -0.090902   0.002810   0.000744
     4  C   -0.081888   0.256230  -0.090902   5.222665   0.555827  -0.049967
     5  C    0.004145  -0.053199   0.002810   0.555827   4.723456   0.322560
     6  N   -0.000018   0.001085   0.000744  -0.049967   0.322560   7.187944
     7  C    0.000003  -0.000158  -0.000000   0.004032  -0.031181   0.168704
     8  H   -0.000000   0.000002  -0.000000  -0.000193   0.002694  -0.049093
     9  C   -0.000000  -0.000005   0.000000   0.000792   0.000965  -0.060781
    10  C   -0.000000   0.000000   0.000000  -0.000032  -0.000063   0.003689
    11  C   -0.000000  -0.000000  -0.000000  -0.000037   0.000027  -0.000206
    12  C   -0.000000   0.000002  -0.000000  -0.000159  -0.000186   0.004245
    13  C   -0.000017   0.000006  -0.000001  -0.009550  -0.001403  -0.051963
    14  H   -0.000003  -0.000066   0.000000   0.002435   0.006239  -0.007081
    15  N    0.000463   0.002426  -0.000018  -0.062642  -0.008478   0.002143
    16  C   -0.000653  -0.025716   0.002588   0.330672  -0.051853  -0.000125
    17  H    0.000240  -0.007140   0.017483  -0.023070   0.374393  -0.033015
    18  H    0.000001  -0.000052   0.000012   0.001584  -0.031288   0.338424
    19  H    0.000000  -0.000003  -0.000000  -0.001181   0.001165  -0.000665
    20  H    0.000000  -0.000000   0.000000  -0.000114   0.000163  -0.000211
    21  H   -0.000000   0.000000  -0.000000   0.000001   0.000001  -0.000076
    22  H   -0.000000   0.000000  -0.000000  -0.000000  -0.000003  -0.000115
    23  H    0.000000  -0.000000   0.000000   0.000042   0.000001  -0.000032
    24  H    0.000000   0.000000   0.000000   0.000000  -0.000000   0.000006
    25  H    0.000000  -0.000000   0.000000   0.000030  -0.000002  -0.000097
    26  H    0.000000  -0.000000   0.000000   0.000004   0.000000  -0.000065
    27  H    0.007481  -0.000985   0.000038  -0.062618   0.002463  -0.000025
               7          8          9         10         11         12
     1  O    0.000003  -0.000000  -0.000000  -0.000000  -0.000000  -0.000000
     2  N   -0.000158   0.000002  -0.000005   0.000000  -0.000000   0.000002
     3  O   -0.000000  -0.000000   0.000000   0.000000  -0.000000  -0.000000
     4  C    0.004032  -0.000193   0.000792  -0.000032  -0.000037  -0.000159
     5  C   -0.031181   0.002694   0.000965  -0.000063   0.000027  -0.000186
     6  N    0.168704  -0.049093  -0.060781   0.003689  -0.000206   0.004245
     7  C    5.032906   0.416387   0.350453  -0.054861  -0.009158  -0.062273
     8  H    0.416387   0.534573  -0.052224   0.000334  -0.000203  -0.002484
     9  C    0.350453  -0.052224   5.152197   0.326016  -0.050827  -0.004949
    10  C   -0.054861   0.000334   0.326016   5.119619   0.336778  -0.061297
    11  C   -0.009158  -0.000203  -0.050827   0.336778   5.121512   0.336276
    12  C   -0.062273  -0.002484  -0.004949  -0.061297   0.336276   5.122482
    13  C    0.332152  -0.036606  -0.061800  -0.000154  -0.050658   0.372539
    14  H   -0.048171  -0.000527   0.004383  -0.000391   0.004208  -0.036556
    15  N   -0.060127   0.003803  -0.013359   0.001535  -0.013563  -0.084890
    16  C    0.000253  -0.000182  -0.000494  -0.000072   0.000058   0.002397
    17  H    0.001561  -0.000070  -0.000046   0.000001   0.000000   0.000001
    18  H   -0.021451  -0.004636   0.001606  -0.000084   0.000003  -0.000122
    19  H   -0.037137   0.004304   0.391324  -0.032667  -0.002140   0.000626
    20  H   -0.041781  -0.001943   0.399140  -0.034954   0.003894  -0.000427
    21  H    0.004632  -0.000070  -0.036515   0.402515  -0.034852   0.004351
    22  H   -0.004982   0.003533  -0.046793   0.397491  -0.045234  -0.001040
    23  H    0.000657   0.000036  -0.001993  -0.039087   0.399158  -0.038176
    24  H   -0.000131  -0.000102   0.004377  -0.038348   0.402358  -0.038448
    25  H    0.005257  -0.000031  -0.000434   0.004197  -0.033175   0.397698
    26  H   -0.003892   0.001653   0.000988  -0.002275  -0.041466   0.395942
    27  H   -0.000323   0.000007  -0.000047   0.000004   0.000011  -0.000036
              13         14         15         16         17         18
     1  O   -0.000017  -0.000003   0.000463  -0.000653   0.000240   0.000001
     2  N    0.000006  -0.000066   0.002426  -0.025716  -0.007140  -0.000052
     3  O   -0.000001   0.000000  -0.000018   0.002588   0.017483   0.000012
     4  C   -0.009550   0.002435  -0.062642   0.330672  -0.023070   0.001584
     5  C   -0.001403   0.006239  -0.008478  -0.051853   0.374393  -0.031288
     6  N   -0.051963  -0.007081   0.002143  -0.000125  -0.033015   0.338424
     7  C    0.332152  -0.048171  -0.060127   0.000253   0.001561  -0.021451
     8  H   -0.036606  -0.000527   0.003803  -0.000182  -0.000070  -0.004636
     9  C   -0.061800   0.004383  -0.013359  -0.000494  -0.000046   0.001606
    10  C   -0.000154  -0.000391   0.001535  -0.000072   0.000001  -0.000084
    11  C   -0.050658   0.004208  -0.013563   0.000058   0.000000   0.000003
    12  C    0.372539  -0.036556  -0.084890   0.002397   0.000001  -0.000122
    13  C    5.036088   0.406462   0.251747  -0.068181  -0.000016   0.002937
    14  H    0.406462   0.529187  -0.037405  -0.007242   0.000028  -0.000093
    15  N    0.251747  -0.037405   6.980185   0.578760  -0.000087  -0.000121
    16  C   -0.068181  -0.007242   0.578760   4.718338   0.001661  -0.000149
    17  H   -0.000016   0.000028  -0.000087   0.001661   0.374156  -0.002802
    18  H    0.002937  -0.000093  -0.000121  -0.000149  -0.002802   0.311277
    19  H   -0.007597   0.000122   0.007856   0.002357   0.000008  -0.000139
    20  H    0.004380  -0.000069   0.000134  -0.000033  -0.000000   0.000558
    21  H   -0.000434   0.000010  -0.000043   0.000004  -0.000000   0.000002
    22  H    0.000029  -0.000052   0.000026  -0.000001   0.000000   0.000000
    23  H   -0.007885   0.000003   0.008904   0.000168   0.000000   0.000000
    24  H    0.004710  -0.000059   0.000112   0.000006   0.000000  -0.000000
    25  H   -0.035367  -0.002872   0.000993  -0.000018  -0.000000   0.000003
    26  H   -0.047619  -0.000982   0.005040  -0.000038   0.000000   0.000000
    27  H    0.004598  -0.000140  -0.039677   0.401794  -0.000078   0.000001
              19         20         21         22         23         24
     1  O    0.000000   0.000000  -0.000000  -0.000000   0.000000   0.000000
     2  N   -0.000003  -0.000000   0.000000   0.000000  -0.000000   0.000000
     3  O   -0.000000   0.000000  -0.000000  -0.000000   0.000000   0.000000
     4  C   -0.001181  -0.000114   0.000001  -0.000000   0.000042   0.000000
     5  C    0.001165   0.000163   0.000001  -0.000003   0.000001  -0.000000
     6  N   -0.000665  -0.000211  -0.000076  -0.000115  -0.000032   0.000006
     7  C   -0.037137  -0.041781   0.004632  -0.004982   0.000657  -0.000131
     8  H    0.004304  -0.001943  -0.000070   0.003533   0.000036  -0.000102
     9  C    0.391324   0.399140  -0.036515  -0.046793  -0.001993   0.004377
    10  C   -0.032667  -0.034954   0.402515   0.397491  -0.039087  -0.038348
    11  C   -0.002140   0.003894  -0.034852  -0.045234   0.399158   0.402358
    12  C    0.000626  -0.000427   0.004351  -0.001040  -0.038176  -0.038448
    13  C   -0.007597   0.004380  -0.000434   0.000029  -0.007885   0.004710
    14  H    0.000122  -0.000069   0.000010  -0.000052   0.000003  -0.000059
    15  N    0.007856   0.000134  -0.000043   0.000026   0.008904   0.000112
    16  C    0.002357  -0.000033   0.000004  -0.000001   0.000168   0.000006
    17  H    0.000008  -0.000000  -0.000000   0.000000   0.000000   0.000000
    18  H   -0.000139   0.000558   0.000002   0.000000   0.000000  -0.000000
    19  H    0.505105  -0.024430  -0.002750   0.003964   0.001540  -0.000069
    20  H   -0.024430   0.537327  -0.002689  -0.002933  -0.000045  -0.000082
    21  H   -0.002750  -0.002689   0.523690  -0.027369  -0.002893  -0.002253
    22  H    0.003964  -0.002933  -0.027369   0.571277   0.004128  -0.003612
    23  H    0.001540  -0.000045  -0.002893   0.004128   0.499021  -0.025394
    24  H   -0.000069  -0.000082  -0.002253  -0.003612  -0.025394   0.537540
    25  H   -0.000030   0.000012  -0.000086  -0.000081  -0.002271  -0.002324
    26  H    0.000021  -0.000029  -0.000080   0.002374   0.004088  -0.002979
    27  H    0.000080   0.000000  -0.000000   0.000000  -0.000033  -0.000000
              25         26         27
     1  O    0.000000   0.000000   0.007481
     2  N   -0.000000  -0.000000  -0.000985
     3  O    0.000000   0.000000   0.000038
     4  C    0.000030   0.000004  -0.062618
     5  C   -0.000002   0.000000   0.002463
     6  N   -0.000097  -0.000065  -0.000025
     7  C    0.005257  -0.003892  -0.000323
     8  H   -0.000031   0.001653   0.000007
     9  C   -0.000434   0.000988  -0.000047
    10  C    0.004197  -0.002275   0.000004
    11  C   -0.033175  -0.041466   0.000011
    12  C    0.397698   0.395942  -0.000036
    13  C   -0.035367  -0.047619   0.004598
    14  H   -0.002872  -0.000982  -0.000140
    15  N    0.000993   0.005040  -0.039677
    16  C   -0.000018  -0.000038   0.401794
    17  H   -0.000000   0.000000  -0.000078
    18  H    0.000003   0.000000   0.000001
    19  H   -0.000030   0.000021   0.000080
    20  H    0.000012  -0.000029   0.000000
    21  H   -0.000086  -0.000080  -0.000000
    22  H   -0.000081   0.002374   0.000000
    23  H   -0.002271   0.004088  -0.000033
    24  H   -0.002324  -0.002979  -0.000000
    25  H    0.505268  -0.024045  -0.000019
    26  H   -0.024045   0.564653   0.000001
    27  H   -0.000019   0.000001   0.430060
 Mulliken charges:
               1
     1  O   -0.467972
     2  N    0.490994
     3  O   -0.499921
     4  C    0.008040
     5  C    0.180750
     6  N   -0.776013
     7  C    0.058627
     8  H    0.181039
     9  C   -0.301974
    10  C   -0.327892
    11  C   -0.322766
    12  C   -0.305516
    13  C   -0.036396
    14  H    0.188631
    15  N   -0.523715
    16  C    0.115704
    17  H    0.296793
    18  H    0.404529
    19  H    0.190337
    20  H    0.164131
    21  H    0.174906
    22  H    0.149392
    23  H    0.200061
    24  H    0.164693
    25  H    0.187393
    26  H    0.148707
    27  H    0.257441
 Sum of Mulliken charges =  -0.00000
 Mulliken charges with hydrogens summed into heavy atoms:
               1
     1  O   -0.467972
     2  N    0.490994
     3  O   -0.499921
     4  C    0.008040
     5  C    0.477542
     6  N   -0.371484
     7  C    0.239666
     9  C    0.052495
    10  C   -0.003594
    11  C    0.041987
    12  C    0.030584
    13  C    0.152235
    15  N   -0.523715
    16  C    0.373145
 Electronic spatial extent (au):  <R**2>=           3000.9390
 Charge=              0.0000 electrons
 Dipole moment (field-independent basis, Debye):
    X=              5.2877    Y=              4.6163    Z=              1.8903  Tot=              7.2694
 Quadrupole moment (field-independent basis, Debye-Ang):
   XX=           -105.6049   YY=            -79.5276   ZZ=            -81.4124
   XY=             -0.9764   XZ=             -2.0146   YZ=              2.9322
 Traceless Quadrupole moment (field-independent basis, Debye-Ang):
   XX=            -16.7566   YY=              9.3207   ZZ=              7.4359
   XY=             -0.9764   XZ=             -2.0146   YZ=              2.9322
 Octapole moment (field-independent basis, Debye-Ang**2):
  XXX=             88.6786  YYY=             31.5186  ZZZ=              4.5132  XYY=             -5.2855
  XXY=              7.3176  XXZ=             13.1936  XZZ=             -9.7006  YZZ=              0.5361
  YYZ=             11.6418  XYZ=             -1.3828
 Hexadecapole moment (field-independent basis, Debye-Ang**3):
 XXXX=          -3352.9704 YYYY=           -608.5430 ZZZZ=           -309.3583 XXXY=            -10.1307
 XXXZ=            -66.7062 YYYX=              1.8786 YYYZ=             31.4079 ZZZX=            -25.2211
 ZZZY=              8.5900 XXYY=           -626.6101 XXZZ=           -523.4270 YYZZ=           -157.6667
 XXYZ=              3.2766 YYXZ=             -9.3477 ZZXY=              5.8943
 N-N= 9.310563746310D+02 E-N=-3.408833179552D+03  KE= 6.596234353489D+02
 Unable to Open any file for archive entry.
 1\1\GINC-LOTUS\FOpt\RMP2-FC\6-31G(d)\C9H13N3O2\ALEXEY\02-Jul-2023\0\\#
 MP2/6-31G* SCF=Tight Opt=(ModRedun, MaxCycle=20 ) NoSymm\\MolName:\\0,
 1\O,-3.5247530119,-1.3562029636,-0.4015311963\N,-3.1065480736,-0.19194
 64941,-0.2517266239\O,-3.8511213101,0.807536994,-0.2279739877\C,-1.667
 7857499,-0.0106762901,-0.1061711017\C,-1.2895667705,1.2450941294,0.301
 6292985\N,-0.0513200024,1.7424146759,0.4487135431\C,1.2193542182,1.031
 1711734,0.3877818773\H,1.8771763457,1.5576879851,1.0944280243\C,1.8887
 898254,1.0491497031,-0.9841317172\C,3.2892681453,0.4387227302,-0.85433
 48725\C,3.2514597946,-0.9604034317,-0.2335731987\C,2.4856355532,-0.975
 4416025,1.0910761461\C,1.0710436027,-0.4210648322,0.8794550805\H,0.507
 2667534,-0.4083043904,1.824313473\N,0.412627,-1.3316553921,-0.05089875
 5\C,-0.8436282532,-1.1771131623,-0.3330882259\H,-2.0891583875,1.964975
 9059,0.4530000527\H,-0.0111143737,2.6997371961,0.7784330645\H,1.275790
 1469,0.4731078667,-1.6860472322\H,1.9457876828,2.0777864406,-1.3604905
 753\H,3.7707626916,0.4040535665,-1.8383256355\H,3.9048307991,1.1007440
 643,-0.2288570543\H,2.7549908078,-1.6527360552,-0.9212229134\H,4.27312
 22599,-1.3285857853,-0.0825524198\H,2.4078187352,-1.9984796146,1.47280
 26802\H,3.0112276055,-0.3787143388,1.8494909804\H,-1.3529660342,-2.038
 8680785,-0.7631787111\\Version=ES64L-G16RevC.02\HF=-661.2961522\MP2=-6
 63.33146\RMSD=7.594e-09\RMSF=2.185e-03\Dipole=1.9458485,1.6386592,0.66
 77742\PG=C01 [X(C9H13N3O2)]\\@
 The archive entry for this job was punched.


 IT CANNOT BE MY BEAUTY, FOR I HAVE NONE; AND IT CANNOT BE MY WIT,
 FOR HE HAS NOT ENOUGH TO KNOW THAT I HAVE ANY.
 -- CATHARINE SEDLEY, PUZZLED ABOUT WHY SHE WAS MISTRESS TO JAMES II
 Job cpu time:       0 days  1 hours 21 minutes  5.1 seconds.
 Elapsed time:       0 days  0 hours 24 minutes 30.7 seconds.
 File lengths (MBytes):  RWF=     36 Int=      0 D2E=      0 Chk=      7 Scr=      1
 Normal termination of Gaussian 16 at Sun Jul  2 12:35:41 2023.
