 Entering Gaussian System, Link 0=g16
 Initial command:
 /home/alexey/programs//g16/l1.exe "/home/alexey/tmp/Gau-1494813.inp" -scrdir="/home/alexey/tmp/"
 Entering Link 1 = /home/alexey/programs//g16/l1.exe PID=   1494815.
  
 Copyright (c) 1988-2021, Gaussian, Inc.  All Rights Reserved.
  
 This is part of the Gaussian(R) 16 program.  It is based on
 the Gaussian(R) 09 system (copyright 2009, Gaussian, Inc.),
 the Gaussian(R) 03 system (copyright 2003, Gaussian, Inc.),
 the Gaussian(R) 98 system (copyright 1998, Gaussian, Inc.),
 the Gaussian(R) 94 system (copyright 1995, Gaussian, Inc.),
 the Gaussian 92(TM) system (copyright 1992, Gaussian, Inc.),
 the Gaussian 90(TM) system (copyright 1990, Gaussian, Inc.),
 the Gaussian 88(TM) system (copyright 1988, Gaussian, Inc.),
 the Gaussian 86(TM) system (copyright 1986, Carnegie Mellon
 University), and the Gaussian 82(TM) system (copyright 1983,
 Carnegie Mellon University). Gaussian is a federally registered
 trademark of Gaussian, Inc.
  
 This software contains proprietary and confidential information,
 including trade secrets, belonging to Gaussian, Inc.
  
 This software is provided under written license and may be
 used, copied, transmitted, or stored only in accord with that
 written license.
  
 The following legend is applicable only to US Government
 contracts under FAR:
  
                    RESTRICTED RIGHTS LEGEND
  
 Use, reproduction and disclosure by the US Government is
 subject to restrictions as set forth in subparagraphs (a)
 and (c) of the Commercial Computer Software - Restricted
 Rights clause in FAR 52.227-19.
  
 Gaussian, Inc.
 340 Quinnipiac St., Bldg. 40, Wallingford CT 06492
  
  
 ---------------------------------------------------------------
 Warning -- This program may not be used in any manner that
 competes with the business of Gaussian, Inc. or will provide
 assistance to any competitor of Gaussian, Inc.  The licensee
 of this program is prohibited from giving any competitor of
 Gaussian, Inc. access to this program.  By using this program,
 the user acknowledges that Gaussian, Inc. is engaged in the
 business of creating and licensing software in the field of
 computational chemistry and represents and warrants to the
 licensee that it is not a competitor of Gaussian, Inc. and that
 it will not use this program in any manner prohibited above.
 ---------------------------------------------------------------
  

 Cite this work as:
 Gaussian 16, Revision C.02,
 M. J. Frisch, G. W. Trucks, H. B. Schlegel, G. E. Scuseria, 
 M. A. Robb, J. R. Cheeseman, G. Scalmani, V. Barone, 
 G. A. Petersson, H. Nakatsuji, X. Li, M. Caricato, A. V. Marenich, 
 J. Bloino, B. G. Janesko, R. Gomperts, B. Mennucci, H. P. Hratchian, 
 J. V. Ortiz, A. F. Izmaylov, J. L. Sonnenberg, D. Williams-Young, 
 F. Ding, F. Lipparini, F. Egidi, J. Goings, B. Peng, A. Petrone, 
 T. Henderson, D. Ranasinghe, V. G. Zakrzewski, J. Gao, N. Rega, 
 G. Zheng, W. Liang, M. Hada, M. Ehara, K. Toyota, R. Fukuda, 
 J. Hasegawa, M. Ishida, T. Nakajima, Y. Honda, O. Kitao, H. Nakai, 
 T. Vreven, K. Throssell, J. A. Montgomery, Jr., J. E. Peralta, 
 F. Ogliaro, M. J. Bearpark, J. J. Heyd, E. N. Brothers, K. N. Kudin, 
 V. N. Staroverov, T. A. Keith, R. Kobayashi, J. Normand, 
 K. Raghavachari, A. P. Rendell, J. C. Burant, S. S. Iyengar, 
 J. Tomasi, M. Cossi, J. M. Millam, M. Klene, C. Adamo, R. Cammi, 
 J. W. Ochterski, R. L. Martin, K. Morokuma, O. Farkas, 
 J. B. Foresman, and D. J. Fox, Gaussian, Inc., Wallingford CT, 2019.
 
 ******************************************
 Gaussian 16:  ES64L-G16RevC.02  7-Dec-2021
                 2-Jul-2023 
 ******************************************
 %mem=8GB
 %NPROCS=4
 Will use up to    4 processors via shared memory.
 %NoSave
 ---------------------------------------------------------
 #MP2/6-31G* SCF=Tight Opt=(ModRedun, MaxCycle=20 ) NoSymm
 ---------------------------------------------------------
 1/6=20,18=120,19=15,38=1/1,3;
 2/9=110,12=2,15=1,17=6,18=5,40=1/2;
 3/5=1,6=6,7=1,11=9,25=1,30=1,71=1/1,2,3;
 4//1;
 5/5=2,32=2,38=5/2;
 8/6=4,10=2/1;
 9/15=2,16=-3/6;
 10/5=1,31=1/2;
 6/7=2,8=2,9=2,10=2/1;
 7/12=2,30=1/1,2,3,16;
 1/6=20,18=20,19=15/3(2);
 2/9=110,15=1/2;
 99//99;
 2/9=110,15=1/2;
 3/5=1,6=6,7=1,11=9,25=1,30=1,71=1/1,2,3;
 4/5=5,16=3,69=1/1;
 5/5=2,32=2,38=5/2;
 8/6=4,10=2/1;
 9/15=2,16=-3/6;
 10/5=1,31=1/2;
 7/12=2,30=1/1,2,3,16;
 1/6=20,18=20,19=15/3(-8);
 2/9=110,15=1/2;
 6/7=2,8=2,9=2,10=2/1;
 99/9=10/99;
 --------
 MolName:
 --------
 Symbolic Z-matrix:
 Charge =  0 Multiplicity = 1
 8                    0    -3.61284  -1.45377  -0.16704 
 7                    0    -3.25625  -0.28812  -0.00413 
 8                    0    -4.03802   0.64767   0.16881 
 6                    0    -1.75798   0.00639  -0.03852 
 6                    0    -1.3708    1.31463   0.274 
 7                    0    -0.08204   1.77131   0.37603 
 6                    0     1.1964    0.99671   0.35408 
 1                    0     1.85623   1.49349   1.11205 
 6                    0     1.96915   1.04798  -0.98753 
 6                    0     3.37914   0.45931  -0.79029 
 6                    0     3.31162  -0.95714  -0.19774 
 6                    0     2.45559  -0.99092   1.08677 
 6                    0     1.02088  -0.45249   0.83292 
 1                    0     0.46735  -0.49162   1.80037 
 7                    0     0.36896  -1.31925  -0.15172 
 6                    0    -0.87051  -1.11138  -0.4543 
 1                    0    -2.15776   2.05092   0.50728 
 1                    0     0.14949   2.75203   0.20034 
 1                    0     1.42357   0.47296  -1.76572 
 1                    0     2.05925   2.09819  -1.33771 
 1                    0     3.91967   0.43555  -1.7618 
 1                    0     3.95302   1.1116   -0.0947 
 1                    0     2.86776  -1.64498  -0.95249 
 1                    0     4.33772  -1.3228    0.02501 
 1                    0     2.39335  -2.03759   1.45738 
 1                    0     2.94621  -0.38159   1.87451 
 1                    0    -1.36815  -1.8441   -1.10786 
 
 The following ModRedundant input section has been read:
 D       5       4      16      27 F                                           
 D       1       2       4      16 F                                           
 D       7      13      15      16 F                                           
 D       7       9      10      11 F                                           
 D       9      10      11      12 F                                           
 D       6       7      13      15 F                                           
 

 GradGradGradGradGradGradGradGradGradGradGradGradGradGradGradGradGradGrad
 Berny optimization.
 Initialization pass.
                           ----------------------------
                           !    Initial Parameters    !
                           ! (Angstroms and Degrees)  !
 --------------------------                            --------------------------
 ! Name  Definition              Value          Derivative Info.                !
 --------------------------------------------------------------------------------
 ! R1    R(1,2)                  1.2298         estimate D2E/DX2                !
 ! R2    R(2,3)                  1.2316         estimate D2E/DX2                !
 ! R3    R(2,4)                  1.5273         estimate D2E/DX2                !
 ! R4    R(4,5)                  1.3997         estimate D2E/DX2                !
 ! R5    R(4,16)                 1.4866         estimate D2E/DX2                !
 ! R6    R(5,6)                  1.3711         estimate D2E/DX2                !
 ! R7    R(5,17)                 1.1027         estimate D2E/DX2                !
 ! R8    R(6,7)                  1.495          estimate D2E/DX2                !
 ! R9    R(6,18)                 1.0229         estimate D2E/DX2                !
 ! R10   R(7,8)                  1.121          estimate D2E/DX2                !
 ! R11   R(7,9)                  1.5491         estimate D2E/DX2                !
 ! R12   R(7,13)                 1.5363         estimate D2E/DX2                !
 ! R13   R(9,10)                 1.5406         estimate D2E/DX2                !
 ! R14   R(9,19)                 1.1108         estimate D2E/DX2                !
 ! R15   R(9,20)                 1.1107         estimate D2E/DX2                !
 ! R16   R(10,11)                1.5369         estimate D2E/DX2                !
 ! R17   R(10,21)                1.112          estimate D2E/DX2                !
 ! R18   R(10,22)                1.113          estimate D2E/DX2                !
 ! R19   R(11,12)                1.544          estimate D2E/DX2                !
 ! R20   R(11,23)                1.1135         estimate D2E/DX2                !
 ! R21   R(11,24)                1.1118         estimate D2E/DX2                !
 ! R22   R(12,13)                1.5533         estimate D2E/DX2                !
 ! R23   R(12,25)                1.1121         estimate D2E/DX2                !
 ! R24   R(12,26)                1.1102         estimate D2E/DX2                !
 ! R25   R(13,14)                1.1153         estimate D2E/DX2                !
 ! R26   R(13,15)                1.4649         estimate D2E/DX2                !
 ! R27   R(15,16)                1.2927         estimate D2E/DX2                !
 ! R28   R(16,27)                1.1008         estimate D2E/DX2                !
 ! A1    A(1,2,3)              123.6926         estimate D2E/DX2                !
 ! A2    A(1,2,4)              117.6599         estimate D2E/DX2                !
 ! A3    A(3,2,4)              118.6424         estimate D2E/DX2                !
 ! A4    A(2,4,5)              116.5234         estimate D2E/DX2                !
 ! A5    A(2,4,16)             116.5477         estimate D2E/DX2                !
 ! A6    A(5,4,16)             126.8775         estimate D2E/DX2                !
 ! A7    A(4,5,6)              126.0118         estimate D2E/DX2                !
 ! A8    A(4,5,17)             118.2903         estimate D2E/DX2                !
 ! A9    A(6,5,17)             115.6383         estimate D2E/DX2                !
 ! A10   A(5,6,7)              129.061          estimate D2E/DX2                !
 ! A11   A(5,6,18)             121.2873         estimate D2E/DX2                !
 ! A12   A(7,6,18)             107.4994         estimate D2E/DX2                !
 ! A13   A(6,7,8)              105.2962         estimate D2E/DX2                !
 ! A14   A(6,7,9)              114.971          estimate D2E/DX2                !
 ! A15   A(6,7,13)             112.7359         estimate D2E/DX2                !
 ! A16   A(8,7,9)              106.099          estimate D2E/DX2                !
 ! A17   A(8,7,13)             105.9338         estimate D2E/DX2                !
 ! A18   A(9,7,13)             110.9863         estimate D2E/DX2                !
 ! A19   A(7,9,10)             109.4521         estimate D2E/DX2                !
 ! A20   A(7,9,19)             110.1568         estimate D2E/DX2                !
 ! A21   A(7,9,20)             110.17           estimate D2E/DX2                !
 ! A22   A(10,9,19)            109.9625         estimate D2E/DX2                !
 ! A23   A(10,9,20)            109.1115         estimate D2E/DX2                !
 ! A24   A(19,9,20)            107.9649         estimate D2E/DX2                !
 ! A25   A(9,10,11)            111.1807         estimate D2E/DX2                !
 ! A26   A(9,10,21)            109.9489         estimate D2E/DX2                !
 ! A27   A(9,10,22)            109.1467         estimate D2E/DX2                !
 ! A28   A(11,10,21)           109.7856         estimate D2E/DX2                !
 ! A29   A(11,10,22)           108.7747         estimate D2E/DX2                !
 ! A30   A(21,10,22)           107.9332         estimate D2E/DX2                !
 ! A31   A(10,11,12)           111.4249         estimate D2E/DX2                !
 ! A32   A(10,11,23)           108.9966         estimate D2E/DX2                !
 ! A33   A(10,11,24)           109.8648         estimate D2E/DX2                !
 ! A34   A(12,11,23)           109.2324         estimate D2E/DX2                !
 ! A35   A(12,11,24)           109.743          estimate D2E/DX2                !
 ! A36   A(23,11,24)           107.4892         estimate D2E/DX2                !
 ! A37   A(11,12,13)           111.6265         estimate D2E/DX2                !
 ! A38   A(11,12,25)           109.2002         estimate D2E/DX2                !
 ! A39   A(11,12,26)           109.4683         estimate D2E/DX2                !
 ! A40   A(13,12,25)           109.2089         estimate D2E/DX2                !
 ! A41   A(13,12,26)           109.5052         estimate D2E/DX2                !
 ! A42   A(25,12,26)           107.7482         estimate D2E/DX2                !
 ! A43   A(7,13,12)            105.8066         estimate D2E/DX2                !
 ! A44   A(7,13,14)            111.11           estimate D2E/DX2                !
 ! A45   A(7,13,15)            113.5464         estimate D2E/DX2                !
 ! A46   A(12,13,14)           107.7276         estimate D2E/DX2                !
 ! A47   A(12,13,15)           108.4097         estimate D2E/DX2                !
 ! A48   A(14,13,15)           109.9643         estimate D2E/DX2                !
 ! A49   A(13,15,16)           119.2688         estimate D2E/DX2                !
 ! A50   A(4,16,15)            128.8922         estimate D2E/DX2                !
 ! A51   A(4,16,27)            113.3709         estimate D2E/DX2                !
 ! A52   A(15,16,27)           117.7369         estimate D2E/DX2                !
 ! D1    D(1,2,4,5)           -174.1678         estimate D2E/DX2                !
 ! D2    D(1,2,4,16)             8.2585         Frozen                          !
 ! D3    D(3,2,4,5)              6.6245         estimate D2E/DX2                !
 ! D4    D(3,2,4,16)          -170.9493         estimate D2E/DX2                !
 ! D5    D(2,4,5,6)            176.0796         estimate D2E/DX2                !
 ! D6    D(2,4,5,17)            -0.9796         estimate D2E/DX2                !
 ! D7    D(16,4,5,6)            -6.6339         estimate D2E/DX2                !
 ! D8    D(16,4,5,17)          176.3069         estimate D2E/DX2                !
 ! D9    D(2,4,16,15)         -153.6077         estimate D2E/DX2                !
 ! D10   D(2,4,16,27)           26.3628         estimate D2E/DX2                !
 ! D11   D(5,4,16,15)           29.1064         estimate D2E/DX2                !
 ! D12   D(5,4,16,27)         -150.9231         Frozen                          !
 ! D13   D(4,5,6,7)             -8.2984         estimate D2E/DX2                !
 ! D14   D(4,5,6,18)           152.8466         estimate D2E/DX2                !
 ! D15   D(17,5,6,7)           168.8294         estimate D2E/DX2                !
 ! D16   D(17,5,6,18)          -30.0257         estimate D2E/DX2                !
 ! D17   D(5,6,7,8)           -141.3515         estimate D2E/DX2                !
 ! D18   D(5,6,7,9)            102.2576         estimate D2E/DX2                !
 ! D19   D(5,6,7,13)           -26.3151         estimate D2E/DX2                !
 ! D20   D(18,6,7,8)            55.4812         estimate D2E/DX2                !
 ! D21   D(18,6,7,9)           -60.9097         estimate D2E/DX2                !
 ! D22   D(18,6,7,13)          170.5176         estimate D2E/DX2                !
 ! D23   D(6,7,9,10)           168.6885         estimate D2E/DX2                !
 ! D24   D(6,7,9,19)           -70.2915         estimate D2E/DX2                !
 ! D25   D(6,7,9,20)            48.7119         estimate D2E/DX2                !
 ! D26   D(8,7,9,10)            52.757          estimate D2E/DX2                !
 ! D27   D(8,7,9,19)           173.777          estimate D2E/DX2                !
 ! D28   D(8,7,9,20)           -67.2197         estimate D2E/DX2                !
 ! D29   D(13,7,9,10)          -61.8721         estimate D2E/DX2                !
 ! D30   D(13,7,9,19)           59.1479         estimate D2E/DX2                !
 ! D31   D(13,7,9,20)          178.1513         estimate D2E/DX2                !
 ! D32   D(6,7,13,12)         -166.2018         estimate D2E/DX2                !
 ! D33   D(6,7,13,14)          -49.5531         estimate D2E/DX2                !
 ! D34   D(6,7,13,15)           75.0215         Frozen                          !
 ! D35   D(8,7,13,12)          -51.5503         estimate D2E/DX2                !
 ! D36   D(8,7,13,14)           65.0984         estimate D2E/DX2                !
 ! D37   D(8,7,13,15)         -170.327          estimate D2E/DX2                !
 ! D38   D(9,7,13,12)           63.1821         estimate D2E/DX2                !
 ! D39   D(9,7,13,14)          179.8308         estimate D2E/DX2                !
 ! D40   D(9,7,13,15)          -55.5947         estimate D2E/DX2                !
 ! D41   D(7,9,10,11)           54.8125         Frozen                          !
 ! D42   D(7,9,10,21)          176.6048         estimate D2E/DX2                !
 ! D43   D(7,9,10,22)          -65.1815         estimate D2E/DX2                !
 ! D44   D(19,9,10,11)         -66.3251         estimate D2E/DX2                !
 ! D45   D(19,9,10,21)          55.4672         estimate D2E/DX2                !
 ! D46   D(19,9,10,22)         173.6808         estimate D2E/DX2                !
 ! D47   D(20,9,10,11)         175.4356         estimate D2E/DX2                !
 ! D48   D(20,9,10,21)         -62.7721         estimate D2E/DX2                !
 ! D49   D(20,9,10,22)          55.4416         estimate D2E/DX2                !
 ! D50   D(9,10,11,12)         -52.8225         Frozen                          !
 ! D51   D(9,10,11,23)          67.7961         estimate D2E/DX2                !
 ! D52   D(9,10,11,24)        -174.6665         estimate D2E/DX2                !
 ! D53   D(21,10,11,12)       -174.7098         estimate D2E/DX2                !
 ! D54   D(21,10,11,23)        -54.0912         estimate D2E/DX2                !
 ! D55   D(21,10,11,24)         63.4462         estimate D2E/DX2                !
 ! D56   D(22,10,11,12)         67.392          estimate D2E/DX2                !
 ! D57   D(22,10,11,23)       -171.9894         estimate D2E/DX2                !
 ! D58   D(22,10,11,24)        -54.452          estimate D2E/DX2                !
 ! D59   D(10,11,12,13)         56.5872         estimate D2E/DX2                !
 ! D60   D(10,11,12,25)        177.4404         estimate D2E/DX2                !
 ! D61   D(10,11,12,26)        -64.8192         estimate D2E/DX2                !
 ! D62   D(23,11,12,13)        -63.893          estimate D2E/DX2                !
 ! D63   D(23,11,12,25)         56.9602         estimate D2E/DX2                !
 ! D64   D(23,11,12,26)        174.7006         estimate D2E/DX2                !
 ! D65   D(24,11,12,13)        178.5018         estimate D2E/DX2                !
 ! D66   D(24,11,12,25)        -60.645          estimate D2E/DX2                !
 ! D67   D(24,11,12,26)         57.0954         estimate D2E/DX2                !
 ! D68   D(11,12,13,7)         -60.2627         estimate D2E/DX2                !
 ! D69   D(11,12,13,14)       -179.1751         estimate D2E/DX2                !
 ! D70   D(11,12,13,15)         61.8654         estimate D2E/DX2                !
 ! D71   D(25,12,13,7)         178.8892         estimate D2E/DX2                !
 ! D72   D(25,12,13,14)         59.9767         estimate D2E/DX2                !
 ! D73   D(25,12,13,15)        -58.9827         estimate D2E/DX2                !
 ! D74   D(26,12,13,7)          61.1223         estimate D2E/DX2                !
 ! D75   D(26,12,13,14)        -57.7901         estimate D2E/DX2                !
 ! D76   D(26,12,13,15)       -176.7496         estimate D2E/DX2                !
 ! D77   D(7,13,15,16)         -67.16           Frozen                          !
 ! D78   D(12,13,15,16)        175.5687         estimate D2E/DX2                !
 ! D79   D(14,13,15,16)         58.0302         estimate D2E/DX2                !
 ! D80   D(13,15,16,4)           6.7985         estimate D2E/DX2                !
 ! D81   D(13,15,16,27)       -173.1709         estimate D2E/DX2                !
 --------------------------------------------------------------------------------
 Trust Radius=3.00D-01 FncErr=1.00D-07 GrdErr=1.00D-07 EigMax=2.50D+02 EigMin=1.00D-04
 Number of steps in this run=     20 maximum allowed number of steps=    162.
 GradGradGradGradGradGradGradGradGradGradGradGradGradGradGradGradGradGrad

                          Input orientation:                          
 ---------------------------------------------------------------------
 Center     Atomic      Atomic             Coordinates (Angstroms)
 Number     Number       Type             X           Y           Z
 ---------------------------------------------------------------------
      1          8           0       -3.612840   -1.453770   -0.167040
      2          7           0       -3.256250   -0.288120   -0.004130
      3          8           0       -4.038020    0.647670    0.168810
      4          6           0       -1.757980    0.006390   -0.038520
      5          6           0       -1.370800    1.314630    0.274000
      6          7           0       -0.082040    1.771310    0.376030
      7          6           0        1.196400    0.996710    0.354080
      8          1           0        1.856230    1.493490    1.112050
      9          6           0        1.969150    1.047980   -0.987530
     10          6           0        3.379140    0.459310   -0.790290
     11          6           0        3.311620   -0.957140   -0.197740
     12          6           0        2.455590   -0.990920    1.086770
     13          6           0        1.020880   -0.452490    0.832920
     14          1           0        0.467350   -0.491620    1.800370
     15          7           0        0.368960   -1.319250   -0.151720
     16          6           0       -0.870510   -1.111380   -0.454300
     17          1           0       -2.157760    2.050920    0.507280
     18          1           0        0.149490    2.752030    0.200340
     19          1           0        1.423570    0.472960   -1.765720
     20          1           0        2.059250    2.098190   -1.337710
     21          1           0        3.919670    0.435550   -1.761800
     22          1           0        3.953020    1.111600   -0.094700
     23          1           0        2.867760   -1.644980   -0.952490
     24          1           0        4.337720   -1.322800    0.025010
     25          1           0        2.393350   -2.037590    1.457380
     26          1           0        2.946210   -0.381590    1.874510
     27          1           0       -1.368150   -1.844100   -1.107860
 ---------------------------------------------------------------------
                    Distance matrix (angstroms):
                    1          2          3          4          5
     1  O    0.000000
     2  N    1.229811   0.000000
     3  O    2.170167   1.231574   0.000000
     4  C    2.364126   1.527328   2.377563   0.000000
     5  C    3.589610   2.490198   2.751357   1.399667   0.000000
     6  N    4.812755   3.802812   4.117680   2.468921   1.371083
     7  C    5.422657   4.648139   5.249315   3.140578   2.588050
     8  H    6.342960   5.527879   6.028872   4.074039   3.338868
     9  C    6.171756   5.482430   6.130535   3.984599   3.580199
    10  C    7.275720   6.723474   7.481284   5.211554   4.942288
    11  C    6.942314   6.604694   7.531732   5.162808   5.225757
    12  C    6.213865   5.857398   6.759778   4.473821   4.540641
    13  C    4.844981   4.361366   5.219565   2.948227   3.025762
    14  H    4.630808   4.142805   4.925274   2.929441   2.995186
    15  N    3.984101   3.771891   4.836630   2.508786   3.185173
    16  C    2.778511   2.563623   3.676363   1.486568   2.581905
    17  H    3.854195   2.634261   2.370454   2.153561   1.102655
    18  H    5.654984   4.569834   4.686637   3.351721   2.093520
    19  H    5.624366   5.057980   5.796714   3.650091   3.560529
    20  H    6.794078   5.977244   6.445953   4.542551   3.869989
    21  H    7.927894   7.423404   8.191281   5.948914   5.736404
    22  H    7.989280   7.344453   8.008832   5.817230   5.340433
    23  H    6.530825   6.343812   7.362293   4.995982   5.313093
    24  H    7.953958   7.664189   8.605606   6.239258   6.293269
    25  H    6.249312   6.092178   7.087563   4.863035   5.177508
    26  H    6.952599   6.481399   7.262800   5.093095   4.906666
    27  H    2.464981   2.684067   3.868722   2.172503   3.447770
                    6          7          8          9         10
     6  N    0.000000
     7  C    1.494957   0.000000
     8  H    2.091841   1.121019   0.000000
     9  C    2.567077   1.549093   2.149294   0.000000
    10  C    3.880904   2.522446   2.647202   1.540619   0.000000
    11  C    4.392104   2.931926   3.136765   2.538996   1.536882
    12  C    3.817674   2.464359   2.555810   2.948976   2.545480
    13  C    2.523978   1.536319   2.136015   2.542570   3.004593
    14  H    2.729730   2.199635   2.518617   3.521102   4.011771
    15  N    3.167567   2.510809   3.423535   2.977073   3.554185
    16  C    3.101779   3.060987   4.083370   3.607054   4.543070
    17  H    2.098576   3.519264   4.097388   4.502414   5.905436
    18  H    1.022881   2.049587   2.308268   2.761518   4.082714
    19  H    2.922271   2.195330   3.083867   1.110804   2.185384
    20  H    2.762042   2.195432   2.531443   1.110714   2.174329
    21  H    4.729509   3.494002   3.692700   2.186114   1.112011
    22  H    4.115643   2.795274   2.449207   2.176450   1.112954
    23  H    4.705032   3.388081   3.890439   2.839148   2.171602
    24  H    5.406571   3.918712   3.907805   3.500851   2.181629
    25  H    4.669539   3.443390   3.588353   3.959580   3.501187
    26  H    4.006335   2.696897   2.298984   3.345084   2.827667
    27  H    4.114268   4.096875   5.144330   4.417712   5.286143
                   11         12         13         14         15
    11  C    0.000000
    12  C    1.543987   0.000000
    13  C    2.562113   1.553300   0.000000
    14  H    3.506996   2.170628   1.115296   0.000000
    15  N    2.965213   2.448608   1.464851   2.122571   0.000000
    16  C    4.192830   3.667744   2.380846   2.693976   1.292691
    17  H    6.281687   5.556222   4.059169   3.876570   4.263407
    18  H    4.890345   4.484811   3.380596   3.630757   4.092363
    19  H    2.840507   3.368191   2.787749   3.815989   2.632340
    20  H    3.493280   3.946871   3.506539   4.369074   3.992812
    21  H    2.180732   3.506094   3.990510   5.046505   4.275421
    22  H    2.168340   2.838795   3.450261   4.279194   4.331024
    23  H    1.113455   2.180885   2.832082   3.830202   2.644113
    24  H    1.111848   2.186296   3.523008   4.338494   3.972695
    25  H    2.179453   1.112090   2.187731   2.493420   2.683909
    26  H    2.181514   1.110192   2.190167   2.482408   3.409843
    27  H    4.849254   4.490580   3.377968   3.695411   2.051151
                   16         17         18         19         20
    16  C    0.000000
    17  H    3.547082   0.000000
    18  H    4.049060   2.430878   0.000000
    19  H    3.081032   4.525750   3.268460   0.000000
    20  H    4.434551   4.603194   2.537772   1.796846   0.000000
    21  H    5.200805   6.685305   4.840489   2.496383   2.530887
    22  H    5.323288   6.211790   4.152698   3.098110   2.470789
    23  H    3.808882   6.406751   5.296386   2.689368   3.848819
    24  H    5.234510   7.335246   5.846046   3.863125   4.330312
    25  H    3.894248   6.191220   5.436499   4.199013   5.002882
    26  H    4.530265   5.816952   4.521511   4.037321   4.153837
    27  H    1.100756   4.289912   5.013884   3.687173   5.228915
                   21         22         23         24         25
    21  H    0.000000
    22  H    1.799272   0.000000
    23  H    2.467813   3.084206   0.000000
    24  H    2.541506   2.467515   1.794461   0.000000
    25  H    4.336957   3.841734   2.487304   2.518568   0.000000
    26  H    3.852024   2.668533   3.097457   2.498565   1.794990
    27  H    5.795298   6.170697   4.243433   5.840557   4.557058
                   26         27
    26  H    0.000000
    27  H    5.444921   0.000000
 Symmetry turned off by external request.
 Stoichiometry    C9H13N3O2
 Framework group  C1[X(C9H13N3O2)]
 Deg. of freedom    75
 Full point group                 C1      NOp   1
 Rotational constants (GHZ):           1.6771205           0.4003030           0.3552267
 Standard basis: 6-31G(d) (6D, 7F)
   236 basis functions,   444 primitive gaussians,   236 cartesian basis functions
    52 alpha electrons       52 beta electrons
       nuclear repulsion energy       917.5387001711 Hartrees.
 NAtoms=   27 NActive=   27 NUniq=   27 SFac= 1.00D+00 NAtFMM=   60 NAOKFM=F Big=F
 Integral buffers will be    131072 words long.
 Raffenetti 1 integral format.
 Two-electron integral symmetry is turned off.
 One-electron integrals computed using PRISM.
 NBasis=   236 RedAO= T EigKep=  1.27D-03  NBF=   236
 NBsUse=   236 1.00D-06 EigRej= -1.00D+00 NBFU=   236
 ExpMin= 1.61D-01 ExpMax= 5.48D+03 ExpMxC= 8.25D+02 IAcc=3 IRadAn=         5 AccDes= 0.00D+00
 Harris functional with IExCor=  205 and IRadAn=       5 diagonalized for initial guess.
 HarFok:  IExCor=  205 AccDes= 0.00D+00 IRadAn=         5 IDoV= 1 UseB2=F ITyADJ=14
 ICtDFT=  3500011 ScaDFX=  1.000000  1.000000  1.000000  1.000000
 FoFCou: FMM=F IPFlag=           0 FMFlag=      100000 FMFlg1=           0
         NFxFlg=           0 DoJE=T BraDBF=F KetDBF=T FulRan=T
         wScrn=  0.000000 ICntrl=       500 IOpCl=  0 I1Cent=   200000004 NGrid=           0
         NMat0=    1 NMatS0=      1 NMatT0=    0 NMatD0=    1 NMtDS0=    0 NMtDT0=    0
 Symmetry not used in FoFCou.
 Keep R1 ints in memory in canonical form, NReq=397720213.
 Requested convergence on RMS density matrix=1.00D-08 within 128 cycles.
 Requested convergence on MAX density matrix=1.00D-06.
 Requested convergence on             energy=1.00D-06.
 No special actions if energy rises.
 SCF Done:  E(RHF) =  -661.280814683     A.U. after   16 cycles
            NFock= 16  Conv=0.81D-08     -V/T= 2.0037
 ExpMin= 1.61D-01 ExpMax= 5.48D+03 ExpMxC= 8.25D+02 IAcc=3 IRadAn=         5 AccDes= 0.00D+00
 HarFok:  IExCor=  205 AccDes= 0.00D+00 IRadAn=         5 IDoV=-2 UseB2=F ITyADJ=14
 ICtDFT= 12500011 ScaDFX=  1.000000  1.000000  1.000000  1.000000
 Range of M.O.s used for correlation:    15   236
 NBasis=   236 NAE=    52 NBE=    52 NFC=    14 NFV=     0
 NROrb=    222 NOA=    38 NOB=    38 NVA=   184 NVB=   184
 Fully direct method using O(ONN) memory.
 JobTyp=1 Pass  1:  I=  15 to  52 NPSUse=  4 ParTrn=T ParDer=T DoDerP=T.
 Spin components of T(2) and E(2):
     alpha-alpha T2 =       0.9196301455D-01 E2=     -0.2717503881D+00
     alpha-beta  T2 =       0.4997320273D+00 E2=     -0.1493806224D+01
     beta-beta   T2 =       0.9196301455D-01 E2=     -0.2717503881D+00
 ANorm=    0.1297558498D+01
 E2 =    -0.2037307001D+01 EUMP2 =    -0.66331812168340D+03
          IDoAtm=111111111111111111111111111
          Differentiating once with respect to electric field.
                with respect to dipole field.
          Differentiating once with respect to nuclear coordinates.
 Keep R1 ints in memory in canonical form, NReq=397723379.
          There are     1 degrees of freedom in the 1st order CPHF.  IDoFFX=0 NUNeed=     1.
 LinEq1:  Iter=  0 NonCon=     1 RMS=4.61D-03 Max=1.12D-01 NDo=     1
 AX will form     1 AO Fock derivatives at one time.
 LinEq1:  Iter=  1 NonCon=     1 RMS=1.56D-03 Max=3.06D-02 NDo=     1
 LinEq1:  Iter=  2 NonCon=     1 RMS=6.40D-04 Max=1.80D-02 NDo=     1
 LinEq1:  Iter=  3 NonCon=     1 RMS=2.94D-04 Max=9.08D-03 NDo=     1
 LinEq1:  Iter=  4 NonCon=     1 RMS=9.02D-05 Max=2.07D-03 NDo=     1
 LinEq1:  Iter=  5 NonCon=     1 RMS=3.75D-05 Max=1.89D-03 NDo=     1
 LinEq1:  Iter=  6 NonCon=     1 RMS=1.54D-05 Max=5.85D-04 NDo=     1
 LinEq1:  Iter=  7 NonCon=     1 RMS=5.94D-06 Max=1.03D-04 NDo=     1
 LinEq1:  Iter=  8 NonCon=     1 RMS=2.37D-06 Max=6.11D-05 NDo=     1
 LinEq1:  Iter=  9 NonCon=     1 RMS=8.88D-07 Max=2.54D-05 NDo=     1
 LinEq1:  Iter= 10 NonCon=     1 RMS=4.36D-07 Max=1.51D-05 NDo=     1
 LinEq1:  Iter= 11 NonCon=     1 RMS=1.54D-07 Max=5.74D-06 NDo=     1
 LinEq1:  Iter= 12 NonCon=     1 RMS=5.41D-08 Max=7.59D-07 NDo=     1
 LinEq1:  Iter= 13 NonCon=     1 RMS=1.71D-08 Max=3.39D-07 NDo=     1
 LinEq1:  Iter= 14 NonCon=     1 RMS=5.44D-09 Max=1.44D-07 NDo=     1
 LinEq1:  Iter= 15 NonCon=     1 RMS=2.02D-09 Max=4.78D-08 NDo=     1
 LinEq1:  Iter= 16 NonCon=     1 RMS=7.64D-10 Max=1.29D-08 NDo=     1
 LinEq1:  Iter= 17 NonCon=     1 RMS=2.55D-10 Max=3.69D-09 NDo=     1
 LinEq1:  Iter= 18 NonCon=     1 RMS=8.81D-11 Max=1.04D-09 NDo=     1
 LinEq1:  Iter= 19 NonCon=     0 RMS=2.94D-11 Max=3.99D-10 NDo=     1
 Linear equations converged to 1.000D-10 1.000D-09 after    19 iterations.
 End of Minotr F.D. properties file   721 does not exist.
 End of Minotr F.D. properties file   722 does not exist.
 End of Minotr F.D. properties file   788 does not exist.

 **********************************************************************

            Population analysis using the SCF Density.

 **********************************************************************

 Alpha  occ. eigenvalues --  -20.59835 -20.59391 -15.85281 -15.63294 -15.56901
 Alpha  occ. eigenvalues --  -11.35851 -11.30483 -11.30086 -11.30081 -11.27702
 Alpha  occ. eigenvalues --  -11.24627 -11.23879 -11.23409 -11.22856  -1.58487
 Alpha  occ. eigenvalues --   -1.37990  -1.28561  -1.22753  -1.13274  -1.08369
 Alpha  occ. eigenvalues --   -1.01816  -1.00664  -0.93579  -0.88970  -0.84935
 Alpha  occ. eigenvalues --   -0.81543  -0.78029  -0.76949  -0.74302  -0.71112
 Alpha  occ. eigenvalues --   -0.70332  -0.69778  -0.67404  -0.64396  -0.63270
 Alpha  occ. eigenvalues --   -0.61637  -0.60396  -0.57420  -0.56476  -0.54889
 Alpha  occ. eigenvalues --   -0.53574  -0.50741  -0.49325  -0.48467  -0.47779
 Alpha  occ. eigenvalues --   -0.47675  -0.46124  -0.45719  -0.44007  -0.42087
 Alpha  occ. eigenvalues --   -0.40024  -0.33799
 Alpha virt. eigenvalues --    0.07351   0.11797   0.18221   0.21364   0.23336
 Alpha virt. eigenvalues --    0.24207   0.26308   0.27769   0.28558   0.28868
 Alpha virt. eigenvalues --    0.29943   0.31060   0.31853   0.32265   0.33343
 Alpha virt. eigenvalues --    0.33774   0.34202   0.35472   0.37569   0.38581
 Alpha virt. eigenvalues --    0.40635   0.41786   0.44498   0.45273   0.45681
 Alpha virt. eigenvalues --    0.46011   0.49706   0.53162   0.57571   0.58948
 Alpha virt. eigenvalues --    0.63293   0.69130   0.69277   0.72194   0.74013
 Alpha virt. eigenvalues --    0.74948   0.75714   0.75849   0.77756   0.79299
 Alpha virt. eigenvalues --    0.80502   0.83679   0.85053   0.85374   0.87980
 Alpha virt. eigenvalues --    0.89056   0.90141   0.90807   0.91859   0.93910
 Alpha virt. eigenvalues --    0.95197   0.97174   0.98769   1.00348   1.01952
 Alpha virt. eigenvalues --    1.02749   1.05111   1.06469   1.06958   1.08628
 Alpha virt. eigenvalues --    1.09582   1.10465   1.11168   1.11946   1.13253
 Alpha virt. eigenvalues --    1.13823   1.14189   1.15372   1.16364   1.17300
 Alpha virt. eigenvalues --    1.17928   1.19920   1.21172   1.22307   1.22957
 Alpha virt. eigenvalues --    1.23682   1.24265   1.25707   1.27056   1.27511
 Alpha virt. eigenvalues --    1.29457   1.31225   1.32983   1.35917   1.39800
 Alpha virt. eigenvalues --    1.42722   1.46003   1.47085   1.49146   1.52615
 Alpha virt. eigenvalues --    1.54417   1.55449   1.60561   1.61412   1.66004
 Alpha virt. eigenvalues --    1.68653   1.70297   1.72866   1.73420   1.77134
 Alpha virt. eigenvalues --    1.77731   1.79869   1.84412   1.89104   1.92604
 Alpha virt. eigenvalues --    1.93768   1.96099   1.97606   1.99003   2.00776
 Alpha virt. eigenvalues --    2.03009   2.03822   2.05974   2.08807   2.11908
 Alpha virt. eigenvalues --    2.12840   2.13844   2.17743   2.18943   2.19316
 Alpha virt. eigenvalues --    2.20814   2.22101   2.24178   2.25134   2.26439
 Alpha virt. eigenvalues --    2.29175   2.32321   2.33524   2.35542   2.35872
 Alpha virt. eigenvalues --    2.38484   2.39840   2.41584   2.43163   2.46383
 Alpha virt. eigenvalues --    2.48664   2.50394   2.50772   2.56811   2.57217
 Alpha virt. eigenvalues --    2.60802   2.62773   2.66047   2.68502   2.68768
 Alpha virt. eigenvalues --    2.69744   2.70276   2.74740   2.77356   2.80929
 Alpha virt. eigenvalues --    2.84640   2.86695   2.90012   2.91440   2.95252
 Alpha virt. eigenvalues --    2.97585   2.98457   3.02203   3.03461   3.05652
 Alpha virt. eigenvalues --    3.06999   3.12619   3.19266   3.22689   3.27195
 Alpha virt. eigenvalues --    3.30613   3.33766   3.37179   3.43429   3.59693
 Alpha virt. eigenvalues --    4.09916   4.23286   4.32059   4.36324   4.43076
 Alpha virt. eigenvalues --    4.52696   4.59689   4.60171   4.70830   4.77569
 Alpha virt. eigenvalues --    4.96248   4.99226   5.02729   5.09987
          Condensed to atoms (all electrons):
               1          2          3          4          5          6
     1  O    8.299486   0.313561  -0.089618  -0.079518   0.003501  -0.000013
     2  N    0.313561   5.682344   0.308916   0.265709  -0.045945   0.000857
     3  O   -0.089618   0.308916   8.331067  -0.087466   0.007991   0.000461
     4  C   -0.079518   0.265709  -0.087466   5.244372   0.568146  -0.048164
     5  C    0.003501  -0.045945   0.007991   0.568146   4.669908   0.307256
     6  N   -0.000013   0.000857   0.000461  -0.048164   0.307256   7.191404
     7  C    0.000003  -0.000093   0.000002   0.004039  -0.029319   0.198312
     8  H   -0.000000   0.000002  -0.000000  -0.000171   0.002267  -0.050173
     9  C   -0.000000  -0.000003   0.000000   0.000453   0.001701  -0.056029
    10  C   -0.000000   0.000000  -0.000000  -0.000018  -0.000063   0.003331
    11  C   -0.000000  -0.000000  -0.000000  -0.000015   0.000015  -0.000154
    12  C   -0.000000   0.000002  -0.000000  -0.000090  -0.000123   0.003582
    13  C   -0.000020  -0.000028  -0.000003  -0.010722   0.000477  -0.044034
    14  H   -0.000003  -0.000055   0.000000   0.003031   0.004858  -0.005567
    15  N    0.000158   0.001648  -0.000013  -0.061265  -0.003687   0.001843
    16  C    0.003767  -0.027257   0.001941   0.318676  -0.041069  -0.001352
    17  H    0.000123  -0.004065   0.011877  -0.027380   0.377463  -0.034057
    18  H    0.000000  -0.000035   0.000008   0.000931  -0.024245   0.328246
    19  H    0.000000   0.000000   0.000000  -0.000744   0.000632   0.000677
    20  H    0.000000  -0.000000   0.000000  -0.000025   0.000031  -0.001759
    21  H   -0.000000  -0.000000   0.000000   0.000000   0.000001  -0.000059
    22  H   -0.000000   0.000000  -0.000000  -0.000000  -0.000002  -0.000098
    23  H    0.000000  -0.000000   0.000000   0.000025  -0.000000  -0.000024
    24  H    0.000000   0.000000   0.000000   0.000000  -0.000000   0.000004
    25  H    0.000000  -0.000000   0.000000   0.000019  -0.000001  -0.000071
    26  H    0.000000  -0.000000   0.000000   0.000006  -0.000001  -0.000067
    27  H    0.005090  -0.000237  -0.000003  -0.066105   0.002139   0.000052
               7          8          9         10         11         12
     1  O    0.000003  -0.000000  -0.000000  -0.000000  -0.000000  -0.000000
     2  N   -0.000093   0.000002  -0.000003   0.000000  -0.000000   0.000002
     3  O    0.000002  -0.000000   0.000000  -0.000000  -0.000000  -0.000000
     4  C    0.004039  -0.000171   0.000453  -0.000018  -0.000015  -0.000090
     5  C   -0.029319   0.002267   0.001701  -0.000063   0.000015  -0.000123
     6  N    0.198312  -0.050173  -0.056029   0.003331  -0.000154   0.003582
     7  C    5.001378   0.416947   0.340614  -0.049308  -0.007693  -0.064056
     8  H    0.416947   0.547660  -0.060712   0.001503  -0.000340  -0.002803
     9  C    0.340614  -0.060712   5.181503   0.317838  -0.053016  -0.006262
    10  C   -0.049308   0.001503   0.317838   5.126762   0.332748  -0.060102
    11  C   -0.007693  -0.000340  -0.053016   0.332748   5.123894   0.330653
    12  C   -0.064056  -0.002803  -0.006262  -0.060102   0.330653   5.136818
    13  C    0.333074  -0.040580  -0.050153  -0.001775  -0.047909   0.368053
    14  H   -0.040130  -0.000950   0.003867  -0.000392   0.003955  -0.040703
    15  N   -0.057925   0.004043  -0.012878   0.001462  -0.007729  -0.074033
    16  C   -0.002504   0.000036  -0.000937  -0.000022   0.000003   0.002552
    17  H    0.001431  -0.000017  -0.000065   0.000001   0.000000   0.000001
    18  H   -0.028372  -0.002600   0.000826  -0.000121   0.000011  -0.000135
    19  H   -0.034991   0.004105   0.385875  -0.032539  -0.002275   0.000637
    20  H   -0.041629  -0.001861   0.397262  -0.037390   0.004140  -0.000360
    21  H    0.004040  -0.000081  -0.035829   0.400151  -0.035846   0.004209
    22  H   -0.004203   0.003510  -0.045696   0.395982  -0.045625  -0.001232
    23  H    0.000423   0.000034  -0.002005  -0.040088   0.396708  -0.036638
    24  H   -0.000141  -0.000098   0.004395  -0.038480   0.400297  -0.037870
    25  H    0.004968  -0.000004  -0.000369   0.004097  -0.033947   0.395487
    26  H   -0.004442   0.001613   0.001035  -0.002398  -0.042317   0.394721
    27  H   -0.000408   0.000009  -0.000059   0.000005   0.000005  -0.000019
              13         14         15         16         17         18
     1  O   -0.000020  -0.000003   0.000158   0.003767   0.000123   0.000000
     2  N   -0.000028  -0.000055   0.001648  -0.027257  -0.004065  -0.000035
     3  O   -0.000003   0.000000  -0.000013   0.001941   0.011877   0.000008
     4  C   -0.010722   0.003031  -0.061265   0.318676  -0.027380   0.000931
     5  C    0.000477   0.004858  -0.003687  -0.041069   0.377463  -0.024245
     6  N   -0.044034  -0.005567   0.001843  -0.001352  -0.034057   0.328246
     7  C    0.333074  -0.040130  -0.057925  -0.002504   0.001431  -0.028372
     8  H   -0.040580  -0.000950   0.004043   0.000036  -0.000017  -0.002600
     9  C   -0.050153   0.003867  -0.012878  -0.000937  -0.000065   0.000826
    10  C   -0.001775  -0.000392   0.001462  -0.000022   0.000001  -0.000121
    11  C   -0.047909   0.003955  -0.007729   0.000003   0.000000   0.000011
    12  C    0.368053  -0.040703  -0.074033   0.002552   0.000001  -0.000135
    13  C    5.025279   0.401991   0.239285  -0.069974  -0.000041   0.003662
    14  H    0.401991   0.519338  -0.035880  -0.004709   0.000068   0.000009
    15  N    0.239285  -0.035880   6.934756   0.587577  -0.000060  -0.000119
    16  C   -0.069974  -0.004709   0.587577   4.699083   0.001670  -0.000218
    17  H   -0.000041   0.000068  -0.000060   0.001670   0.386606  -0.001837
    18  H    0.003662   0.000009  -0.000119  -0.000218  -0.001837   0.324302
    19  H   -0.006299   0.000065   0.006947   0.002555   0.000011  -0.000126
    20  H    0.003859  -0.000049   0.000078  -0.000031  -0.000001   0.002897
    21  H   -0.000375   0.000009  -0.000029   0.000002  -0.000000  -0.000000
    22  H    0.000320  -0.000044   0.000002  -0.000001   0.000000   0.000002
    23  H   -0.005839   0.000008   0.006746   0.000058   0.000000   0.000000
    24  H    0.004140  -0.000058   0.000045   0.000005   0.000000  -0.000000
    25  H   -0.034488  -0.002654   0.000720  -0.000062  -0.000000   0.000002
    26  H   -0.044796  -0.000915   0.004181  -0.000058   0.000000  -0.000001
    27  H    0.004911  -0.000177  -0.039734   0.402409  -0.000059   0.000002
              19         20         21         22         23         24
     1  O    0.000000   0.000000  -0.000000  -0.000000   0.000000   0.000000
     2  N    0.000000  -0.000000  -0.000000   0.000000  -0.000000   0.000000
     3  O    0.000000   0.000000   0.000000  -0.000000   0.000000   0.000000
     4  C   -0.000744  -0.000025   0.000000  -0.000000   0.000025   0.000000
     5  C    0.000632   0.000031   0.000001  -0.000002  -0.000000  -0.000000
     6  N    0.000677  -0.001759  -0.000059  -0.000098  -0.000024   0.000004
     7  C   -0.034991  -0.041629   0.004040  -0.004203   0.000423  -0.000141
     8  H    0.004105  -0.001861  -0.000081   0.003510   0.000034  -0.000098
     9  C    0.385875   0.397262  -0.035829  -0.045696  -0.002005   0.004395
    10  C   -0.032539  -0.037390   0.400151   0.395982  -0.040088  -0.038480
    11  C   -0.002275   0.004140  -0.035846  -0.045625   0.396708   0.400297
    12  C    0.000637  -0.000360   0.004209  -0.001232  -0.036638  -0.037870
    13  C   -0.006299   0.003859  -0.000375   0.000320  -0.005839   0.004140
    14  H    0.000065  -0.000049   0.000009  -0.000044   0.000008  -0.000058
    15  N    0.006947   0.000078  -0.000029   0.000002   0.006746   0.000045
    16  C    0.002555  -0.000031   0.000002  -0.000001   0.000058   0.000005
    17  H    0.000011  -0.000001  -0.000000   0.000000   0.000000   0.000000
    18  H   -0.000126   0.002897  -0.000000   0.000002   0.000000  -0.000000
    19  H    0.506934  -0.024043  -0.002595   0.003757   0.001641  -0.000069
    20  H   -0.024043   0.550247  -0.002612  -0.002969  -0.000049  -0.000090
    21  H   -0.002595  -0.002612   0.526104  -0.024697  -0.002814  -0.002058
    22  H    0.003757  -0.002969  -0.024697   0.568799   0.004061  -0.003597
    23  H    0.001641  -0.000049  -0.002814   0.004061   0.509681  -0.024996
    24  H   -0.000069  -0.000090  -0.002058  -0.003597  -0.024996   0.541029
    25  H   -0.000027   0.000011  -0.000086  -0.000082  -0.002096  -0.002378
    26  H    0.000023  -0.000035  -0.000074   0.002466   0.003821  -0.002770
    27  H    0.000075  -0.000000  -0.000000   0.000000  -0.000021  -0.000000
              25         26         27
     1  O    0.000000   0.000000   0.005090
     2  N   -0.000000  -0.000000  -0.000237
     3  O    0.000000   0.000000  -0.000003
     4  C    0.000019   0.000006  -0.066105
     5  C   -0.000001  -0.000001   0.002139
     6  N   -0.000071  -0.000067   0.000052
     7  C    0.004968  -0.004442  -0.000408
     8  H   -0.000004   0.001613   0.000009
     9  C   -0.000369   0.001035  -0.000059
    10  C    0.004097  -0.002398   0.000005
    11  C   -0.033947  -0.042317   0.000005
    12  C    0.395487   0.394721  -0.000019
    13  C   -0.034488  -0.044796   0.004911
    14  H   -0.002654  -0.000915  -0.000177
    15  N    0.000720   0.004181  -0.039734
    16  C   -0.000062  -0.000058   0.402409
    17  H   -0.000000   0.000000  -0.000059
    18  H    0.000002  -0.000001   0.000002
    19  H   -0.000027   0.000023   0.000075
    20  H    0.000011  -0.000035  -0.000000
    21  H   -0.000086  -0.000074  -0.000000
    22  H   -0.000082   0.002466   0.000000
    23  H   -0.002096   0.003821  -0.000021
    24  H   -0.002378  -0.002770  -0.000000
    25  H    0.510442  -0.023089  -0.000010
    26  H   -0.023089   0.560775   0.000001
    27  H   -0.000010   0.000001   0.453492
 Mulliken charges:
               1
     1  O   -0.456518
     2  N    0.504680
     3  O   -0.485160
     4  C   -0.023725
     5  C    0.198070
     6  N   -0.794406
     7  C    0.059980
     8  H    0.178660
     9  C   -0.311354
    10  C   -0.321183
    11  C   -0.315562
    12  C   -0.312288
    13  C   -0.028016
    14  H    0.195088
    15  N   -0.496139
    16  C    0.127863
    17  H    0.288332
    18  H    0.396910
    19  H    0.189775
    20  H    0.154379
    21  H    0.172638
    22  H    0.149345
    23  H    0.191364
    24  H    0.162689
    25  H    0.183616
    26  H    0.152320
    27  H    0.238641
 Sum of Mulliken charges =  -0.00000
 Mulliken charges with hydrogens summed into heavy atoms:
               1
     1  O   -0.456518
     2  N    0.504680
     3  O   -0.485160
     4  C   -0.023725
     5  C    0.486402
     6  N   -0.397496
     7  C    0.238641
     9  C    0.032800
    10  C    0.000800
    11  C    0.038491
    12  C    0.023648
    13  C    0.167073
    15  N   -0.496139
    16  C    0.366504
 Electronic spatial extent (au):  <R**2>=           3125.1237
 Charge=             -0.0000 electrons
 Dipole moment (field-independent basis, Debye):
    X=              5.3546    Y=              4.5071    Z=              0.4453  Tot=              7.0132
 Quadrupole moment (field-independent basis, Debye-Ang):
   XX=           -105.4346   YY=            -80.3055   ZZ=            -82.2276
   XY=             -1.9597   XZ=              1.1393   YZ=             -0.0004
 Traceless Quadrupole moment (field-independent basis, Debye-Ang):
   XX=            -16.1120   YY=              9.0171   ZZ=              7.0949
   XY=             -1.9597   XZ=              1.1393   YZ=             -0.0004
 Octapole moment (field-independent basis, Debye-Ang**2):
  XXX=            101.2215  YYY=             37.1101  ZZZ=             -5.7661  XYY=             -1.3044
  XXY=             12.0941  XXZ=             -1.6060  XZZ=             -8.3611  YZZ=             -2.8795
  YYZ=              0.4285  XYZ=             -1.4886
 Hexadecapole moment (field-independent basis, Debye-Ang**3):
 XXXX=          -3558.9467 YYYY=           -620.1906 ZZZZ=           -298.8247 XXXY=            -43.6855
 XXXZ=             35.0081 YYYX=            -22.8371 YYYZ=             10.9331 ZZZX=             25.5883
 ZZZY=              9.2189 XXYY=           -656.8379 XXZZ=           -543.4603 YYZZ=           -164.3954
 XXYZ=              2.3117 YYXZ=             11.7545 ZZXY=              2.0886
 N-N= 9.175387001711D+02 E-N=-3.381087409474D+03  KE= 6.588549365823D+02
 Calling FoFJK, ICntrl=  10002127 FMM=F ISym2X=0 I1Cent= 0 IOpClX= 0 NMat=1 NMatS=1 NMatT=0.
 -------------------------------------------------------------------
 Center     Atomic                   Forces (Hartrees/Bohr)
 Number     Number              X              Y              Z
 -------------------------------------------------------------------
      1        8           0.002474868   -0.019281941   -0.003322689
      2        7           0.039188295    0.014089717   -0.002086447
      3        8          -0.005329501    0.015735587    0.003739273
      4        6          -0.003196293    0.009251535    0.009443902
      5        6           0.003054706   -0.016937643   -0.005072003
      6        7           0.014810411   -0.010444366   -0.006253088
      7        6          -0.004662145    0.005208294    0.002862196
      8        1          -0.009974313   -0.001778937   -0.007675419
      9        6          -0.003981021    0.000113717   -0.002156272
     10        6           0.002851091   -0.000857006    0.001006480
     11        6          -0.001071847   -0.004635622   -0.002445142
     12        6           0.000852264   -0.008707860   -0.002844320
     13        6           0.008805323   -0.002245935    0.005188754
     14        1           0.000887749    0.004551440   -0.009787783
     15        7          -0.000008039    0.001665065    0.000363154
     16        6          -0.020627568    0.007383138    0.003569531
     17        1           0.007068300   -0.005877906   -0.006539341
     18        1          -0.017501829   -0.001680006    0.006385137
     19        1           0.003095110    0.005904456    0.007707114
     20        1          -0.003268898   -0.007331785    0.002600800
     21        1          -0.004401731    0.002409532    0.009598646
     22        1          -0.003956745   -0.003980758   -0.007421885
     23        1           0.003967847    0.006144041    0.009312628
     24        1          -0.009368189    0.002633075   -0.002165458
     25        1          -0.000753299    0.010590178   -0.002403571
     26        1          -0.004770714   -0.004812968   -0.004390621
     27        1           0.005816169    0.002892959    0.002786423
 -------------------------------------------------------------------
 Cartesian Forces:  Max     0.039188295 RMS     0.008393216

 GradGradGradGradGradGradGradGradGradGradGradGradGradGradGradGradGradGrad
 Berny optimization.
 FormGI is forming the generalized inverse of G from B-inverse, IUseBI=4.
 Internal  Forces:  Max     0.037713036 RMS     0.006877413
 Search for a local minimum.
 Step number   1 out of a maximum of   20
 All quantities printed in internal units (Hartrees-Bohrs-Radians)
 Mixed Optimization -- RFO/linear search
 Second derivative matrix not updated -- first step.
 ITU=  0
     Eigenvalues ---    0.00231   0.00769   0.01058   0.01146   0.01197
     Eigenvalues ---    0.01518   0.01563   0.01892   0.02007   0.02087
     Eigenvalues ---    0.02687   0.03661   0.04505   0.04694   0.04838
     Eigenvalues ---    0.05081   0.05138   0.05304   0.05890   0.06264
     Eigenvalues ---    0.07217   0.07700   0.07717   0.07855   0.07994
     Eigenvalues ---    0.08050   0.08059   0.10457   0.11730   0.12267
     Eigenvalues ---    0.13466   0.15183   0.15713   0.15989   0.16000
     Eigenvalues ---    0.20049   0.21911   0.23097   0.24977   0.25000
     Eigenvalues ---    0.25000   0.25324   0.26137   0.26650   0.27979
     Eigenvalues ---    0.28084   0.28453   0.29672   0.31461   0.31606
     Eigenvalues ---    0.32046   0.32237   0.32289   0.32380   0.32388
     Eigenvalues ---    0.32405   0.32515   0.32525   0.32580   0.33326
     Eigenvalues ---    0.33390   0.33599   0.35353   0.43882   0.44184
     Eigenvalues ---    0.49087   0.66959   0.90434   0.911651000.00000
     Eigenvalues --- 1000.000001000.000001000.000001000.000001000.00000
     Eigenvalues --- 1000.000001000.000001000.000001000.000001000.00000
     Eigenvalues --- 1000.000001000.000001000.000001000.000001000.00000
     Eigenvalues --- 1000.000001000.000001000.000001000.000001000.00000
     Eigenvalues --- 1000.000001000.000001000.000001000.000001000.00000
     Eigenvalues --- 1000.000001000.000001000.000001000.000001000.00000
     Eigenvalues --- 1000.000001000.000001000.000001000.000001000.00000
     Eigenvalues --- 1000.000001000.000001000.000001000.000001000.00000
     Eigenvalues --- 1000.000001000.000001000.000001000.000001000.00000
     Eigenvalues --- 1000.000001000.000001000.000001000.000001000.00000
     Eigenvalues --- 1000.000001000.000001000.000001000.000001000.00000
     Eigenvalues --- 1000.000001000.000001000.000001000.000001000.00000
     Eigenvalues --- 1000.000001000.000001000.000001000.000001000.00000
     Eigenvalues --- 1000.000001000.000001000.000001000.000001000.00000
     Eigenvalues --- 1000.000001000.000001000.000001000.000001000.00000
     Eigenvalues --- 1000.000001000.000001000.000001000.000001000.00000
     Eigenvalues --- 1000.000001000.000001000.000001000.000001000.00000
     Eigenvalues --- 1000.000001000.000001000.000001000.000001000.00000
     Eigenvalues --- 1000.00000
 RFO step:  Lambda=-2.36820843D-02 EMin= 2.30688887D-03
 Linear search not attempted -- first point.
 Iteration  1 RMS(Cart)=  0.05559940 RMS(Int)=  0.00103882
 Iteration  2 RMS(Cart)=  0.00113203 RMS(Int)=  0.00019882
 Iteration  3 RMS(Cart)=  0.00000092 RMS(Int)=  0.00019882
 Iteration  1 RMS(Cart)=  0.00002378 RMS(Int)=  0.00002297
 Iteration  2 RMS(Cart)=  0.00001366 RMS(Int)=  0.00002541
 Iteration  3 RMS(Cart)=  0.00000847 RMS(Int)=  0.00002881
 Iteration  4 RMS(Cart)=  0.00000564 RMS(Int)=  0.00003145
 Iteration  5 RMS(Cart)=  0.00000401 RMS(Int)=  0.00003333
 Iteration  6 RMS(Cart)=  0.00000304 RMS(Int)=  0.00003466
 Iteration  7 RMS(Cart)=  0.00000243 RMS(Int)=  0.00003562
 Iteration  8 RMS(Cart)=  0.00000200 RMS(Int)=  0.00003634
 Iteration  9 RMS(Cart)=  0.00000168 RMS(Int)=  0.00003688
 Iteration 10 RMS(Cart)=  0.00000143 RMS(Int)=  0.00003731
 Iteration 11 RMS(Cart)=  0.00000122 RMS(Int)=  0.00003765
 Iteration 12 RMS(Cart)=  0.00000104 RMS(Int)=  0.00003793
 Iteration 13 RMS(Cart)=  0.00000089 RMS(Int)=  0.00003816
 Variable       Old X    -DE/DX   Delta X   Delta X   Delta X     New X
                                 (Linear)    (Quad)   (Total)
    R1        2.32401   0.01800   0.00000   0.01924   0.01924   2.34325
    R2        2.32734   0.01586   0.00000   0.01710   0.01710   2.34443
    R3        2.88623  -0.03771   0.00000  -0.11771  -0.11771   2.76853
    R4        2.64499  -0.03499   0.00000  -0.07537  -0.07516   2.56983
    R5        2.80921  -0.02138   0.00000  -0.06119  -0.06100   2.74820
    R6        2.59097  -0.02433   0.00000  -0.04708  -0.04698   2.54399
    R7        2.08372  -0.01035   0.00000  -0.02895  -0.02895   2.05476
    R8        2.82506  -0.01945   0.00000  -0.05416  -0.05423   2.77082
    R9        1.93296  -0.00667   0.00000  -0.01442  -0.01442   1.91854
   R10        2.11842  -0.01185   0.00000  -0.03503  -0.03503   2.08339
   R11        2.92736  -0.01301   0.00000  -0.04437  -0.04439   2.88297
   R12        2.90322  -0.00463   0.00000  -0.01005  -0.01006   2.89317
   R13        2.91135  -0.00464   0.00000  -0.01435  -0.01437   2.89698
   R14        2.09912  -0.00998   0.00000  -0.02860  -0.02860   2.07052
   R15        2.09894  -0.00802   0.00000  -0.02298  -0.02298   2.07597
   R16        2.90429  -0.00185   0.00000  -0.00716  -0.00721   2.89707
   R17        2.10140  -0.01058   0.00000  -0.03043  -0.03043   2.07096
   R18        2.10318  -0.00901   0.00000  -0.02600  -0.02600   2.07717
   R19        2.91771  -0.00906   0.00000  -0.02867  -0.02866   2.88906
   R20        2.10413  -0.01169   0.00000  -0.03378  -0.03378   2.07035
   R21        2.10109  -0.00995   0.00000  -0.02860  -0.02860   2.07249
   R22        2.93531  -0.01055   0.00000  -0.03636  -0.03634   2.89897
   R23        2.10155  -0.01073   0.00000  -0.03087  -0.03087   2.07068
   R24        2.09796  -0.00787   0.00000  -0.02251  -0.02251   2.07545
   R25        2.10760  -0.00909   0.00000  -0.02642  -0.02642   2.08119
   R26        2.76817  -0.00522   0.00000  -0.01087  -0.01116   2.75701
   R27        2.44283  -0.00608   0.00000  -0.00825  -0.00830   2.43453
   R28        2.08013  -0.00621   0.00000  -0.01726  -0.01726   2.06286
    A1        2.15884   0.01096   0.00000   0.04017   0.03998   2.19883
    A2        2.05355  -0.00778   0.00000  -0.02829  -0.02847   2.02508
    A3        2.07070  -0.00317   0.00000  -0.01145  -0.01163   2.05907
    A4        2.03372  -0.00725   0.00000  -0.02426  -0.02450   2.00922
    A5        2.03414  -0.00313   0.00000  -0.00922  -0.00949   2.02465
    A6        2.21443   0.01033   0.00000   0.03251   0.03277   2.24720
    A7        2.19932   0.00602   0.00000   0.01962   0.01985   2.21918
    A8        2.06455  -0.00324   0.00000  -0.01074  -0.01098   2.05357
    A9        2.01827  -0.00273   0.00000  -0.00785  -0.00810   2.01017
   A10        2.25254  -0.00536   0.00000  -0.01806  -0.01810   2.23444
   A11        2.11686  -0.01253   0.00000  -0.07212  -0.07245   2.04441
   A12        1.87622   0.01809   0.00000   0.09718   0.09730   1.97352
   A13        1.83776  -0.00152   0.00000  -0.01725  -0.01707   1.82070
   A14        2.00662  -0.00118   0.00000  -0.01215  -0.01220   1.99443
   A15        1.96761   0.00102   0.00000   0.00103   0.00062   1.96823
   A16        1.85178   0.00267   0.00000   0.02409   0.02393   1.87571
   A17        1.84889   0.00076   0.00000   0.01742   0.01725   1.86614
   A18        1.93708  -0.00142   0.00000  -0.00894  -0.00866   1.92842
   A19        1.91030   0.00012   0.00000  -0.00489  -0.00502   1.90528
   A20        1.92260  -0.00073   0.00000  -0.01278  -0.01275   1.90985
   A21        1.92283  -0.00164   0.00000  -0.00716  -0.00715   1.91568
   A22        1.91921  -0.00038   0.00000   0.00585   0.00581   1.92502
   A23        1.90436   0.00305   0.00000   0.02438   0.02439   1.92874
   A24        1.88434  -0.00039   0.00000  -0.00497  -0.00523   1.87912
   A25        1.94047  -0.00088   0.00000   0.00551   0.00539   1.94586
   A26        1.91897  -0.00070   0.00000  -0.00677  -0.00679   1.91218
   A27        1.90497   0.00032   0.00000  -0.00295  -0.00301   1.90196
   A28        1.91612   0.00081   0.00000   0.00718   0.00722   1.92334
   A29        1.89848   0.00170   0.00000   0.01110   0.01113   1.90961
   A30        1.88379  -0.00123   0.00000  -0.01454  -0.01463   1.86916
   A31        1.94473   0.00061   0.00000   0.00483   0.00497   1.94970
   A32        1.90235   0.00062   0.00000   0.00595   0.00588   1.90823
   A33        1.91750   0.00039   0.00000   0.00528   0.00525   1.92276
   A34        1.90646  -0.00110   0.00000  -0.01393  -0.01398   1.89248
   A35        1.91538  -0.00048   0.00000   0.00011   0.00002   1.91540
   A36        1.87604  -0.00007   0.00000  -0.00259  -0.00262   1.87342
   A37        1.94825  -0.00295   0.00000  -0.01787  -0.01792   1.93033
   A38        1.90590   0.00253   0.00000   0.01704   0.01689   1.92279
   A39        1.91058   0.00139   0.00000   0.01304   0.01304   1.92362
   A40        1.90606   0.00018   0.00000  -0.00292  -0.00275   1.90330
   A41        1.91123  -0.00021   0.00000  -0.00486  -0.00481   1.90642
   A42        1.88056  -0.00087   0.00000  -0.00395  -0.00414   1.87643
   A43        1.84667   0.00453   0.00000   0.02332   0.02339   1.87006
   A44        1.93924  -0.00431   0.00000  -0.03190  -0.03229   1.90694
   A45        1.98176   0.00074   0.00000   0.01211   0.01226   1.99402
   A46        1.88020   0.00223   0.00000   0.03020   0.03050   1.91070
   A47        1.89211  -0.00381   0.00000  -0.02825  -0.02831   1.86379
   A48        1.91924   0.00083   0.00000  -0.00319  -0.00303   1.91621
   A49        2.08163  -0.00617   0.00000  -0.01331  -0.01384   2.06779
   A50        2.24959  -0.00485   0.00000  -0.01972  -0.01965   2.22994
   A51        1.97869   0.00581   0.00000   0.02825   0.02814   2.00684
   A52        2.05490  -0.00095   0.00000  -0.00852  -0.00863   2.04627
    D1       -3.03980  -0.00079   0.00000  -0.02196  -0.02143  -3.06123
    D2        0.14414   0.00028   0.00000   0.00000  -0.00000   0.14414
    D3        0.11562  -0.00171   0.00000  -0.05602  -0.05575   0.05986
    D4       -2.98363  -0.00063   0.00000  -0.03406  -0.03432  -3.01795
    D5        3.07317   0.00046   0.00000   0.01265   0.01264   3.08581
    D6       -0.01710  -0.00056   0.00000  -0.01237  -0.01243  -0.02953
    D7       -0.11578  -0.00118   0.00000  -0.01329  -0.01352  -0.12930
    D8        3.07714  -0.00220   0.00000  -0.03831  -0.03859   3.03855
    D9       -2.68096  -0.00207   0.00000  -0.04520  -0.04555  -2.72651
   D10        0.46012   0.00003   0.00000  -0.02630  -0.02670   0.43342
   D11        0.50800  -0.00033   0.00000  -0.01890  -0.01885   0.48915
   D12       -2.63411   0.00177   0.00000   0.00000  -0.00000  -2.63411
   D13       -0.14483  -0.00006   0.00000   0.02217   0.02249  -0.12234
   D14        2.66768   0.00380   0.00000   0.06803   0.06716   2.73484
   D15        2.94663   0.00092   0.00000   0.04651   0.04693   2.99355
   D16       -0.52405   0.00478   0.00000   0.09236   0.09159  -0.43245
   D17       -2.46705  -0.00074   0.00000  -0.02054  -0.02017  -2.48722
   D18        1.78473  -0.00238   0.00000  -0.03226  -0.03191   1.75283
   D19       -0.45929  -0.00023   0.00000  -0.00942  -0.00939  -0.46867
   D20        0.96833  -0.00013   0.00000  -0.03863  -0.03909   0.92924
   D21       -1.06307  -0.00177   0.00000  -0.05035  -0.05082  -1.11390
   D22        2.97609   0.00039   0.00000  -0.02751  -0.02830   2.94779
   D23        2.94417   0.00233   0.00000   0.02537   0.02526   2.96943
   D24       -1.22682   0.00148   0.00000   0.02141   0.02130  -1.20551
   D25        0.85018  -0.00048   0.00000   0.00284   0.00281   0.85299
   D26        0.92078   0.00310   0.00000   0.03741   0.03741   0.95820
   D27        3.03298   0.00225   0.00000   0.03345   0.03346   3.06644
   D28       -1.17320   0.00029   0.00000   0.01488   0.01497  -1.15824
   D29       -1.07987   0.00143   0.00000   0.00793   0.00792  -1.07195
   D30        1.03233   0.00057   0.00000   0.00396   0.00397   1.03629
   D31        3.10933  -0.00139   0.00000  -0.01461  -0.01453   3.09480
   D32       -2.90077  -0.00108   0.00000  -0.01264  -0.01242  -2.91318
   D33       -0.86486   0.00197   0.00000   0.02032   0.02016  -0.84470
   D34        1.30937   0.00022   0.00000   0.00000  -0.00001   1.30936
   D35       -0.89972  -0.00193   0.00000  -0.02244  -0.02233  -0.92205
   D36        1.13618   0.00111   0.00000   0.01052   0.01025   1.14643
   D37       -2.97277  -0.00063   0.00000  -0.00980  -0.00992  -2.98269
   D38        1.10274   0.00093   0.00000   0.01120   0.01130   1.11404
   D39        3.13864   0.00397   0.00000   0.04416   0.04388  -3.10066
   D40       -0.97031   0.00223   0.00000   0.02384   0.02371  -0.94660
   D41        0.95666   0.00064   0.00000   0.00000   0.00001   0.95666
   D42        3.08234   0.00059   0.00000   0.00813   0.00809   3.09042
   D43       -1.13763  -0.00112   0.00000  -0.01531  -0.01528  -1.15291
   D44       -1.15759   0.00170   0.00000   0.01523   0.01530  -1.14229
   D45        0.96808   0.00165   0.00000   0.02336   0.02338   0.99147
   D46        3.03130  -0.00006   0.00000  -0.00008   0.00002   3.03132
   D47        3.06193   0.00058   0.00000   0.00325   0.00321   3.06514
   D48       -1.09558   0.00053   0.00000   0.01138   0.01129  -1.08429
   D49        0.96764  -0.00118   0.00000  -0.01206  -0.01207   0.95556
   D50       -0.92193  -0.00082   0.00000   0.00000   0.00001  -0.92192
   D51        1.18327  -0.00140   0.00000  -0.01039  -0.01041   1.17286
   D52       -3.04850  -0.00089   0.00000  -0.00699  -0.00703  -3.05554
   D53       -3.04926   0.00011   0.00000   0.00000   0.00002  -3.04924
   D54       -0.94407  -0.00047   0.00000  -0.01039  -0.01039  -0.95446
   D55        1.10735   0.00004   0.00000  -0.00699  -0.00702   1.10033
   D56        1.17621   0.00013   0.00000   0.00693   0.00697   1.18318
   D57       -3.00178  -0.00045   0.00000  -0.00346  -0.00345  -3.00523
   D58       -0.95037   0.00006   0.00000  -0.00006  -0.00007  -0.95044
   D59        0.98763  -0.00082   0.00000  -0.01176  -0.01181   0.97582
   D60        3.09692  -0.00079   0.00000  -0.01549  -0.01565   3.08127
   D61       -1.13131   0.00044   0.00000  -0.00278  -0.00276  -1.13407
   D62       -1.11514  -0.00126   0.00000  -0.01304  -0.01304  -1.12818
   D63        0.99414  -0.00122   0.00000  -0.01678  -0.01688   0.97726
   D64        3.04910   0.00000   0.00000  -0.00407  -0.00399   3.04511
   D65        3.11544  -0.00025   0.00000  -0.00179  -0.00179   3.11366
   D66       -1.05846  -0.00021   0.00000  -0.00552  -0.00563  -1.06408
   D67        0.99650   0.00101   0.00000   0.00719   0.00726   1.00376
   D68       -1.05178   0.00006   0.00000  -0.00016  -0.00008  -1.05186
   D69       -3.12720   0.00160   0.00000   0.00966   0.00929  -3.11790
   D70        1.07975   0.00146   0.00000   0.01215   0.01202   1.09177
   D71        3.12221  -0.00134   0.00000  -0.00807  -0.00790   3.11431
   D72        1.04679   0.00020   0.00000   0.00176   0.00147   1.04827
   D73       -1.02944   0.00006   0.00000   0.00425   0.00420  -1.02524
   D74        1.06679  -0.00027   0.00000   0.00123   0.00143   1.06822
   D75       -1.00863   0.00127   0.00000   0.01106   0.01081  -0.99782
   D76       -3.08486   0.00113   0.00000   0.01355   0.01353  -3.07133
   D77       -1.17216   0.00361   0.00000   0.00000  -0.00001  -1.17217
   D78        3.06425   0.00005   0.00000  -0.01758  -0.01745   3.04681
   D79        1.01282  -0.00088   0.00000  -0.03567  -0.03593   0.97689
   D80        0.11866   0.00222   0.00000   0.02487   0.02455   0.14321
   D81       -3.02240   0.00003   0.00000   0.00526   0.00532  -3.01708
         Item               Value     Threshold  Converged?
 Maximum Force            0.037713     0.000450     NO 
 RMS     Force            0.006973     0.000300     NO 
 Maximum Displacement     0.288882     0.001800     NO 
 RMS     Displacement     0.055701     0.001200     NO 
 Predicted change in Energy=-1.322718D-02
 GradGradGradGradGradGradGradGradGradGradGradGradGradGradGradGradGradGrad

                          Input orientation:                          
 ---------------------------------------------------------------------
 Center     Atomic      Atomic             Coordinates (Angstroms)
 Number     Number       Type             X           Y           Z
 ---------------------------------------------------------------------
      1          8           0       -3.475654   -1.430825   -0.209022
      2          7           0       -3.127675   -0.254331   -0.029133
      3          8           0       -3.885150    0.706803    0.174804
      4          6           0       -1.684432   -0.002630   -0.035602
      5          6           0       -1.319674    1.273616    0.260149
      6          7           0       -0.067944    1.754231    0.380530
      7          6           0        1.192579    1.005430    0.363552
      8          1           0        1.823341    1.516438    1.109529
      9          6           0        1.931750    1.051965   -0.970212
     10          6           0        3.330883    0.451474   -0.791412
     11          6           0        3.264268   -0.961510   -0.200374
     12          6           0        2.436047   -0.998746    1.084134
     13          6           0        1.028483   -0.441860    0.835121
     14          1           0        0.456739   -0.454647    1.776316
     15          7           0        0.393756   -1.321607   -0.140424
     16          6           0       -0.844079   -1.120232   -0.435253
     17          1           0       -2.111900    1.995025    0.445196
     18          1           0        0.060108    2.752040    0.243736
     19          1           0        1.367815    0.485166   -1.719352
     20          1           0        2.000700    2.090864   -1.320578
     21          1           0        3.848669    0.433681   -1.757121
     22          1           0        3.915339    1.099763   -0.123310
     23          1           0        2.804140   -1.638104   -0.928933
     24          1           0        4.275560   -1.335632   -0.000120
     25          1           0        2.353759   -2.028021    1.450877
     26          1           0        2.925784   -0.406516    1.868765
     27          1           0       -1.332203   -1.858846   -1.073861
 ---------------------------------------------------------------------
                    Distance matrix (angstroms):
                    1          2          3          4          5
     1  O    0.000000
     2  N    1.239994   0.000000
     3  O    2.210082   1.240621   0.000000
     4  C    2.297453   1.465040   2.321794   0.000000
     5  C    3.490324   2.384779   2.628731   1.359897   0.000000
     6  N    4.701557   3.682947   3.963646   2.423378   1.346221
     7  C    5.296751   4.517277   5.090004   3.074525   2.528642
     8  H    6.205182   5.380031   5.840899   3.990410   3.264806
     9  C    5.998639   5.309408   5.938563   3.881036   3.483487
    10  C    7.085984   6.541575   7.284910   5.092234   4.838324
    11  C    6.756247   6.433223   7.351069   5.043435   5.120586
    12  C    6.066889   5.722632   6.610092   4.384564   4.466321
    13  C    4.728164   4.249205   5.089129   2.882879   2.964337
    14  H    4.512006   4.018431   4.771353   2.841123   2.905391
    15  N    3.871559   3.681296   4.745826   2.463647   3.135520
    16  C    2.659480   2.475788   3.599770   1.454287   2.537771
    17  H    3.744899   2.513242   2.208402   2.098695   1.087334
    18  H    5.495722   4.390294   4.444413   3.272561   2.022327
    19  H    5.423219   4.859334   5.588434   3.519826   3.429676
    20  H    6.605172   5.785153   6.228565   4.428779   3.767158
    21  H    7.714836   7.220019   7.976145   5.811128   5.611296
    22  H    7.812682   7.172620   7.816068   5.707924   5.251917
    23  H    6.324322   6.157182   7.173802   4.860052   5.186316
    24  H    7.754612   7.481840   8.414234   6.107345   6.179204
    25  H    6.090481   5.948321   6.930485   4.755925   5.080625
    26  H    6.807703   6.345829   7.106182   5.004382   4.840910
    27  H    2.350645   2.624813   3.828742   2.155826   3.404711
                    6          7          8          9         10
     6  N    0.000000
     7  C    1.466257   0.000000
     8  H    2.040820   1.102484   0.000000
     9  C    2.513257   1.525604   2.133732   0.000000
    10  C    3.823958   2.492620   2.649605   1.533014   0.000000
    11  C    4.337780   2.911831   3.151562   2.534233   1.533065
    12  C    3.787336   2.466205   2.588861   2.946196   2.534076
    13  C    2.496322   1.530997   2.131204   2.511301   2.957145
    14  H    2.665080   2.160830   2.489454   3.462507   3.959165
    15  N    3.153624   2.511416   3.414761   2.947511   3.492037
    16  C    3.087139   3.050328   4.056293   3.565087   4.475201
    17  H    2.059107   3.450442   4.019516   4.386782   5.790997
    18  H    1.015250   2.085064   2.320625   2.804812   4.130630
    19  H    2.842787   2.154036   3.045257   1.095670   2.171600
    20  H    2.699330   2.160445   2.503366   1.098555   2.176466
    21  H    4.653307   3.446588   3.673145   2.162424   1.095907
    22  H    4.068013   2.767554   2.463730   2.157349   1.099194
    23  H    4.633735   3.354984   3.881807   2.828292   2.159330
    24  H    5.343985   3.888135   3.921606   3.483553   2.170784
    25  H    4.616895   3.425265   3.600146   3.940314   3.482891
    26  H    3.980714   2.695043   2.342984   3.342912   2.824321
    27  H    4.094866   4.079798   5.110498   4.374580   5.211691
                   11         12         13         14         15
    11  C    0.000000
    12  C    1.528823   0.000000
    13  C    2.518139   1.534068   0.000000
    14  H    3.470797   2.166292   1.101318   0.000000
    15  N    2.893631   2.403067   1.458945   2.104632   0.000000
    16  C    4.118116   3.616977   2.362314   2.650692   1.288298
    17  H    6.169364   5.482219   3.994053   3.790868   4.197775
    18  H    4.924868   4.518821   3.389467   3.576165   4.105302
    19  H    2.827844   3.347036   2.738587   3.732693   2.589640
    20  H    3.488330   3.939271   3.465103   4.295834   3.952214
    21  H    2.170609   3.481390   3.929344   4.977900   4.198949
    22  H    2.163025   2.837246   3.410151   4.241071   4.273742
    23  H    1.095580   2.143994   2.774139   3.772166   2.555752
    24  H    1.096713   2.161691   3.469865   4.302935   3.884364
    25  H    2.166357   1.095755   2.156715   2.485981   2.621615
    26  H    2.168853   1.098282   2.160884   2.471245   3.359374
    27  H    4.764004   4.426784   3.350358   3.646312   2.034420
                   16         17         18         19         20
    16  C    0.000000
    17  H    3.476692   0.000000
    18  H    4.033990   2.308956   0.000000
    19  H    3.019717   4.367306   3.271472   0.000000
    20  H    4.380378   4.476676   2.578784   1.771392   0.000000
    21  H    5.117018   6.543423   4.871490   2.481676   2.520281
    22  H    5.260964   6.119829   4.210409   3.068380   2.466085
    23  H    3.717717   6.265406   5.308317   2.682549   3.834593
    24  H    5.142610   7.217425   5.876951   3.837453   4.319661
    25  H    3.822007   6.094129   5.437555   4.163958   4.977030
    26  H    4.475462   5.759533   4.563912   4.012100   4.155069
    27  H    1.091620   4.215185   4.993482   3.633338   5.173907
                   21         22         23         24         25
    21  H    0.000000
    22  H    1.765630   0.000000
    23  H    2.463580   3.062630   0.000000
    24  H    2.529773   2.464971   1.766142   0.000000
    25  H    4.311146   3.834009   2.453237   2.505616   0.000000
    26  H    3.834670   2.686346   3.059202   2.485534   1.769497
    27  H    5.706484   6.098656   4.144764   5.733557   4.470932
                   26         27
    26  H    0.000000
    27  H    5.375757   0.000000
 Symmetry turned off by external request.
 Stoichiometry    C9H13N3O2
 Framework group  C1[X(C9H13N3O2)]
 Deg. of freedom    75
 Full point group                 C1      NOp   1
 Rotational constants (GHZ):           1.6888395           0.4216950           0.3721710
 Standard basis: 6-31G(d) (6D, 7F)
   236 basis functions,   444 primitive gaussians,   236 cartesian basis functions
    52 alpha electrons       52 beta electrons
       nuclear repulsion energy       932.1677345773 Hartrees.
 NAtoms=   27 NActive=   27 NUniq=   27 SFac= 1.00D+00 NAtFMM=   60 NAOKFM=F Big=F
 Integral buffers will be    131072 words long.
 Raffenetti 1 integral format.
 Two-electron integral symmetry is turned off.
 One-electron integrals computed using PRISM.
 NBasis=   236 RedAO= T EigKep=  1.01D-03  NBF=   236
 NBsUse=   236 1.00D-06 EigRej= -1.00D+00 NBFU=   236
 Initial guess from the checkpoint file:  "/home/alexey/tmp/Gau-1494815.chk"
 B after Tr=     0.055461    0.006900   -0.002655
         Rot=    0.999998   -0.001232    0.000902    0.001255 Ang=  -0.23 deg.
 ExpMin= 1.61D-01 ExpMax= 5.48D+03 ExpMxC= 8.25D+02 IAcc=3 IRadAn=         5 AccDes= 0.00D+00
 Harris functional with IExCor=  205 and IRadAn=       5 diagonalized for initial guess.
 HarFok:  IExCor=  205 AccDes= 0.00D+00 IRadAn=         5 IDoV= 1 UseB2=F ITyADJ=14
 ICtDFT=  3500011 ScaDFX=  1.000000  1.000000  1.000000  1.000000
 FoFCou: FMM=F IPFlag=           0 FMFlag=      100000 FMFlg1=           0
         NFxFlg=           0 DoJE=T BraDBF=F KetDBF=T FulRan=T
         wScrn=  0.000000 ICntrl=       500 IOpCl=  0 I1Cent=   200000004 NGrid=           0
         NMat0=    1 NMatS0=      1 NMatT0=    0 NMatD0=    1 NMtDS0=    0 NMtDT0=    0
 Symmetry not used in FoFCou.
 Keep R1 ints in memory in canonical form, NReq=397720213.
 Requested convergence on RMS density matrix=1.00D-08 within 128 cycles.
 Requested convergence on MAX density matrix=1.00D-06.
 Requested convergence on             energy=1.00D-06.
 No special actions if energy rises.
 SCF Done:  E(RHF) =  -661.298040016     A.U. after   15 cycles
            NFock= 15  Conv=0.37D-08     -V/T= 2.0024
 ExpMin= 1.61D-01 ExpMax= 5.48D+03 ExpMxC= 8.25D+02 IAcc=3 IRadAn=         5 AccDes= 0.00D+00
 HarFok:  IExCor=  205 AccDes= 0.00D+00 IRadAn=         5 IDoV=-2 UseB2=F ITyADJ=14
 ICtDFT= 12500011 ScaDFX=  1.000000  1.000000  1.000000  1.000000
 Range of M.O.s used for correlation:    15   236
 NBasis=   236 NAE=    52 NBE=    52 NFC=    14 NFV=     0
 NROrb=    222 NOA=    38 NOB=    38 NVA=   184 NVB=   184
 Fully direct method using O(ONN) memory.
 JobTyp=1 Pass  1:  I=  15 to  52 NPSUse=  4 ParTrn=T ParDer=T DoDerP=T.
 Spin components of T(2) and E(2):
     alpha-alpha T2 =       0.9123974256D-01 E2=     -0.2723191846D+00
     alpha-beta  T2 =       0.4912886666D+00 E2=     -0.1488042220D+01
     beta-beta   T2 =       0.9123974256D-01 E2=     -0.2723191846D+00
 ANorm=    0.1293741919D+01
 E2 =    -0.2032680589D+01 EUMP2 =    -0.66333072060471D+03
          IDoAtm=111111111111111111111111111
          Differentiating once with respect to electric field.
                with respect to dipole field.
          Differentiating once with respect to nuclear coordinates.
 Keep R1 ints in memory in canonical form, NReq=397723379.
          There are     1 degrees of freedom in the 1st order CPHF.  IDoFFX=0 NUNeed=     1.
 LinEq1:  Iter=  0 NonCon=     1 RMS=4.57D-03 Max=1.05D-01 NDo=     1
 AX will form     1 AO Fock derivatives at one time.
 LinEq1:  Iter=  1 NonCon=     1 RMS=1.53D-03 Max=2.71D-02 NDo=     1
 LinEq1:  Iter=  2 NonCon=     1 RMS=6.41D-04 Max=1.78D-02 NDo=     1
 LinEq1:  Iter=  3 NonCon=     1 RMS=2.80D-04 Max=8.18D-03 NDo=     1
 LinEq1:  Iter=  4 NonCon=     1 RMS=8.70D-05 Max=1.93D-03 NDo=     1
 LinEq1:  Iter=  5 NonCon=     1 RMS=3.63D-05 Max=1.79D-03 NDo=     1
 LinEq1:  Iter=  6 NonCon=     1 RMS=1.41D-05 Max=5.33D-04 NDo=     1
[...]
    26  H    2.175727   1.098801   2.167048   2.497187   3.362810
    27  H    4.724041   4.418594   3.356644   3.656575   2.029356
                   16         17         18         19         20
    16  C    0.000000
    17  H    3.463963   0.000000
    18  H    4.088430   2.235904   0.000000
    19  H    2.990818   4.303418   3.511815   0.000000
    20  H    4.375288   4.449311   2.881894   1.768550   0.000000
    21  H    5.096675   6.511280   5.086428   2.499198   2.521023
    22  H    5.248818   6.100590   4.313208   3.070237   2.461460
    23  H    3.695048   6.235075   5.421193   2.704219   3.842942
    24  H    5.133870   7.200944   5.936693   3.849645   4.317141
    25  H    3.821466   6.088398   5.369813   4.171529   4.985111
    26  H    4.495224   5.781360   4.485372   4.036049   4.182381
    27  H    1.089677   4.215428   5.079479   3.583499   5.148112
                   21         22         23         24         25
    21  H    0.000000
    22  H    1.758869   0.000000
    23  H    2.469458   3.062298   0.000000
    24  H    2.517359   2.459917   1.764589   0.000000
    25  H    4.312013   3.839562   2.444068   2.519674   0.000000
    26  H    3.846758   2.704443   3.060424   2.491719   1.767993
    27  H    5.653076   6.060543   4.090446   5.694746   4.454313
                   26         27
    26  H    0.000000
    27  H    5.378468   0.000000
 Symmetry turned off by external request.
 Stoichiometry    C9H13N3O2
 Framework group  C1[X(C9H13N3O2)]
 Deg. of freedom    75
 Full point group                 C1      NOp   1
 Rotational constants (GHZ):           1.6800126           0.4193389           0.3721359

 **********************************************************************

            Population analysis using the SCF Density.

 **********************************************************************

 Alpha  occ. eigenvalues --  -20.59237 -20.58904 -15.84723 -15.64136 -15.56112
 Alpha  occ. eigenvalues --  -11.35018 -11.29622 -11.29559 -11.28628 -11.27134
 Alpha  occ. eigenvalues --  -11.23728 -11.23208 -11.22692 -11.22089  -1.57116
 Alpha  occ. eigenvalues --   -1.36710  -1.30977  -1.23065  -1.14702  -1.09818
 Alpha  occ. eigenvalues --   -1.02805  -1.01307  -0.94481  -0.89685  -0.85565
 Alpha  occ. eigenvalues --   -0.82448  -0.78609  -0.77411  -0.75202  -0.72020
 Alpha  occ. eigenvalues --   -0.69771  -0.69438  -0.67820  -0.64892  -0.63777
 Alpha  occ. eigenvalues --   -0.62367  -0.60282  -0.57700  -0.57001  -0.55077
 Alpha  occ. eigenvalues --   -0.54582  -0.50761  -0.50108  -0.48656  -0.48102
 Alpha  occ. eigenvalues --   -0.47372  -0.46146  -0.46044  -0.43678  -0.41695
 Alpha  occ. eigenvalues --   -0.39848  -0.33829
 Alpha virt. eigenvalues --    0.07465   0.11799   0.17307   0.21848   0.24113
 Alpha virt. eigenvalues --    0.25664   0.27134   0.28694   0.29044   0.29635
 Alpha virt. eigenvalues --    0.30682   0.31798   0.32036   0.32767   0.33950
 Alpha virt. eigenvalues --    0.34386   0.35850   0.37312   0.38581   0.40291
 Alpha virt. eigenvalues --    0.41386   0.42443   0.45025   0.46117   0.46730
 Alpha virt. eigenvalues --    0.47077   0.49001   0.53995   0.57579   0.59406
 Alpha virt. eigenvalues --    0.63912   0.69543   0.69909   0.72861   0.74243
 Alpha virt. eigenvalues --    0.74867   0.75781   0.76676   0.78660   0.79442
 Alpha virt. eigenvalues --    0.81386   0.84692   0.85718   0.85806   0.88530
 Alpha virt. eigenvalues --    0.89424   0.91052   0.92113   0.92854   0.94527
 Alpha virt. eigenvalues --    0.95642   0.98039   0.99638   1.01675   1.02471
 Alpha virt. eigenvalues --    1.03152   1.05872   1.06969   1.07901   1.09014
 Alpha virt. eigenvalues --    1.10283   1.11420   1.11855   1.12443   1.13916
 Alpha virt. eigenvalues --    1.14765   1.14990   1.15832   1.16903   1.18726
 Alpha virt. eigenvalues --    1.19136   1.21337   1.22576   1.23915   1.24536
 Alpha virt. eigenvalues --    1.24827   1.26039   1.26910   1.27485   1.29557
 Alpha virt. eigenvalues --    1.30007   1.33127   1.36069   1.37181   1.40860
 Alpha virt. eigenvalues --    1.41853   1.46494   1.48741   1.51701   1.54292
 Alpha virt. eigenvalues --    1.56374   1.58779   1.59554   1.63464   1.65625
 Alpha virt. eigenvalues --    1.68031   1.68625   1.72991   1.75223   1.77372
 Alpha virt. eigenvalues --    1.81577   1.84600   1.87683   1.90651   1.93494
 Alpha virt. eigenvalues --    1.95814   1.96955   1.99718   2.01570   2.02522
 Alpha virt. eigenvalues --    2.05102   2.05604   2.08495   2.09558   2.12395
 Alpha virt. eigenvalues --    2.13263   2.15296   2.18824   2.20013   2.22451
 Alpha virt. eigenvalues --    2.22637   2.24491   2.25492   2.28215   2.29548
 Alpha virt. eigenvalues --    2.31993   2.33724   2.34701   2.36399   2.38463
 Alpha virt. eigenvalues --    2.40482   2.41928   2.43868   2.45135   2.47362
 Alpha virt. eigenvalues --    2.50720   2.51947   2.53114   2.55573   2.61502
 Alpha virt. eigenvalues --    2.62309   2.65192   2.67626   2.70315   2.70495
 Alpha virt. eigenvalues --    2.72270   2.72648   2.76982   2.78439   2.83803
 Alpha virt. eigenvalues --    2.88566   2.88949   2.92944   2.93135   2.96057
 Alpha virt. eigenvalues --    2.99439   3.01343   3.04314   3.05724   3.07675
 Alpha virt. eigenvalues --    3.09415   3.15047   3.21211   3.25216   3.27458
 Alpha virt. eigenvalues --    3.33447   3.37784   3.38783   3.52160   3.65798
 Alpha virt. eigenvalues --    4.13674   4.28070   4.34717   4.38920   4.46296
 Alpha virt. eigenvalues --    4.56305   4.61871   4.62352   4.73465   4.79738
 Alpha virt. eigenvalues --    4.99415   5.00898   5.05023   5.11164
          Condensed to atoms (all electrons):
               1          2          3          4          5          6
     1  O    8.316106   0.306961  -0.082545  -0.085465   0.004639  -0.000016
     2  N    0.306961   5.722332   0.301248   0.264176  -0.053643   0.000969
     3  O   -0.082545   0.301248   8.353627  -0.092651   0.003638   0.000784
     4  C   -0.085465   0.264176  -0.092651   5.225613   0.560343  -0.047283
     5  C    0.004639  -0.053643   0.003638   0.560343   4.709988   0.317424
     6  N   -0.000016   0.000969   0.000784  -0.047283   0.317424   7.195583
     7  C    0.000004  -0.000140   0.000002   0.004630  -0.030206   0.169268
     8  H   -0.000000   0.000002  -0.000000  -0.000261   0.003095  -0.050674
     9  C   -0.000000  -0.000004  -0.000000   0.000855   0.000627  -0.061663
    10  C    0.000000   0.000000   0.000000  -0.000038  -0.000052   0.003749
    11  C   -0.000000  -0.000000  -0.000000  -0.000028   0.000025  -0.000190
    12  C   -0.000000   0.000002  -0.000000  -0.000127  -0.000176   0.003873
    13  C   -0.000025  -0.000039  -0.000004  -0.011558  -0.000584  -0.047687
    14  H   -0.000004  -0.000104   0.000001   0.002645   0.006076  -0.006958
    15  N    0.000382   0.002362  -0.000016  -0.063517  -0.006399   0.001598
    16  C    0.000840  -0.027269   0.002548   0.328489  -0.050331  -0.001854
    17  H    0.000220  -0.007231   0.017391  -0.023150   0.374512  -0.034179
    18  H    0.000001  -0.000050   0.000012   0.001506  -0.031443   0.338677
    19  H    0.000001  -0.000004   0.000000  -0.001226   0.001232  -0.000352
    20  H    0.000000  -0.000000   0.000000  -0.000079   0.000153  -0.000429
    21  H   -0.000000   0.000000   0.000000   0.000001   0.000001  -0.000077
    22  H   -0.000000   0.000000  -0.000000  -0.000000  -0.000003  -0.000117
    23  H    0.000000  -0.000000   0.000000   0.000041  -0.000000  -0.000031
    24  H    0.000000   0.000000   0.000000   0.000000  -0.000000   0.000006
    25  H    0.000000  -0.000000   0.000000   0.000024   0.000000  -0.000090
    26  H    0.000000  -0.000000   0.000000   0.000006  -0.000002  -0.000060
    27  H    0.006126  -0.000879   0.000018  -0.063395   0.002214   0.000017
               7          8          9         10         11         12
     1  O    0.000004  -0.000000  -0.000000   0.000000  -0.000000  -0.000000
     2  N   -0.000140   0.000002  -0.000004   0.000000  -0.000000   0.000002
     3  O    0.000002  -0.000000  -0.000000   0.000000  -0.000000  -0.000000
     4  C    0.004630  -0.000261   0.000855  -0.000038  -0.000028  -0.000127
     5  C   -0.030206   0.003095   0.000627  -0.000052   0.000025  -0.000176
     6  N    0.169268  -0.050674  -0.061663   0.003749  -0.000190   0.003873
     7  C    5.017577   0.418414   0.350527  -0.054675  -0.009029  -0.061067
     8  H    0.418414   0.538088  -0.055045   0.000776  -0.000325  -0.002230
     9  C    0.350527  -0.055045   5.158236   0.324774  -0.050413  -0.005341
    10  C   -0.054675   0.000776   0.324774   5.119313   0.337001  -0.060989
    11  C   -0.009029  -0.000325  -0.050413   0.337001   5.119924   0.335971
    12  C   -0.061067  -0.002230  -0.005341  -0.060989   0.335971   5.118631
    13  C    0.338598  -0.037931  -0.060239  -0.000285  -0.050692   0.371992
    14  H   -0.046593  -0.000745   0.004422  -0.000405   0.004195  -0.036322
    15  N   -0.057960   0.003900  -0.014613   0.001561  -0.013054  -0.082069
    16  C   -0.001776   0.000009  -0.001270  -0.000029   0.000029   0.002609
    17  H    0.001616  -0.000045  -0.000070   0.000001   0.000000   0.000000
    18  H   -0.021216  -0.004473   0.001328  -0.000083   0.000004  -0.000114
    19  H   -0.036858   0.004362   0.390223  -0.032070  -0.002212   0.000689
    20  H   -0.042413  -0.002077   0.399487  -0.035301   0.003931  -0.000415
    21  H    0.004599  -0.000076  -0.036358   0.402432  -0.034895   0.004348
    22  H   -0.004848   0.003559  -0.046955   0.397751  -0.045402  -0.001021
    23  H    0.000577   0.000035  -0.001958  -0.039019   0.399178  -0.037867
    24  H   -0.000130  -0.000102   0.004388  -0.038435   0.402340  -0.038691
    25  H    0.005151  -0.000025  -0.000423   0.004190  -0.033401   0.398272
    26  H   -0.003905   0.001685   0.000968  -0.002232  -0.041481   0.396727
    27  H   -0.000407   0.000009  -0.000058   0.000007   0.000012  -0.000036
              13         14         15         16         17         18
     1  O   -0.000025  -0.000004   0.000382   0.000840   0.000220   0.000001
     2  N   -0.000039  -0.000104   0.002362  -0.027269  -0.007231  -0.000050
     3  O   -0.000004   0.000001  -0.000016   0.002548   0.017391   0.000012
     4  C   -0.011558   0.002645  -0.063517   0.328489  -0.023150   0.001506
     5  C   -0.000584   0.006076  -0.006399  -0.050331   0.374512  -0.031443
     6  N   -0.047687  -0.006958   0.001598  -0.001854  -0.034179   0.338677
     7  C    0.338598  -0.046593  -0.057960  -0.001776   0.001616  -0.021216
     8  H   -0.037931  -0.000745   0.003900   0.000009  -0.000045  -0.004473
     9  C   -0.060239   0.004422  -0.014613  -0.001270  -0.000070   0.001328
    10  C   -0.000285  -0.000405   0.001561  -0.000029   0.000001  -0.000083
    11  C   -0.050692   0.004195  -0.013054   0.000029   0.000000   0.000004
    12  C    0.371992  -0.036322  -0.082069   0.002609   0.000000  -0.000114
    13  C    5.040239   0.403079   0.244771  -0.071083  -0.000008   0.002970
    14  H    0.403079   0.526781  -0.037369  -0.004542   0.000093  -0.000108
    15  N    0.244771  -0.037369   6.965138   0.585195  -0.000080  -0.000132
    16  C   -0.071083  -0.004542   0.585195   4.709928   0.002012  -0.000197
    17  H   -0.000008   0.000093  -0.000080   0.002012   0.376490  -0.002817
    18  H    0.002970  -0.000108  -0.000132  -0.000197  -0.002817   0.310599
    19  H   -0.007548   0.000106   0.007695   0.003002   0.000016  -0.000149
    20  H    0.004339  -0.000066   0.000126  -0.000036   0.000002   0.000807
    21  H   -0.000433   0.000010  -0.000041   0.000004  -0.000000   0.000001
    22  H    0.000045  -0.000055   0.000019  -0.000002   0.000000   0.000001
    23  H   -0.007523   0.000003   0.008590   0.000106   0.000000   0.000000
    24  H    0.004700  -0.000057   0.000135   0.000007   0.000000  -0.000000
    25  H   -0.035559  -0.002817   0.000409  -0.000022  -0.000000   0.000002
    26  H   -0.047411  -0.001047   0.004900  -0.000061   0.000000  -0.000000
    27  H    0.005060  -0.000174  -0.040319   0.403672  -0.000079   0.000001
              19         20         21         22         23         24
     1  O    0.000001   0.000000  -0.000000  -0.000000   0.000000   0.000000
     2  N   -0.000004  -0.000000   0.000000   0.000000  -0.000000   0.000000
     3  O    0.000000   0.000000   0.000000  -0.000000   0.000000   0.000000
     4  C   -0.001226  -0.000079   0.000001  -0.000000   0.000041   0.000000
     5  C    0.001232   0.000153   0.000001  -0.000003  -0.000000  -0.000000
     6  N   -0.000352  -0.000429  -0.000077  -0.000117  -0.000031   0.000006
     7  C   -0.036858  -0.042413   0.004599  -0.004848   0.000577  -0.000130
     8  H    0.004362  -0.002077  -0.000076   0.003559   0.000035  -0.000102
     9  C    0.390223   0.399487  -0.036358  -0.046955  -0.001958   0.004388
    10  C   -0.032070  -0.035301   0.402432   0.397751  -0.039019  -0.038435
    11  C   -0.002212   0.003931  -0.034895  -0.045402   0.399178   0.402340
    12  C    0.000689  -0.000415   0.004348  -0.001021  -0.037867  -0.038691
    13  C   -0.007548   0.004339  -0.000433   0.000045  -0.007523   0.004700
    14  H    0.000106  -0.000066   0.000010  -0.000055   0.000003  -0.000057
    15  N    0.007695   0.000126  -0.000041   0.000019   0.008590   0.000135
    16  C    0.003002  -0.000036   0.000004  -0.000002   0.000106   0.000007
    17  H    0.000016   0.000002  -0.000000   0.000000   0.000000   0.000000
    18  H   -0.000149   0.000807   0.000001   0.000001   0.000000  -0.000000
    19  H    0.504951  -0.024737  -0.002787   0.003959   0.001514  -0.000066
    20  H   -0.024737   0.541154  -0.002692  -0.002990  -0.000045  -0.000083
    21  H   -0.002787  -0.002692   0.524028  -0.027403  -0.002898  -0.002242
    22  H    0.003959  -0.002990  -0.027403   0.571321   0.004137  -0.003656
    23  H    0.001514  -0.000045  -0.002898   0.004137   0.498966  -0.025450
    24  H   -0.000066  -0.000083  -0.002242  -0.003656  -0.025450   0.538123
    25  H   -0.000029   0.000012  -0.000087  -0.000080  -0.002318  -0.002291
    26  H    0.000019  -0.000030  -0.000081   0.002380   0.004067  -0.003035
    27  H    0.000083   0.000000  -0.000000   0.000000  -0.000035  -0.000000
              25         26         27
     1  O    0.000000   0.000000   0.006126
     2  N   -0.000000  -0.000000  -0.000879
     3  O    0.000000   0.000000   0.000018
     4  C    0.000024   0.000006  -0.063395
     5  C    0.000000  -0.000002   0.002214
     6  N   -0.000090  -0.000060   0.000017
     7  C    0.005151  -0.003905  -0.000407
     8  H   -0.000025   0.001685   0.000009
     9  C   -0.000423   0.000968  -0.000058
    10  C    0.004190  -0.002232   0.000007
    11  C   -0.033401  -0.041481   0.000012
    12  C    0.398272   0.396727  -0.000036
    13  C   -0.035559  -0.047411   0.005060
    14  H   -0.002817  -0.001047  -0.000174
    15  N    0.000409   0.004900  -0.040319
    16  C   -0.000022  -0.000061   0.403672
    17  H   -0.000000   0.000000  -0.000079
    18  H    0.000002  -0.000000   0.000001
    19  H   -0.000029   0.000019   0.000083
    20  H    0.000012  -0.000030   0.000000
    21  H   -0.000087  -0.000081  -0.000000
    22  H   -0.000080   0.002380   0.000000
    23  H   -0.002318   0.004067  -0.000035
    24  H   -0.002291  -0.003035  -0.000000
    25  H    0.506112  -0.024080  -0.000013
    26  H   -0.024080   0.562326   0.000001
    27  H   -0.000013   0.000001   0.439272
 Mulliken charges:
               1
     1  O   -0.467226
     2  N    0.491311
     3  O   -0.504054
     4  C    0.000449
     5  C    0.188870
     6  N   -0.780289
     7  C    0.060258
     8  H    0.180075
     9  C   -0.301426
    10  C   -0.327940
    11  C   -0.321489
    12  C   -0.306651
    13  C   -0.037185
    14  H    0.189952
    15  N   -0.511213
    16  C    0.120024
    17  H    0.295303
    18  H    0.404873
    19  H    0.190185
    20  H    0.161382
    21  H    0.174645
    22  H    0.149360
    23  H    0.199933
    24  H    0.164540
    25  H    0.187061
    26  H    0.150345
    27  H    0.248905
 Sum of Mulliken charges =  -0.00000
 Mulliken charges with hydrogens summed into heavy atoms:
               1
     1  O   -0.467226
     2  N    0.491311
     3  O   -0.504054
     4  C    0.000449
     5  C    0.484173
     6  N   -0.375416
     7  C    0.240333
     9  C    0.050141
    10  C   -0.003935
    11  C    0.042984
    12  C    0.030755
    13  C    0.152767
    15  N   -0.511213
    16  C    0.368929
 Electronic spatial extent (au):  <R**2>=           3005.3788
 Charge=             -0.0000 electrons
 Dipole moment (field-independent basis, Debye):
    X=              5.4158    Y=              4.7958    Z=              1.2813  Tot=              7.3465
 Quadrupole moment (field-independent basis, Debye-Ang):
   XX=           -106.1401   YY=            -79.2241   ZZ=            -81.5019
   XY=             -1.7643   XZ=             -0.1338   YZ=              1.8560
 Traceless Quadrupole moment (field-independent basis, Debye-Ang):
   XX=            -17.1847   YY=              9.7313   ZZ=              7.4535
   XY=             -1.7643   XZ=             -0.1338   YZ=              1.8560
 Octapole moment (field-independent basis, Debye-Ang**2):
  XXX=             92.3979  YYY=             36.2749  ZZZ=             -1.4818  XYY=             -4.5774
  XXY=              9.5233  XXZ=              4.9352  XZZ=             -9.7592  YZZ=             -0.3953
  YYZ=              7.9963  XYZ=              0.2526
 Hexadecapole moment (field-independent basis, Debye-Ang**3):
 XXXX=          -3382.0916 YYYY=           -601.0518 ZZZZ=           -303.8147 XXXY=            -20.8318
 XXXZ=            -13.5642 YYYX=             -8.9043 YYYZ=             25.0128 ZZZX=              1.8226
 ZZZY=              7.0927 XXYY=           -627.7696 XXZZ=           -523.8108 YYZZ=           -157.3307
 XXYZ=             -4.2846 YYXZ=              1.6666 ZZXY=              4.7056
 N-N= 9.312300054875D+02 E-N=-3.409176174032D+03  KE= 6.596286136039D+02
 Unable to Open any file for archive entry.
 1\1\GINC-LOTUS\FOpt\RMP2-FC\6-31G(d)\C9H13N3O2\ALEXEY\02-Jul-2023\0\\#
 MP2/6-31G* SCF=Tight Opt=(ModRedun, MaxCycle=20 ) NoSymm\\MolName:\\0,
 1\O,-3.5068630366,-1.3902254682,-0.3711826387\N,-3.1211374996,-0.23212
 36819,-0.118646683\O,-3.8954145685,0.7289072751,0.055465666\C,-1.68664
 53141,-0.0237158662,-0.0097032459\C,-1.3013750334,1.2607552937,0.27527
 58206\N,-0.0571114994,1.7502607419,0.3862483812\C,1.2056671066,1.02401
 61249,0.3592700662\H,1.8534396135,1.5529820974,1.0746368485\C,1.909124
 9683,1.034993892,-0.9965739647\C,3.3074820088,0.4282991863,-0.83249047
 95\C,3.2594640448,-0.9677719817,-0.2058200937\C,2.4644972108,-0.978297
 4874,1.1016566988\C,1.0547874468,-0.4245673739,0.8652021435\H,0.478270
 6942,-0.4031569999,1.8036430488\N,0.4082264767,-1.3179703813,-0.090913
 1242\C,-0.839131451,-1.1381495372,-0.3862811933\H,-2.0961376736,1.9876
 859103,0.4187831044\H,0.001832279,2.7354506886,0.615349999\H,1.3148346
 782,0.4574899664,-1.7126891903\H,1.9751321831,2.0628972343,-1.37439143
 29\H,3.8114171798,0.3901274932,-1.8050368648\H,3.9073069341,1.09463153
 94,-0.1962801306\H,2.7817346058,-1.6645795613,-0.9016232857\H,4.278624
 3444,-1.3313168714,-0.028679743\H,2.3790439685,-2.0002106814,1.4855633
 581\H,2.9744818627,-0.3804180495,1.8696530848\H,-1.3005415299,-1.89300
 3502,-1.0224361498\\Version=ES64L-G16RevC.02\HF=-661.3003585\MP2=-663.
 3346494\RMSD=8.217e-09\RMSF=1.152e-05\Dipole=1.9792104,1.6917831,0.471
 2121\PG=C01 [X(C9H13N3O2)]\\@
 The archive entry for this job was punched.


 MANHOOD BEGINS BY TRYING TO SHAVE FACE,
 AND ENDS BY TRYING TO SAVE FACE.
 Job cpu time:       0 days  1 hours 20 minutes 15.3 seconds.
 Elapsed time:       0 days  0 hours 24 minutes 11.7 seconds.
 File lengths (MBytes):  RWF=     36 Int=      0 D2E=      0 Chk=      7 Scr=      1
 Normal termination of Gaussian 16 at Sun Jul  2 11:04:08 2023.
