 Entering Gaussian System, Link 0=g16
 Initial command:
 /home/alexey/programs//g16/l1.exe "/home/alexey/tmp/Gau-1498064.inp" -scrdir="/home/alexey/tmp/"
 Entering Link 1 = /home/alexey/programs//g16/l1.exe PID=   1498066.
  
 Copyright (c) 1988-2021, Gaussian, Inc.  All Rights Reserved.
  
 This is part of the Gaussian(R) 16 program.  It is based on
 the Gaussian(R) 09 system (copyright 2009, Gaussian, Inc.),
 the Gaussian(R) 03 system (copyright 2003, Gaussian, Inc.),
 the Gaussian(R) 98 system (copyright 1998, Gaussian, Inc.),
 the Gaussian(R) 94 system (copyright 1995, Gaussian, Inc.),
 the Gaussian 92(TM) system (copyright 1992, Gaussian, Inc.),
 the Gaussian 90(TM) system (copyright 1990, Gaussian, Inc.),
 the Gaussian 88(TM) system (copyright 1988, Gaussian, Inc.),
 the Gaussian 86(TM) system (copyright 1986, Carnegie Mellon
 University), and the Gaussian 82(TM) system (copyright 1983,
 Carnegie Mellon University). Gaussian is a federally registered
 trademark of Gaussian, Inc.
  
 This software contains proprietary and confidential information,
 including trade secrets, belonging to Gaussian, Inc.
  
 This software is provided under written license and may be
 used, copied, transmitted, or stored only in accord with that
 written license.
  
 The following legend is applicable only to US Government
 contracts under FAR:
  
                    RESTRICTED RIGHTS LEGEND
  
 Use, reproduction and disclosure by the US Government is
 subject to restrictions as set forth in subparagraphs (a)
 and (c) of the Commercial Computer Software - Restricted
 Rights clause in FAR 52.227-19.
  
 Gaussian, Inc.
 340 Quinnipiac St., Bldg. 40, Wallingford CT 06492
  
  
 ---------------------------------------------------------------
 Warning -- This program may not be used in any manner that
 competes with the business of Gaussian, Inc. or will provide
 assistance to any competitor of Gaussian, Inc.  The licensee
 of this program is prohibited from giving any competitor of
 Gaussian, Inc. access to this program.  By using this program,
 the user acknowledges that Gaussian, Inc. is engaged in the
 business of creating and licensing software in the field of
 computational chemistry and represents and warrants to the
 licensee that it is not a competitor of Gaussian, Inc. and that
 it will not use this program in any manner prohibited above.
 ---------------------------------------------------------------
  

 Cite this work as:
 Gaussian 16, Revision C.02,
 M. J. Frisch, G. W. Trucks, H. B. Schlegel, G. E. Scuseria, 
 M. A. Robb, J. R. Cheeseman, G. Scalmani, V. Barone, 
 G. A. Petersson, H. Nakatsuji, X. Li, M. Caricato, A. V. Marenich, 
 J. Bloino, B. G. Janesko, R. Gomperts, B. Mennucci, H. P. Hratchian, 
 J. V. Ortiz, A. F. Izmaylov, J. L. Sonnenberg, D. Williams-Young, 
 F. Ding, F. Lipparini, F. Egidi, J. Goings, B. Peng, A. Petrone, 
 T. Henderson, D. Ranasinghe, V. G. Zakrzewski, J. Gao, N. Rega, 
 G. Zheng, W. Liang, M. Hada, M. Ehara, K. Toyota, R. Fukuda, 
 J. Hasegawa, M. Ishida, T. Nakajima, Y. Honda, O. Kitao, H. Nakai, 
 T. Vreven, K. Throssell, J. A. Montgomery, Jr., J. E. Peralta, 
 F. Ogliaro, M. J. Bearpark, J. J. Heyd, E. N. Brothers, K. N. Kudin, 
 V. N. Staroverov, T. A. Keith, R. Kobayashi, J. Normand, 
 K. Raghavachari, A. P. Rendell, J. C. Burant, S. S. Iyengar, 
 J. Tomasi, M. Cossi, J. M. Millam, M. Klene, C. Adamo, R. Cammi, 
 J. W. Ochterski, R. L. Martin, K. Morokuma, O. Farkas, 
 J. B. Foresman, and D. J. Fox, Gaussian, Inc., Wallingford CT, 2019.
 
 ******************************************
 Gaussian 16:  ES64L-G16RevC.02  7-Dec-2021
                 2-Jul-2023 
 ******************************************
 %mem=8GB
 %NPROCS=4
 Will use up to    4 processors via shared memory.
 %NoSave
 ---------------------------------------------------------
 #MP2/6-31G* SCF=Tight Opt=(ModRedun, MaxCycle=20 ) NoSymm
 ---------------------------------------------------------
 1/6=20,18=120,19=15,38=1/1,3;
 2/9=110,12=2,15=1,17=6,18=5,40=1/2;
 3/5=1,6=6,7=1,11=9,25=1,30=1,71=1/1,2,3;
 4//1;
 5/5=2,32=2,38=5/2;
 8/6=4,10=2/1;
 9/15=2,16=-3/6;
 10/5=1,31=1/2;
 6/7=2,8=2,9=2,10=2/1;
 7/12=2,30=1/1,2,3,16;
 1/6=20,18=20,19=15/3(2);
 2/9=110,15=1/2;
 99//99;
 2/9=110,15=1/2;
 3/5=1,6=6,7=1,11=9,25=1,30=1,71=1/1,2,3;
 4/5=5,16=3,69=1/1;
 5/5=2,32=2,38=5/2;
 8/6=4,10=2/1;
 9/15=2,16=-3/6;
 10/5=1,31=1/2;
 7/12=2,30=1/1,2,3,16;
 1/6=20,18=20,19=15/3(-8);
 2/9=110,15=1/2;
 6/7=2,8=2,9=2,10=2/1;
 99/9=10/99;
 --------
 MolName:
 --------
 Symbolic Z-matrix:
 Charge =  0 Multiplicity = 1
 8                    0    -3.58009  -1.49528  -0.07667 
 7                    0    -3.24219  -0.32458   0.08954 
 8                    0    -4.03187   0.58831   0.33369 
 6                    0    -1.75754   0.00536  -0.02479 
 6                    0    -1.37749   1.32052   0.26617 
 7                    0    -0.08701   1.78356   0.31384 
 6                    0     1.18835   1.00003   0.32467 
 1                    0     1.83229   1.4971    1.09597 
 6                    0     1.99305   1.04453  -0.9981 
 6                    0     3.39561   0.45057  -0.7673 
 6                    0     3.30894  -0.96425  -0.17348 
 6                    0     2.42367  -0.99243   1.09126 
 6                    0     0.99685  -0.44801   0.80762 
 1                    0     0.42628  -0.4832    1.76532 
 7                    0     0.36227  -1.30991  -0.19319 
 6                    0    -0.86948  -1.08069  -0.51326 
 1                    0    -2.16133   2.04582   0.54071 
 1                    0     0.14326   2.75649   0.09772 
 1                    0     1.46353   0.47005  -1.78771 
 1                    0     2.09611   2.09349  -1.34854 
 1                    0     3.9583    0.42257  -1.72603 
 1                    0     3.95597   1.10206  -0.05999 
 1                    0     2.87923  -1.6518   -0.93667 
 1                    0     4.32819  -1.33372   0.07315 
 1                    0     2.34877  -2.03837   1.46167 
 1                    0     2.89977  -0.38433   1.88888 
 1                    0    -1.33445  -1.71089  -1.28646 
 
 The following ModRedundant input section has been read:
 D       5       4      16      27 F                                           
 D       1       2       4      16 F                                           
 D       7      13      15      16 F                                           
 D       7       9      10      11 F                                           
 D       9      10      11      12 F                                           
 D       6       7      13      15 F                                           
 

 GradGradGradGradGradGradGradGradGradGradGradGradGradGradGradGradGradGrad
 Berny optimization.
 Initialization pass.
                           ----------------------------
                           !    Initial Parameters    !
                           ! (Angstroms and Degrees)  !
 --------------------------                            --------------------------
 ! Name  Definition              Value          Derivative Info.                !
 --------------------------------------------------------------------------------
 ! R1    R(1,2)                  1.2298         estimate D2E/DX2                !
 ! R2    R(2,3)                  1.2315         estimate D2E/DX2                !
 ! R3    R(2,4)                  1.5252         estimate D2E/DX2                !
 ! R4    R(4,5)                  1.3996         estimate D2E/DX2                !
 ! R5    R(4,16)                 1.4855         estimate D2E/DX2                !
 ! R6    R(5,6)                  1.3719         estimate D2E/DX2                !
 ! R7    R(5,17)                 1.1027         estimate D2E/DX2                !
 ! R8    R(6,7)                  1.4969         estimate D2E/DX2                !
 ! R9    R(6,18)                 1.0229         estimate D2E/DX2                !
 ! R10   R(7,8)                  1.121          estimate D2E/DX2                !
 ! R11   R(7,9)                  1.5489         estimate D2E/DX2                !
 ! R12   R(7,13)                 1.5384         estimate D2E/DX2                !
 ! R13   R(9,10)                 1.5405         estimate D2E/DX2                !
 ! R14   R(9,19)                 1.1108         estimate D2E/DX2                !
 ! R15   R(9,20)                 1.1107         estimate D2E/DX2                !
 ! R16   R(10,11)                1.5368         estimate D2E/DX2                !
 ! R17   R(10,21)                1.112          estimate D2E/DX2                !
 ! R18   R(10,22)                1.113          estimate D2E/DX2                !
 ! R19   R(11,12)                1.544          estimate D2E/DX2                !
 ! R20   R(11,23)                1.1135         estimate D2E/DX2                !
 ! R21   R(11,24)                1.1118         estimate D2E/DX2                !
 ! R22   R(12,13)                1.5533         estimate D2E/DX2                !
 ! R23   R(12,25)                1.1121         estimate D2E/DX2                !
 ! R24   R(12,26)                1.1102         estimate D2E/DX2                !
 ! R25   R(13,14)                1.1153         estimate D2E/DX2                !
 ! R26   R(13,15)                1.4653         estimate D2E/DX2                !
 ! R27   R(15,16)                1.2931         estimate D2E/DX2                !
 ! R28   R(16,27)                1.1005         estimate D2E/DX2                !
 ! A1    A(1,2,3)              123.7992         estimate D2E/DX2                !
 ! A2    A(1,2,4)              117.5987         estimate D2E/DX2                !
 ! A3    A(3,2,4)              118.6008         estimate D2E/DX2                !
 ! A4    A(2,4,5)              116.8747         estimate D2E/DX2                !
 ! A5    A(2,4,16)             116.6426         estimate D2E/DX2                !
 ! A6    A(5,4,16)             126.3725         estimate D2E/DX2                !
 ! A7    A(4,5,6)              125.4392         estimate D2E/DX2                !
 ! A8    A(4,5,17)             118.4793         estimate D2E/DX2                !
 ! A9    A(6,5,17)             115.9781         estimate D2E/DX2                !
 ! A10   A(5,6,7)              128.686          estimate D2E/DX2                !
 ! A11   A(5,6,18)             121.6989         estimate D2E/DX2                !
 ! A12   A(7,6,18)             107.9149         estimate D2E/DX2                !
 ! A13   A(6,7,8)              105.2068         estimate D2E/DX2                !
 ! A14   A(6,7,9)              114.9244         estimate D2E/DX2                !
 ! A15   A(6,7,13)             112.8868         estimate D2E/DX2                !
 ! A16   A(8,7,9)              106.0462         estimate D2E/DX2                !
 ! A17   A(8,7,13)             105.8355         estimate D2E/DX2                !
 ! A18   A(9,7,13)             111.0877         estimate D2E/DX2                !
 ! A19   A(7,9,10)             109.5098         estimate D2E/DX2                !
 ! A20   A(7,9,19)             110.1534         estimate D2E/DX2                !
 ! A21   A(7,9,20)             110.1675         estimate D2E/DX2                !
 ! A22   A(10,9,19)            109.944          estimate D2E/DX2                !
 ! A23   A(10,9,20)            109.0809         estimate D2E/DX2                !
 ! A24   A(19,9,20)            107.9607         estimate D2E/DX2                !
 ! A25   A(9,10,11)            111.1917         estimate D2E/DX2                !
 ! A26   A(9,10,21)            109.9521         estimate D2E/DX2                !
 ! A27   A(9,10,22)            109.1419         estimate D2E/DX2                !
 ! A28   A(11,10,21)           109.7848         estimate D2E/DX2                !
 ! A29   A(11,10,22)           108.767          estimate D2E/DX2                !
 ! A30   A(21,10,22)           107.9318         estimate D2E/DX2                !
 ! A31   A(10,11,12)           111.4466         estimate D2E/DX2                !
 ! A32   A(10,11,23)           108.9888         estimate D2E/DX2                !
 ! A33   A(10,11,24)           109.8727         estimate D2E/DX2                !
 ! A34   A(12,11,23)           109.2016         estimate D2E/DX2                !
 ! A35   A(12,11,24)           109.7451         estimate D2E/DX2                !
 ! A36   A(23,11,24)           107.4951         estimate D2E/DX2                !
 ! A37   A(11,12,13)           111.7586         estimate D2E/DX2                !
 ! A38   A(11,12,25)           109.1837         estimate D2E/DX2                !
 ! A39   A(11,12,26)           109.4267         estimate D2E/DX2                !
 ! A40   A(13,12,25)           109.1836         estimate D2E/DX2                !
 ! A41   A(13,12,26)           109.4587         estimate D2E/DX2                !
 ! A42   A(25,12,26)           107.7415         estimate D2E/DX2                !
 ! A43   A(7,13,12)            105.8362         estimate D2E/DX2                !
 ! A44   A(7,13,14)            111.2805         estimate D2E/DX2                !
 ! A45   A(7,13,15)            113.1499         estimate D2E/DX2                !
 ! A46   A(12,13,14)           107.5815         estimate D2E/DX2                !
 ! A47   A(12,13,15)           108.4433         estimate D2E/DX2                !
 ! A48   A(14,13,15)           110.265          estimate D2E/DX2                !
 ! A49   A(13,15,16)           118.5089         estimate D2E/DX2                !
 ! A50   A(4,16,15)            128.144          estimate D2E/DX2                !
 ! A51   A(4,16,27)            113.3965         estimate D2E/DX2                !
 ! A52   A(15,16,27)           118.3482         estimate D2E/DX2                !
 ! D1    D(1,2,4,5)           -175.3107         estimate D2E/DX2                !
 ! D2    D(1,2,4,16)             8.2587         Frozen                          !
 ! D3    D(3,2,4,5)              5.0848         estimate D2E/DX2                !
 ! D4    D(3,2,4,16)          -171.3459         estimate D2E/DX2                !
 ! D5    D(2,4,5,6)            175.016          estimate D2E/DX2                !
 ! D6    D(2,4,5,17)            -1.1273         estimate D2E/DX2                !
 ! D7    D(16,4,5,6)            -8.9469         estimate D2E/DX2                !
 ! D8    D(16,4,5,17)          174.9098         estimate D2E/DX2                !
 ! D9    D(2,4,16,15)         -147.5756         estimate D2E/DX2                !
 ! D10   D(2,4,16,27)           36.3684         estimate D2E/DX2                !
 ! D11   D(5,4,16,15)           36.3793         estimate D2E/DX2                !
 ! D12   D(5,4,16,27)         -139.6768         Frozen                          !
 ! D13   D(4,5,6,7)            -12.2673         estimate D2E/DX2                !
 ! D14   D(4,5,6,18)           151.0075         estimate D2E/DX2                !
 ! D15   D(17,5,6,7)           163.9618         estimate D2E/DX2                !
 ! D16   D(17,5,6,18)          -32.7634         estimate D2E/DX2                !
 ! D17   D(5,6,7,8)           -136.8977         estimate D2E/DX2                !
 ! D18   D(5,6,7,9)            106.8596         estimate D2E/DX2                !
 ! D19   D(5,6,7,13)           -21.9564         estimate D2E/DX2                !
 ! D20   D(18,6,7,8)            58.0138         estimate D2E/DX2                !
 ! D21   D(18,6,7,9)           -58.2289         estimate D2E/DX2                !
 ! D22   D(18,6,7,13)          172.9551         estimate D2E/DX2                !
 ! D23   D(6,7,9,10)           168.5823         estimate D2E/DX2                !
 ! D24   D(6,7,9,19)           -70.3859         estimate D2E/DX2                !
 ! D25   D(6,7,9,20)            48.6087         estimate D2E/DX2                !
 ! D26   D(8,7,9,10)            52.8208         estimate D2E/DX2                !
 ! D27   D(8,7,9,19)           173.8527         estimate D2E/DX2                !
 ! D28   D(8,7,9,20)           -67.1528         estimate D2E/DX2                !
 ! D29   D(13,7,9,10)          -61.7129         estimate D2E/DX2                !
 ! D30   D(13,7,9,19)           59.319          estimate D2E/DX2                !
 ! D31   D(13,7,9,20)          178.3135         estimate D2E/DX2                !
 ! D32   D(6,7,13,12)         -166.3626         estimate D2E/DX2                !
 ! D33   D(6,7,13,14)          -49.7833         estimate D2E/DX2                !
 ! D34   D(6,7,13,15)           75.0222         Frozen                          !
 ! D35   D(8,7,13,12)          -51.8            estimate D2E/DX2                !
 ! D36   D(8,7,13,14)           64.7792         estimate D2E/DX2                !
 ! D37   D(8,7,13,15)         -170.4153         estimate D2E/DX2                !
 ! D38   D(9,7,13,12)           62.8652         estimate D2E/DX2                !
 ! D39   D(9,7,13,14)          179.4445         estimate D2E/DX2                !
 ! D40   D(9,7,13,15)          -55.75           estimate D2E/DX2                !
 ! D41   D(7,9,10,11)           54.812          Frozen                          !
 ! D42   D(7,9,10,21)          176.6127         estimate D2E/DX2                !
 ! D43   D(7,9,10,22)          -65.1763         estimate D2E/DX2                !
 ! D44   D(19,9,10,11)         -66.3466         estimate D2E/DX2                !
 ! D45   D(19,9,10,21)          55.4541         estimate D2E/DX2                !
 ! D46   D(19,9,10,22)         173.6651         estimate D2E/DX2                !
 ! D47   D(20,9,10,11)         175.4484         estimate D2E/DX2                !
 ! D48   D(20,9,10,21)         -62.7508         estimate D2E/DX2                !
 ! D49   D(20,9,10,22)          55.4601         estimate D2E/DX2                !
 ! D50   D(9,10,11,12)         -52.822          Frozen                          !
 ! D51   D(9,10,11,23)          67.7668         estimate D2E/DX2                !
 ! D52   D(9,10,11,24)        -174.6887         estimate D2E/DX2                !
 ! D53   D(21,10,11,12)       -174.7201         estimate D2E/DX2                !
 ! D54   D(21,10,11,23)        -54.1312         estimate D2E/DX2                !
 ! D55   D(21,10,11,24)         63.4132         estimate D2E/DX2                !
 ! D56   D(22,10,11,12)         67.3884         estimate D2E/DX2                !
 ! D57   D(22,10,11,23)       -172.0228         estimate D2E/DX2                !
 ! D58   D(22,10,11,24)        -54.4783         estimate D2E/DX2                !
 ! D59   D(10,11,12,13)         56.5123         estimate D2E/DX2                !
 ! D60   D(10,11,12,25)        177.4076         estimate D2E/DX2                !
 ! D61   D(10,11,12,26)        -64.8938         estimate D2E/DX2                !
 ! D62   D(23,11,12,13)        -63.9516         estimate D2E/DX2                !
 ! D63   D(23,11,12,25)         56.9437         estimate D2E/DX2                !
 ! D64   D(23,11,12,26)        174.6423         estimate D2E/DX2                !
 ! D65   D(24,11,12,13)        178.4528         estimate D2E/DX2                !
 ! D66   D(24,11,12,25)        -60.6519         estimate D2E/DX2                !
 ! D67   D(24,11,12,26)         57.0467         estimate D2E/DX2                !
 ! D68   D(11,12,13,7)         -59.993          estimate D2E/DX2                !
 ! D69   D(11,12,13,14)       -179.0459         estimate D2E/DX2                !
 ! D70   D(11,12,13,15)         61.7002         estimate D2E/DX2                !
 ! D71   D(25,12,13,7)         179.1116         estimate D2E/DX2                !
 ! D72   D(25,12,13,14)         60.0587         estimate D2E/DX2                !
 ! D73   D(25,12,13,15)        -59.1951         estimate D2E/DX2                !
 ! D74   D(26,12,13,7)          61.3947         estimate D2E/DX2                !
 ! D75   D(26,12,13,14)        -57.6583         estimate D2E/DX2                !
 ! D76   D(26,12,13,15)       -176.9121         estimate D2E/DX2                !
 ! D77   D(7,13,15,16)         -67.1605         Frozen                          !
 ! D78   D(12,13,15,16)        175.7459         estimate D2E/DX2                !
 ! D79   D(14,13,15,16)         58.1934         estimate D2E/DX2                !
 ! D80   D(13,15,16,4)           2.3537         estimate D2E/DX2                !
 ! D81   D(13,15,16,27)        178.2405         estimate D2E/DX2                !
 --------------------------------------------------------------------------------
 Trust Radius=3.00D-01 FncErr=1.00D-07 GrdErr=1.00D-07 EigMax=2.50D+02 EigMin=1.00D-04
 Number of steps in this run=     20 maximum allowed number of steps=    162.
 GradGradGradGradGradGradGradGradGradGradGradGradGradGradGradGradGradGrad

                          Input orientation:                          
 ---------------------------------------------------------------------
 Center     Atomic      Atomic             Coordinates (Angstroms)
 Number     Number       Type             X           Y           Z
 ---------------------------------------------------------------------
      1          8           0       -3.580090   -1.495280   -0.076670
      2          7           0       -3.242190   -0.324580    0.089540
      3          8           0       -4.031870    0.588310    0.333690
      4          6           0       -1.757540    0.005360   -0.024790
      5          6           0       -1.377490    1.320520    0.266170
      6          7           0       -0.087010    1.783560    0.313840
      7          6           0        1.188350    1.000030    0.324670
      8          1           0        1.832290    1.497100    1.095970
      9          6           0        1.993050    1.044530   -0.998100
     10          6           0        3.395610    0.450570   -0.767300
     11          6           0        3.308940   -0.964250   -0.173480
     12          6           0        2.423670   -0.992430    1.091260
     13          6           0        0.996850   -0.448010    0.807620
     14          1           0        0.426280   -0.483200    1.765320
     15          7           0        0.362270   -1.309910   -0.193190
     16          6           0       -0.869480   -1.080690   -0.513260
     17          1           0       -2.161330    2.045820    0.540710
     18          1           0        0.143260    2.756490    0.097720
     19          1           0        1.463530    0.470050   -1.787710
     20          1           0        2.096110    2.093490   -1.348540
     21          1           0        3.958300    0.422570   -1.726030
     22          1           0        3.955970    1.102060   -0.059990
     23          1           0        2.879230   -1.651800   -0.936670
     24          1           0        4.328190   -1.333720    0.073150
     25          1           0        2.348770   -2.038370    1.461670
     26          1           0        2.899770   -0.384330    1.888880
     27          1           0       -1.334450   -1.710890   -1.286460
 ---------------------------------------------------------------------
                    Distance matrix (angstroms):
                    1          2          3          4          5
     1  O    0.000000
     2  N    1.229773   0.000000
     3  O    2.171140   1.231492   0.000000
     4  C    2.361419   1.525161   2.375061   0.000000
     5  C    3.591339   2.492922   2.754346   1.399550   0.000000
     6  N    4.806755   3.801279   4.122006   2.463196   1.371866
     7  C    5.396820   4.630288   5.236439   3.128859   2.586440
     8  H    6.294703   5.484685   5.982921   4.045772   3.320005
     9  C    6.193509   5.519525   6.187201   4.011749   3.610414
    10  C    7.274867   6.737612   7.509901   5.225370   4.960580
    11  C    6.910145   6.587538   7.520316   5.160569   5.232217
    12  C    6.136942   5.792360   6.689294   4.441134   4.525409
    13  C    4.777774   4.301201   5.156219   2.912922   3.009710
    14  H    4.524183   4.036220   4.803415   2.865703   2.958791
    15  N    3.948435   3.747392   4.815528   2.500378   3.186995
    16  C    2.776671   2.562191   3.674724   1.485516   2.575149
    17  H    3.864379   2.643976   2.380360   2.155531   1.102650
    18  H    5.654317   4.577590   4.710456   3.346157   2.098348
    19  H    5.676996   5.128285   5.891837   3.701232   3.607370
    20  H    6.834923   6.034284   6.530513   4.578561   3.907770
    21  H    7.951469   7.463349   8.253044   5.978220   5.765920
    22  H    7.971114   7.339698   8.014020   5.817919   5.347887
    23  H    6.518199   6.347157   7.375311   5.007728   5.329275
    24  H    7.911349   7.637361   8.582114   6.232081   6.295795
    25  H    6.149213   6.006551   6.991735   4.821636   5.157167
    26  H    6.861937   6.400380   7.170236   5.050201   4.882075
    27  H    2.559879   2.730330   3.897086   2.171711   3.406165
                    6          7          8          9         10
     6  N    0.000000
     7  C    1.496857   0.000000
     8  H    2.092247   1.121000   0.000000
     9  C    2.567879   1.548949   2.148440   0.000000
    10  C    3.882572   2.523153   2.647824   1.540530   0.000000
    11  C    4.395500   2.933164   3.138510   2.539047   1.536831
    12  C    3.822828   2.466490   2.558811   2.949587   2.545813
    13  C    2.529521   1.538419   2.136483   2.545725   3.006970
    14  H    2.740157   2.203677   2.519222   3.524942   4.012856
    15  N    3.166779   2.507271   3.420847   2.975014   3.553877
    16  C    3.082253   3.044041   4.066225   3.598014   4.538754
    17  H    2.103106   3.515780   4.069202   4.541959   5.927503
    18  H    1.022900   2.056422   2.331392   2.748336   4.079621
    19  H    2.923353   2.195166   3.083249   1.110812   2.185074
    20  H    2.761445   2.195294   2.530002   1.110741   2.173874
    21  H    4.730528   3.494489   3.692996   2.186075   1.112010
    22  H    4.117023   2.796085   2.449963   2.176331   1.112982
    23  H    4.707871   3.388548   3.891437   2.838888   2.171473
    24  H    5.410116   3.920236   3.910143   3.500933   2.181686
    25  H    4.675221   3.445463   3.591662   3.959959   3.501286
    26  H    4.012649   2.700401   2.303909   3.346406   2.828110
    27  H    4.040823   4.038483   5.098570   4.329867   5.226366
                   11         12         13         14         15
    11  C    0.000000
    12  C    1.544042   0.000000
    13  C    2.564141   1.553274   0.000000
    14  H    3.507147   2.168695   1.115338   0.000000
    15  N    2.966940   2.449485   1.465327   2.126807   0.000000
    16  C    4.193829   3.664302   2.372382   2.688478   1.293134
    17  H    6.284460   5.527775   4.032931   3.819861   4.262404
    18  H    4.892748   4.499088   3.391371   3.654666   4.082671
    19  H    2.840509   3.368855   2.792197   3.822119   2.631259
    20  H    3.493064   3.947508   3.509504   4.373075   3.990510
    21  H    2.180676   3.506342   3.993429   5.048278   4.275806
    22  H    2.168217   2.839051   3.451356   4.278261   4.330129
    23  H    1.113479   2.180551   2.834610   3.831885   2.646647
    24  H    1.111848   2.186372   3.524451   4.337249   3.974925
    25  H    2.179306   1.112117   2.187399   2.491330   2.686149
    26  H    2.181068   1.110250   2.189585   2.478547   3.410369
    27  H    4.832936   4.504798   3.378609   3.731053   2.057883
                   16         17         18         19         20
    16  C    0.000000
    17  H    3.543274   0.000000
    18  H    4.015332   2.452025   0.000000
    19  H    3.077654   4.587396   3.244344   0.000000
    20  H    4.423555   4.658040   2.518901   1.796826   0.000000
    21  H    5.199814   6.724799   4.829884   2.495984   2.530262
    22  H    5.315526   6.218753   4.159179   3.097856   2.470298
    23  H    3.815530   6.423573   5.290417   2.689000   3.848391
    24  H    5.236762   7.331696   5.851842   3.862986   4.330029
    25  H    3.895463   6.153842   5.451176   4.199320   5.003337
    26  H    4.523543   5.773900   4.546576   4.038572   4.155280
    27  H    1.100540   4.258539   4.904800   3.582798   5.123076
                   21         22         23         24         25
    21  H    0.000000
    22  H    1.799278   0.000000
    23  H    2.467892   3.084101   0.000000
    24  H    2.541343   2.467650   1.794546   0.000000
    25  H    4.336847   3.841984   2.486536   2.518456   0.000000
    26  H    3.852161   2.668896   3.096875   2.497719   1.794981
    27  H    5.723467   6.116000   4.228587   5.835777   4.607122
                   26         27
    26  H    0.000000
    27  H    5.456296   0.000000
 Symmetry turned off by external request.
 Stoichiometry    C9H13N3O2
 Framework group  C1[X(C9H13N3O2)]
 Deg. of freedom    75
 Full point group                 C1      NOp   1
 Rotational constants (GHZ):           1.6798976           0.4020236           0.3564479
 Standard basis: 6-31G(d) (6D, 7F)
   236 basis functions,   444 primitive gaussians,   236 cartesian basis functions
    52 alpha electrons       52 beta electrons
       nuclear repulsion energy       918.2402752940 Hartrees.
 NAtoms=   27 NActive=   27 NUniq=   27 SFac= 1.00D+00 NAtFMM=   60 NAOKFM=F Big=F
 Integral buffers will be    131072 words long.
 Raffenetti 1 integral format.
 Two-electron integral symmetry is turned off.
 One-electron integrals computed using PRISM.
 NBasis=   236 RedAO= T EigKep=  1.27D-03  NBF=   236
 NBsUse=   236 1.00D-06 EigRej= -1.00D+00 NBFU=   236
 ExpMin= 1.61D-01 ExpMax= 5.48D+03 ExpMxC= 8.25D+02 IAcc=3 IRadAn=         5 AccDes= 0.00D+00
 Harris functional with IExCor=  205 and IRadAn=       5 diagonalized for initial guess.
 HarFok:  IExCor=  205 AccDes= 0.00D+00 IRadAn=         5 IDoV= 1 UseB2=F ITyADJ=14
 ICtDFT=  3500011 ScaDFX=  1.000000  1.000000  1.000000  1.000000
 FoFCou: FMM=F IPFlag=           0 FMFlag=      100000 FMFlg1=           0
         NFxFlg=           0 DoJE=T BraDBF=F KetDBF=T FulRan=T
         wScrn=  0.000000 ICntrl=       500 IOpCl=  0 I1Cent=   200000004 NGrid=           0
         NMat0=    1 NMatS0=      1 NMatT0=    0 NMatD0=    1 NMtDS0=    0 NMtDT0=    0
 Symmetry not used in FoFCou.
 Keep R1 ints in memory in canonical form, NReq=397720213.
 Requested convergence on RMS density matrix=1.00D-08 within 128 cycles.
 Requested convergence on MAX density matrix=1.00D-06.
 Requested convergence on             energy=1.00D-06.
 No special actions if energy rises.
 SCF Done:  E(RHF) =  -661.278768586     A.U. after   16 cycles
            NFock= 16  Conv=0.84D-08     -V/T= 2.0037
 ExpMin= 1.61D-01 ExpMax= 5.48D+03 ExpMxC= 8.25D+02 IAcc=3 IRadAn=         5 AccDes= 0.00D+00
 HarFok:  IExCor=  205 AccDes= 0.00D+00 IRadAn=         5 IDoV=-2 UseB2=F ITyADJ=14
 ICtDFT= 12500011 ScaDFX=  1.000000  1.000000  1.000000  1.000000
 Range of M.O.s used for correlation:    15   236
 NBasis=   236 NAE=    52 NBE=    52 NFC=    14 NFV=     0
 NROrb=    222 NOA=    38 NOB=    38 NVA=   184 NVB=   184
 Fully direct method using O(ONN) memory.
 JobTyp=1 Pass  1:  I=  15 to  52 NPSUse=  4 ParTrn=T ParDer=T DoDerP=T.
 Spin components of T(2) and E(2):
     alpha-alpha T2 =       0.9191602517D-01 E2=     -0.2717040003D+00
     alpha-beta  T2 =       0.5000445956D+00 E2=     -0.1494179260D+01
     beta-beta   T2 =       0.9191602517D-01 E2=     -0.2717040003D+00
 ANorm=    0.1297642727D+01
 E2 =    -0.2037587261D+01 EUMP2 =    -0.66331635584677D+03
          IDoAtm=111111111111111111111111111
          Differentiating once with respect to electric field.
                with respect to dipole field.
          Differentiating once with respect to nuclear coordinates.
 Keep R1 ints in memory in canonical form, NReq=397723379.
          There are     1 degrees of freedom in the 1st order CPHF.  IDoFFX=0 NUNeed=     1.
 LinEq1:  Iter=  0 NonCon=     1 RMS=4.59D-03 Max=1.13D-01 NDo=     1
 AX will form     1 AO Fock derivatives at one time.
 LinEq1:  Iter=  1 NonCon=     1 RMS=1.55D-03 Max=3.18D-02 NDo=     1
 LinEq1:  Iter=  2 NonCon=     1 RMS=6.35D-04 Max=1.83D-02 NDo=     1
 LinEq1:  Iter=  3 NonCon=     1 RMS=2.93D-04 Max=9.04D-03 NDo=     1
 LinEq1:  Iter=  4 NonCon=     1 RMS=8.96D-05 Max=1.92D-03 NDo=     1
 LinEq1:  Iter=  5 NonCon=     1 RMS=3.76D-05 Max=1.95D-03 NDo=     1
 LinEq1:  Iter=  6 NonCon=     1 RMS=1.54D-05 Max=5.91D-04 NDo=     1
 LinEq1:  Iter=  7 NonCon=     1 RMS=6.02D-06 Max=1.13D-04 NDo=     1
 LinEq1:  Iter=  8 NonCon=     1 RMS=2.42D-06 Max=6.76D-05 NDo=     1
 LinEq1:  Iter=  9 NonCon=     1 RMS=9.21D-07 Max=2.65D-05 NDo=     1
 LinEq1:  Iter= 10 NonCon=     1 RMS=4.50D-07 Max=1.53D-05 NDo=     1
 LinEq1:  Iter= 11 NonCon=     1 RMS=1.56D-07 Max=5.76D-06 NDo=     1
 LinEq1:  Iter= 12 NonCon=     1 RMS=5.42D-08 Max=7.46D-07 NDo=     1
 LinEq1:  Iter= 13 NonCon=     1 RMS=1.72D-08 Max=3.08D-07 NDo=     1
 LinEq1:  Iter= 14 NonCon=     1 RMS=5.53D-09 Max=1.31D-07 NDo=     1
 LinEq1:  Iter= 15 NonCon=     1 RMS=2.06D-09 Max=4.57D-08 NDo=     1
 LinEq1:  Iter= 16 NonCon=     1 RMS=7.90D-10 Max=1.23D-08 NDo=     1
 LinEq1:  Iter= 17 NonCon=     1 RMS=2.60D-10 Max=3.79D-09 NDo=     1
 LinEq1:  Iter= 18 NonCon=     0 RMS=8.99D-11 Max=9.86D-10 NDo=     1
 Linear equations converged to 1.000D-10 1.000D-09 after    18 iterations.
 End of Minotr F.D. properties file   721 does not exist.
 End of Minotr F.D. properties file   722 does not exist.
 End of Minotr F.D. properties file   788 does not exist.

 **********************************************************************

            Population analysis using the SCF Density.

 **********************************************************************

 Alpha  occ. eigenvalues --  -20.59810 -20.59331 -15.85231 -15.63053 -15.57217
 Alpha  occ. eigenvalues --  -11.35735 -11.30555 -11.30124 -11.30027 -11.27764
 Alpha  occ. eigenvalues --  -11.24623 -11.23879 -11.23444 -11.22866  -1.58446
 Alpha  occ. eigenvalues --   -1.37958  -1.28436  -1.22878  -1.13248  -1.08339
 Alpha  occ. eigenvalues --   -1.01836  -1.00620  -0.93502  -0.88997  -0.84930
 Alpha  occ. eigenvalues --   -0.81549  -0.78037  -0.76887  -0.74157  -0.71090
 Alpha  occ. eigenvalues --   -0.70290  -0.69739  -0.67411  -0.64600  -0.63290
 Alpha  occ. eigenvalues --   -0.61624  -0.60515  -0.57365  -0.56501  -0.54891
 Alpha  occ. eigenvalues --   -0.53492  -0.50824  -0.49114  -0.48330  -0.47735
 Alpha  occ. eigenvalues --   -0.47608  -0.45974  -0.45862  -0.43949  -0.42020
 Alpha  occ. eigenvalues --   -0.40321  -0.33921
 Alpha virt. eigenvalues --    0.07362   0.11880   0.18482   0.21105   0.22804
 Alpha virt. eigenvalues --    0.24067   0.26454   0.27628   0.28553   0.28847
 Alpha virt. eigenvalues --    0.29934   0.31007   0.31869   0.32204   0.33334
 Alpha virt. eigenvalues --    0.33695   0.34130   0.35478   0.37518   0.38583
 Alpha virt. eigenvalues --    0.40664   0.42024   0.44785   0.45338   0.45678
 Alpha virt. eigenvalues --    0.45847   0.49725   0.53055   0.57412   0.58689
 Alpha virt. eigenvalues --    0.63281   0.69071   0.69512   0.72174   0.73984
 Alpha virt. eigenvalues --    0.75074   0.75761   0.75918   0.77723   0.79389
 Alpha virt. eigenvalues --    0.80340   0.83784   0.85168   0.85643   0.87958
 Alpha virt. eigenvalues --    0.88726   0.90088   0.90900   0.91939   0.94066
 Alpha virt. eigenvalues --    0.95266   0.96921   0.98199   1.00205   1.01940
 Alpha virt. eigenvalues --    1.02771   1.05229   1.06451   1.06502   1.08273
 Alpha virt. eigenvalues --    1.09705   1.10200   1.10488   1.11968   1.13213
 Alpha virt. eigenvalues --    1.13756   1.14151   1.15209   1.16384   1.17417
 Alpha virt. eigenvalues --    1.17512   1.19641   1.20786   1.22134   1.22424
 Alpha virt. eigenvalues --    1.23929   1.24252   1.25846   1.26907   1.27627
 Alpha virt. eigenvalues --    1.29329   1.31372   1.32802   1.35487   1.40422
 Alpha virt. eigenvalues --    1.41570   1.45204   1.46386   1.48487   1.51978
 Alpha virt. eigenvalues --    1.53305   1.55894   1.61012   1.61173   1.66203
 Alpha virt. eigenvalues --    1.68895   1.70119   1.72427   1.74068   1.77295
 Alpha virt. eigenvalues --    1.77851   1.79807   1.84804   1.88844   1.92317
 Alpha virt. eigenvalues --    1.94227   1.95988   1.98092   1.99078   2.00723
 Alpha virt. eigenvalues --    2.03319   2.03849   2.05985   2.08586   2.11952
 Alpha virt. eigenvalues --    2.12587   2.14404   2.17726   2.18748   2.19370
 Alpha virt. eigenvalues --    2.21028   2.22446   2.24591   2.25530   2.26744
 Alpha virt. eigenvalues --    2.29149   2.32570   2.33811   2.34866   2.35849
 Alpha virt. eigenvalues --    2.38126   2.39839   2.41591   2.43050   2.46802
 Alpha virt. eigenvalues --    2.48607   2.50426   2.50772   2.57100   2.57409
 Alpha virt. eigenvalues --    2.61080   2.62454   2.66474   2.68042   2.68720
 Alpha virt. eigenvalues --    2.69973   2.70877   2.74806   2.78680   2.80933
 Alpha virt. eigenvalues --    2.84350   2.86375   2.90043   2.91817   2.95224
 Alpha virt. eigenvalues --    2.97384   2.98566   3.02127   3.03055   3.05434
 Alpha virt. eigenvalues --    3.06971   3.12203   3.19474   3.22655   3.27192
 Alpha virt. eigenvalues --    3.30232   3.33665   3.36844   3.43625   3.58716
 Alpha virt. eigenvalues --    4.09569   4.23413   4.32118   4.36047   4.42738
 Alpha virt. eigenvalues --    4.53111   4.59790   4.60554   4.70772   4.77539
 Alpha virt. eigenvalues --    4.95416   4.99170   5.02362   5.10249
          Condensed to atoms (all electrons):
               1          2          3          4          5          6
     1  O    8.297586   0.316012  -0.089275  -0.081506   0.003461  -0.000014
     2  N    0.316012   5.679198   0.308287   0.268163  -0.045053   0.000862
     3  O   -0.089275   0.308287   8.332263  -0.087691   0.007896   0.000449
     4  C   -0.081506   0.268163  -0.087691   5.242804   0.574316  -0.049528
     5  C    0.003461  -0.045053   0.007896   0.574316   4.663548   0.305385
     6  N   -0.000014   0.000862   0.000449  -0.049528   0.305385   7.199261
     7  C    0.000003  -0.000093   0.000002   0.003390  -0.029348   0.198212
     8  H   -0.000000   0.000002  -0.000000  -0.000103   0.002131  -0.051080
     9  C   -0.000000  -0.000003   0.000000   0.000329   0.001867  -0.055223
    10  C   -0.000000   0.000000  -0.000000  -0.000014  -0.000067   0.003311
    11  C   -0.000000  -0.000000  -0.000000  -0.000018   0.000014  -0.000153
    12  C   -0.000000   0.000002  -0.000000  -0.000021  -0.000096   0.003476
    13  C   -0.000024  -0.000051  -0.000004  -0.012062   0.000438  -0.042346
    14  H   -0.000004  -0.000057   0.000000   0.003368   0.004849  -0.005459
    15  N    0.000034   0.001686  -0.000014  -0.060931  -0.003614   0.001636
    16  C    0.006203  -0.029886   0.001932   0.319950  -0.040647  -0.001683
    17  H    0.000113  -0.003876   0.011526  -0.028446   0.378116  -0.034968
    18  H    0.000000  -0.000035   0.000007   0.000906  -0.023687   0.327729
    19  H    0.000000   0.000000   0.000000  -0.000620   0.000512   0.000849
    20  H    0.000000  -0.000000   0.000000  -0.000017   0.000037  -0.001995
    21  H   -0.000000  -0.000000   0.000000   0.000000   0.000001  -0.000057
    22  H   -0.000000   0.000000  -0.000000  -0.000000  -0.000002  -0.000098
    23  H    0.000000  -0.000000   0.000000   0.000024  -0.000000  -0.000024
    24  H    0.000000   0.000000   0.000000   0.000000  -0.000000   0.000004
    25  H    0.000000  -0.000000   0.000000   0.000017  -0.000000  -0.000069
    26  H    0.000000  -0.000000   0.000000   0.000007  -0.000000  -0.000065
    27  H    0.003407  -0.000163  -0.000031  -0.066065   0.002075   0.000116
               7          8          9         10         11         12
     1  O    0.000003  -0.000000  -0.000000  -0.000000  -0.000000  -0.000000
     2  N   -0.000093   0.000002  -0.000003   0.000000  -0.000000   0.000002
     3  O    0.000002  -0.000000   0.000000  -0.000000  -0.000000  -0.000000
     4  C    0.003390  -0.000103   0.000329  -0.000014  -0.000018  -0.000021
     5  C   -0.029348   0.002131   0.001867  -0.000067   0.000014  -0.000096
     6  N    0.198212  -0.051080  -0.055223   0.003311  -0.000153   0.003476
     7  C    4.990281   0.418041   0.339828  -0.049128  -0.007626  -0.063615
     8  H    0.418041   0.548705  -0.061410   0.001655  -0.000400  -0.002540
     9  C    0.339828  -0.061410   5.182435   0.317412  -0.052821  -0.006525
    10  C   -0.049128   0.001655   0.317412   5.126731   0.332697  -0.059795
    11  C   -0.007626  -0.000400  -0.052821   0.332697   5.123552   0.330602
    12  C   -0.063615  -0.002540  -0.006525  -0.059795   0.330602   5.136217
    13  C    0.337239  -0.041778  -0.048710  -0.002041  -0.047938   0.366661
    14  H   -0.039472  -0.001014   0.003870  -0.000398   0.003957  -0.040511
    15  N   -0.056294   0.004007  -0.012744   0.001445  -0.007655  -0.073287
    16  C   -0.003674   0.000125  -0.001160  -0.000005  -0.000001   0.002833
    17  H    0.001452  -0.000005  -0.000066   0.000001   0.000000   0.000001
    18  H   -0.027962  -0.002237   0.000734  -0.000118   0.000011  -0.000127
    19  H   -0.034977   0.004142   0.385483  -0.032409  -0.002338   0.000684
    20  H   -0.041520  -0.001916   0.397405  -0.037507   0.004149  -0.000355
    21  H    0.004025  -0.000083  -0.035798   0.400176  -0.035865   0.004200
    22  H   -0.004112   0.003512  -0.045749   0.396036  -0.045656  -0.001246
    23  H    0.000393   0.000035  -0.002020  -0.040062   0.396753  -0.036715
    24  H   -0.000144  -0.000095   0.004394  -0.038479   0.400293  -0.037873
    25  H    0.004897   0.000001  -0.000367   0.004097  -0.034100   0.395787
    26  H   -0.004342   0.001659   0.000999  -0.002370  -0.042366   0.394918
    27  H   -0.000462   0.000010  -0.000056   0.000006   0.000005  -0.000021
              13         14         15         16         17         18
     1  O   -0.000024  -0.000004   0.000034   0.006203   0.000113   0.000000
     2  N   -0.000051  -0.000057   0.001686  -0.029886  -0.003876  -0.000035
     3  O   -0.000004   0.000000  -0.000014   0.001932   0.011526   0.000007
     4  C   -0.012062   0.003368  -0.060931   0.319950  -0.028446   0.000906
     5  C    0.000438   0.004849  -0.003614  -0.040647   0.378116  -0.023687
     6  N   -0.042346  -0.005459   0.001636  -0.001683  -0.034968   0.327729
     7  C    0.337239  -0.039472  -0.056294  -0.003674   0.001452  -0.027962
     8  H   -0.041778  -0.001014   0.004007   0.000125  -0.000005  -0.002237
     9  C   -0.048710   0.003870  -0.012744  -0.001160  -0.000066   0.000734
    10  C   -0.002041  -0.000398   0.001445  -0.000005   0.000001  -0.000118
    11  C   -0.047938   0.003957  -0.007655  -0.000001   0.000000   0.000011
    12  C    0.366661  -0.040511  -0.073287   0.002833   0.000001  -0.000127
    13  C    5.032259   0.400372   0.235869  -0.071140  -0.000040   0.003552
    14  H    0.400372   0.519141  -0.036129  -0.003921   0.000094   0.000003
    15  N    0.235869  -0.036129   6.927094   0.587079  -0.000066  -0.000119
    16  C   -0.071140  -0.003921   0.587079   4.693530   0.001777  -0.000250
    17  H   -0.000040   0.000094  -0.000066   0.001777   0.389539  -0.001669
    18  H    0.003552   0.000003  -0.000119  -0.000250  -0.001669   0.323856
    19  H   -0.006426   0.000061   0.006813   0.002644   0.000011  -0.000119
    20  H    0.003834  -0.000047   0.000073  -0.000034  -0.000000   0.003022
    21  H   -0.000367   0.000009  -0.000026   0.000002  -0.000000  -0.000000
    22  H    0.000326  -0.000045  -0.000001  -0.000001   0.000000   0.000002
    23  H   -0.005696   0.000008   0.006625   0.000030   0.000000   0.000000
    24  H    0.004128  -0.000057   0.000054   0.000006   0.000000  -0.000000
    25  H   -0.034595  -0.002635   0.000460  -0.000073  -0.000000   0.000002
    26  H   -0.044713  -0.000989   0.004144  -0.000072   0.000000  -0.000001
    27  H    0.005171  -0.000194  -0.039874   0.402912  -0.000064   0.000004
              19         20         21         22         23         24
     1  O    0.000000   0.000000  -0.000000  -0.000000   0.000000   0.000000
     2  N    0.000000  -0.000000  -0.000000   0.000000  -0.000000   0.000000
     3  O    0.000000   0.000000   0.000000  -0.000000   0.000000   0.000000
     4  C   -0.000620  -0.000017   0.000000  -0.000000   0.000024   0.000000
     5  C    0.000512   0.000037   0.000001  -0.000002  -0.000000  -0.000000
     6  N    0.000849  -0.001995  -0.000057  -0.000098  -0.000024   0.000004
     7  C   -0.034977  -0.041520   0.004025  -0.004112   0.000393  -0.000144
     8  H    0.004142  -0.001916  -0.000083   0.003512   0.000035  -0.000095
     9  C    0.385483   0.397405  -0.035798  -0.045749  -0.002020   0.004394
    10  C   -0.032409  -0.037507   0.400176   0.396036  -0.040062  -0.038479
    11  C   -0.002338   0.004149  -0.035865  -0.045656   0.396753   0.400293
    12  C    0.000684  -0.000355   0.004200  -0.001246  -0.036715  -0.037873
    13  C   -0.006426   0.003834  -0.000367   0.000326  -0.005696   0.004128
    14  H    0.000061  -0.000047   0.000009  -0.000045   0.000008  -0.000057
    15  N    0.006813   0.000073  -0.000026  -0.000001   0.006625   0.000054
    16  C    0.002644  -0.000034   0.000002  -0.000001   0.000030   0.000006
    17  H    0.000011  -0.000000  -0.000000   0.000000   0.000000   0.000000
    18  H   -0.000119   0.003022  -0.000000   0.000002   0.000000  -0.000000
    19  H    0.507684  -0.024173  -0.002608   0.003764   0.001646  -0.000068
    20  H   -0.024173   0.550703  -0.002598  -0.002987  -0.000050  -0.000090
    21  H   -0.002608  -0.002598   0.526243  -0.024713  -0.002819  -0.002051
    22  H    0.003764  -0.002987  -0.024713   0.568595   0.004065  -0.003605
    23  H    0.001646  -0.000050  -0.002819   0.004065   0.510064  -0.025030
    24  H   -0.000068  -0.000090  -0.002051  -0.003605  -0.025030   0.541065
    25  H   -0.000027   0.000011  -0.000086  -0.000082  -0.002116  -0.002370
    26  H    0.000023  -0.000036  -0.000075   0.002478   0.003825  -0.002791
    27  H    0.000068  -0.000000  -0.000000   0.000000  -0.000021  -0.000000
              25         26         27
     1  O    0.000000   0.000000   0.003407
     2  N   -0.000000  -0.000000  -0.000163
     3  O    0.000000   0.000000  -0.000031
     4  C    0.000017   0.000007  -0.066065
     5  C   -0.000000  -0.000000   0.002075
     6  N   -0.000069  -0.000065   0.000116
     7  C    0.004897  -0.004342  -0.000462
     8  H    0.000001   0.001659   0.000010
     9  C   -0.000367   0.000999  -0.000056
    10  C    0.004097  -0.002370   0.000006
    11  C   -0.034100  -0.042366   0.000005
    12  C    0.395787   0.394918  -0.000021
    13  C   -0.034595  -0.044713   0.005171
    14  H   -0.002635  -0.000989  -0.000194
    15  N    0.000460   0.004144  -0.039874
    16  C   -0.000073  -0.000072   0.402912
    17  H   -0.000000   0.000000  -0.000064
    18  H    0.000002  -0.000001   0.000004
    19  H   -0.000027   0.000023   0.000068
    20  H    0.000011  -0.000036  -0.000000
    21  H   -0.000086  -0.000075  -0.000000
    22  H   -0.000082   0.002478   0.000000
    23  H   -0.002116   0.003825  -0.000021
    24  H   -0.002370  -0.002791  -0.000000
    25  H    0.510859  -0.023014  -0.000007
    26  H   -0.023014   0.559851   0.000001
    27  H   -0.000007   0.000001   0.461761
 Mulliken charges:
               1
     1  O   -0.455997
     2  N    0.505003
     3  O   -0.485347
     4  C   -0.026252
     5  C    0.197867
     6  N   -0.798529
     7  C    0.065005
     8  H    0.178634
     9  C   -0.312105
    10  C   -0.321176
    11  C   -0.315099
    12  C   -0.312652
    13  C   -0.031918
    14  H    0.195201
    15  N   -0.486265
    16  C    0.133526
    17  H    0.286571
    18  H    0.396495
    19  H    0.189380
    20  H    0.154092
    21  H    0.172492
    22  H    0.149519
    23  H    0.191085
    24  H    0.162711
    25  H    0.183410
    26  H    0.152928
    27  H    0.231421
 Sum of Mulliken charges =  -0.00000
 Mulliken charges with hydrogens summed into heavy atoms:
               1
     1  O   -0.455997
     2  N    0.505003
     3  O   -0.485347
     4  C   -0.026252
     5  C    0.484438
     6  N   -0.402034
     7  C    0.243640
     9  C    0.031367
    10  C    0.000834
    11  C    0.038697
    12  C    0.023685
    13  C    0.163283
    15  N   -0.486265
    16  C    0.364947
 Electronic spatial extent (au):  <R**2>=           3115.2876
 Charge=             -0.0000 electrons
 Dipole moment (field-independent basis, Debye):
    X=              5.3390    Y=              4.5520    Z=              0.1219  Tot=              7.0172
 Quadrupole moment (field-independent basis, Debye-Ang):
   XX=           -105.2675   YY=            -80.6340   ZZ=            -82.0593
   XY=             -2.4960   XZ=              2.3356   YZ=             -0.2585
 Traceless Quadrupole moment (field-independent basis, Debye-Ang):
   XX=            -15.9472   YY=              8.6863   ZZ=              7.2609
   XY=             -2.4960   XZ=              2.3356   YZ=             -0.2585
 Octapole moment (field-independent basis, Debye-Ang**2):
  XXX=             99.4429  YYY=             39.1468  ZZZ=             -8.6049  XYY=             -0.7370
  XXY=             14.0707  XXZ=             -7.6604  XZZ=             -8.5154  YZZ=             -2.8440
  YYZ=             -1.2304  XYZ=             -1.7589
 Hexadecapole moment (field-independent basis, Debye-Ang**3):
 XXXX=          -3536.7232 YYYY=           -623.1078 ZZZZ=           -299.6723 XXXY=            -55.8810
 XXXZ=             77.0247 YYYX=            -33.1294 YYYZ=              9.3976 ZZZX=             46.4114
 ZZZY=             12.4789 XXYY=           -654.8607 XXZZ=           -542.8689 YYZZ=           -164.1005
 XXYZ=              2.6873 YYXZ=             19.1275 ZZXY=              0.9721
 N-N= 9.182402752940D+02 E-N=-3.382493887710D+03  KE= 6.588546941998D+02
 Calling FoFJK, ICntrl=  10002127 FMM=F ISym2X=0 I1Cent= 0 IOpClX= 0 NMat=1 NMatS=1 NMatT=0.
 -------------------------------------------------------------------
 Center     Atomic                   Forces (Hartrees/Bohr)
 Number     Number              X              Y              Z
 -------------------------------------------------------------------
      1        8           0.003092980   -0.019426109   -0.004379134
      2        7           0.038685354    0.015682980   -0.003874340
      3        8          -0.005780091    0.015432943    0.004227480
      4        6          -0.005009544    0.012909884    0.009519187
      5        6           0.002639755   -0.019325184   -0.003665991
      6        7           0.015257526   -0.011683446   -0.005528406
      7        6          -0.004809520    0.005032810    0.002918968
      8        1          -0.009341659   -0.002181819   -0.007744637
      9        6          -0.004204589   -0.000221832   -0.002369189
     10        6           0.002870543   -0.000761520    0.001184640
     11        6          -0.001219891   -0.004786834   -0.002653695
     12        6           0.001061758   -0.008397734   -0.002644699
     13        6           0.008313409   -0.004234047    0.008436539
     14        1           0.000971677    0.005071281   -0.009446855
     15        7          -0.000529813    0.005771999   -0.005152955
     16        6          -0.016753290    0.008654147    0.001862925
     17        1           0.006602351   -0.005441093   -0.007497890
     18        1          -0.016987455   -0.001660048    0.006995306
     19        1           0.003040165    0.006005935    0.007733138
     20        1          -0.003379079   -0.007250185    0.002593141
     21        1          -0.004612309    0.002439529    0.009498811
     22        1          -0.003795722   -0.003998404   -0.007512699
     23        1           0.003899972    0.006213466    0.009368656
     24        1          -0.009312568    0.002690401   -0.002338881
     25        1          -0.000631559    0.010571576   -0.002356276
     26        1          -0.004722367   -0.004853672   -0.004487180
     27        1           0.004653967   -0.002255026    0.007314034
 -------------------------------------------------------------------
 Cartesian Forces:  Max     0.038685354 RMS     0.008556205

 GradGradGradGradGradGradGradGradGradGradGradGradGradGradGradGradGradGrad
 Berny optimization.
 FormGI is forming the generalized inverse of G from B-inverse, IUseBI=4.
 Internal  Forces:  Max     0.037872726 RMS     0.006864147
 Search for a local minimum.
 Step number   1 out of a maximum of   20
 All quantities printed in internal units (Hartrees-Bohrs-Radians)
 Mixed Optimization -- RFO/linear search
 Second derivative matrix not updated -- first step.
 ITU=  0
     Eigenvalues ---    0.00230   0.00764   0.01054   0.01146   0.01191
     Eigenvalues ---    0.01524   0.01625   0.01952   0.02002   0.02085
     Eigenvalues ---    0.02674   0.03651   0.04497   0.04693   0.04837
     Eigenvalues ---    0.05080   0.05135   0.05301   0.05886   0.06269
     Eigenvalues ---    0.07217   0.07707   0.07723   0.07869   0.07996
     Eigenvalues ---    0.08054   0.08081   0.10464   0.11738   0.12280
     Eigenvalues ---    0.13601   0.15267   0.15799   0.15973   0.16012
     Eigenvalues ---    0.20019   0.21796   0.22822   0.24949   0.25000
     Eigenvalues ---    0.25000   0.25293   0.26054   0.26653   0.27981
     Eigenvalues ---    0.28089   0.28418   0.29875   0.31342   0.31463
     Eigenvalues ---    0.32041   0.32234   0.32286   0.32377   0.32388
     Eigenvalues ---    0.32405   0.32514   0.32522   0.32574   0.33284
     Eigenvalues ---    0.33391   0.33623   0.35276   0.43879   0.44117
     Eigenvalues ---    0.48803   0.66685   0.90468   0.911811000.00000
     Eigenvalues --- 1000.000001000.000001000.000001000.000001000.00000
     Eigenvalues --- 1000.000001000.000001000.000001000.000001000.00000
     Eigenvalues --- 1000.000001000.000001000.000001000.000001000.00000
     Eigenvalues --- 1000.000001000.000001000.000001000.000001000.00000
     Eigenvalues --- 1000.000001000.000001000.000001000.000001000.00000
     Eigenvalues --- 1000.000001000.000001000.000001000.000001000.00000
     Eigenvalues --- 1000.000001000.000001000.000001000.000001000.00000
     Eigenvalues --- 1000.000001000.000001000.000001000.000001000.00000
     Eigenvalues --- 1000.000001000.000001000.000001000.000001000.00000
     Eigenvalues --- 1000.000001000.000001000.000001000.000001000.00000
     Eigenvalues --- 1000.000001000.000001000.000001000.000001000.00000
     Eigenvalues --- 1000.000001000.000001000.000001000.000001000.00000
     Eigenvalues --- 1000.000001000.000001000.000001000.000001000.00000
     Eigenvalues --- 1000.000001000.000001000.000001000.000001000.00000
     Eigenvalues --- 1000.000001000.000001000.000001000.000001000.00000
     Eigenvalues --- 1000.000001000.000001000.000001000.000001000.00000
     Eigenvalues --- 1000.000001000.000001000.000001000.000001000.00000
     Eigenvalues --- 1000.000001000.000001000.000001000.000001000.00000
     Eigenvalues --- 1000.00000
 RFO step:  Lambda=-2.38852643D-02 EMin= 2.30172394D-03
 Linear search not attempted -- first point.
 Iteration  1 RMS(Cart)=  0.05552099 RMS(Int)=  0.00097052
 Iteration  2 RMS(Cart)=  0.00105449 RMS(Int)=  0.00020759
 Iteration  3 RMS(Cart)=  0.00000096 RMS(Int)=  0.00020759
 Iteration  1 RMS(Cart)=  0.00003826 RMS(Int)=  0.00003122
 Iteration  2 RMS(Cart)=  0.00001938 RMS(Int)=  0.00003472
 Iteration  3 RMS(Cart)=  0.00001076 RMS(Int)=  0.00003891
 Iteration  4 RMS(Cart)=  0.00000642 RMS(Int)=  0.00004175
 Iteration  5 RMS(Cart)=  0.00000403 RMS(Int)=  0.00004353
 Iteration  6 RMS(Cart)=  0.00000263 RMS(Int)=  0.00004465
 Iteration  7 RMS(Cart)=  0.00000179 RMS(Int)=  0.00004535
 Iteration  8 RMS(Cart)=  0.00000127 RMS(Int)=  0.00004580
 Iteration  9 RMS(Cart)=  0.00000095 RMS(Int)=  0.00004609
 Variable       Old X    -DE/DX   Delta X   Delta X   Delta X     New X
                                 (Linear)    (Quad)   (Total)
    R1        2.32393   0.01823   0.00000   0.01949   0.01949   2.34342
    R2        2.32718   0.01598   0.00000   0.01721   0.01721   2.34440
    R3        2.88214  -0.03787   0.00000  -0.11739  -0.11739   2.76475
    R4        2.64477  -0.03654   0.00000  -0.07947  -0.07928   2.56548
    R5        2.80722  -0.01852   0.00000  -0.05273  -0.05254   2.75468
    R6        2.59245  -0.02326   0.00000  -0.04626  -0.04618   2.54627
    R7        2.08371  -0.01014   0.00000  -0.02834  -0.02834   2.05537
    R8        2.82865  -0.01956   0.00000  -0.05516  -0.05522   2.77343
    R9        1.93300  -0.00688   0.00000  -0.01487  -0.01487   1.91813
   R10        2.11838  -0.01166   0.00000  -0.03445  -0.03445   2.08393
   R11        2.92709  -0.01311   0.00000  -0.04435  -0.04439   2.88270
   R12        2.90719  -0.00577   0.00000  -0.01170  -0.01168   2.89551
   R13        2.91118  -0.00464   0.00000  -0.01416  -0.01418   2.89700
   R14        2.09913  -0.01005   0.00000  -0.02880  -0.02880   2.07033
   R15        2.09900  -0.00798   0.00000  -0.02285  -0.02285   2.07614
   R16        2.90419  -0.00199   0.00000  -0.00750  -0.00755   2.89664
   R17        2.10140  -0.01058   0.00000  -0.03044  -0.03044   2.07096
   R18        2.10323  -0.00903   0.00000  -0.02603  -0.02603   2.07720
   R19        2.91782  -0.00895   0.00000  -0.02862  -0.02858   2.88924
   R20        2.10417  -0.01176   0.00000  -0.03397  -0.03397   2.07019
   R21        2.10109  -0.00995   0.00000  -0.02860  -0.02860   2.07249
   R22        2.93526  -0.01048   0.00000  -0.03626  -0.03625   2.89901
   R23        2.10160  -0.01068   0.00000  -0.03073  -0.03073   2.07086
   R24        2.09807  -0.00791   0.00000  -0.02262  -0.02262   2.07545
   R25        2.10768  -0.00877   0.00000  -0.02547  -0.02547   2.08221
   R26        2.76907  -0.00504   0.00000  -0.01017  -0.01045   2.75862
   R27        2.44367  -0.00794   0.00000  -0.01057  -0.01063   2.43304
   R28        2.07972  -0.00581   0.00000  -0.01614  -0.01614   2.06357
    A1        2.16070   0.01109   0.00000   0.04052   0.04049   2.20119
    A2        2.05248  -0.00880   0.00000  -0.03210  -0.03213   2.02035
    A3        2.06997  -0.00229   0.00000  -0.00833  -0.00836   2.06161
    A4        2.03985  -0.00589   0.00000  -0.02102  -0.02140   2.01844
    A5        2.03580  -0.00364   0.00000  -0.01236  -0.01282   2.02298
    A6        2.20562   0.00946   0.00000   0.03060   0.03045   2.23607
    A7        2.18933   0.00546   0.00000   0.01486   0.01503   2.20436
    A8        2.06785  -0.00294   0.00000  -0.00846  -0.00860   2.05926
    A9        2.02420  -0.00245   0.00000  -0.00542  -0.00559   2.01861
   A10        2.24600  -0.00444   0.00000  -0.01577  -0.01588   2.23012
   A11        2.12405  -0.01263   0.00000  -0.07173  -0.07191   2.05214
   A12        1.88347   0.01727   0.00000   0.09207   0.09224   1.97571
   A13        1.83620  -0.00109   0.00000  -0.01603  -0.01586   1.82035
   A14        2.00581  -0.00159   0.00000  -0.01501  -0.01494   1.99087
   A15        1.97025   0.00105   0.00000   0.00818   0.00770   1.97794
   A16        1.85086   0.00260   0.00000   0.02300   0.02284   1.87370
   A17        1.84718   0.00041   0.00000   0.01258   0.01249   1.85967
   A18        1.93885  -0.00105   0.00000  -0.00922  -0.00889   1.92996
   A19        1.91131  -0.00001   0.00000  -0.00417  -0.00432   1.90698
   A20        1.92254  -0.00066   0.00000  -0.01186  -0.01182   1.91072
   A21        1.92279  -0.00161   0.00000  -0.00813  -0.00811   1.91467
   A22        1.91889  -0.00027   0.00000   0.00637   0.00636   1.92524
   A23        1.90382   0.00300   0.00000   0.02336   0.02337   1.92719
   A24        1.88427  -0.00042   0.00000  -0.00517  -0.00542   1.87885
   A25        1.94066  -0.00092   0.00000   0.00580   0.00568   1.94634
   A26        1.91903  -0.00073   0.00000  -0.00666  -0.00667   1.91235
   A27        1.90489   0.00038   0.00000  -0.00306  -0.00311   1.90177
   A28        1.91611   0.00088   0.00000   0.00732   0.00737   1.92347
   A29        1.89834   0.00163   0.00000   0.01065   0.01068   1.90903
   A30        1.88376  -0.00123   0.00000  -0.01455  -0.01464   1.86913
   A31        1.94511   0.00049   0.00000   0.00448   0.00462   1.94973
   A32        1.90221   0.00058   0.00000   0.00550   0.00544   1.90765
   A33        1.91764   0.00047   0.00000   0.00546   0.00544   1.92308
   A34        1.90593  -0.00093   0.00000  -0.01300  -0.01305   1.89288
   A35        1.91541  -0.00054   0.00000  -0.00018  -0.00026   1.91515
   A36        1.87614  -0.00009   0.00000  -0.00262  -0.00264   1.87350
   A37        1.95056  -0.00291   0.00000  -0.01781  -0.01782   1.93274
   A38        1.90562   0.00248   0.00000   0.01683   0.01668   1.92229
   A39        1.90986   0.00145   0.00000   0.01348   0.01346   1.92332
   A40        1.90561   0.00021   0.00000  -0.00261  -0.00245   1.90316
   A41        1.91041  -0.00026   0.00000  -0.00507  -0.00503   1.90538
   A42        1.88044  -0.00090   0.00000  -0.00436  -0.00455   1.87590
   A43        1.84719   0.00450   0.00000   0.02502   0.02506   1.87225
   A44        1.94221  -0.00420   0.00000  -0.03349  -0.03394   1.90827
   A45        1.97484  -0.00000   0.00000   0.00336   0.00342   1.97826
   A46        1.87765   0.00216   0.00000   0.03147   0.03182   1.90948
   A47        1.89269  -0.00329   0.00000  -0.02497  -0.02492   1.86777
   A48        1.92449   0.00109   0.00000   0.00133   0.00134   1.92583
   A49        2.06837  -0.00558   0.00000  -0.01229  -0.01264   2.05573
   A50        2.23653  -0.00414   0.00000  -0.01779  -0.01758   2.21896
   A51        1.97914   0.00683   0.00000   0.03530   0.03520   2.01435
   A52        2.06557  -0.00265   0.00000  -0.01755  -0.01766   2.04791
    D1       -3.05975  -0.00102   0.00000  -0.04374  -0.04279  -3.10254
    D2        0.14414  -0.00028   0.00000   0.00000  -0.00000   0.14414
    D3        0.08875  -0.00130   0.00000  -0.05744  -0.05697   0.03178
    D4       -2.99055  -0.00056   0.00000  -0.01370  -0.01418  -3.00473
    D5        3.05461  -0.00014   0.00000   0.01049   0.01044   3.06504
    D6       -0.01967  -0.00125   0.00000  -0.00751  -0.00755  -0.02723
    D7       -0.15615  -0.00158   0.00000  -0.04008  -0.04061  -0.19677
    D8        3.05275  -0.00268   0.00000  -0.05808  -0.05860   2.99415
    D9       -2.57568  -0.00232   0.00000  -0.05176  -0.05238  -2.62806
   D10        0.63475  -0.00292   0.00000  -0.05078  -0.05145   0.58330
   D11        0.63494  -0.00081   0.00000  -0.00099  -0.00092   0.63402
   D12       -2.43782  -0.00140   0.00000   0.00000   0.00000  -2.43782
   D13       -0.21411   0.00007   0.00000   0.04028   0.04036  -0.17374
   D14        2.63558   0.00361   0.00000   0.07575   0.07505   2.71063
   D15        2.86167   0.00112   0.00000   0.05775   0.05786   2.91953
   D16       -0.57183   0.00466   0.00000   0.09322   0.09254  -0.47928
   D17       -2.38932  -0.00081   0.00000  -0.02813  -0.02778  -2.41710
   D18        1.86505  -0.00244   0.00000  -0.03786  -0.03761   1.82744
   D19       -0.38321  -0.00045   0.00000  -0.01855  -0.01853  -0.40174
   D20        1.01253  -0.00038   0.00000  -0.03985  -0.04018   0.97235
   D21       -1.01629  -0.00201   0.00000  -0.04957  -0.05001  -1.06630
   D22        3.01864  -0.00002   0.00000  -0.03027  -0.03093   2.98771
   D23        2.94232   0.00227   0.00000   0.01973   0.01963   2.96195
   D24       -1.22846   0.00151   0.00000   0.01743   0.01734  -1.21112
   D25        0.84838  -0.00042   0.00000  -0.00140  -0.00140   0.84698
   D26        0.92190   0.00277   0.00000   0.03253   0.03253   0.95443
   D27        3.03430   0.00202   0.00000   0.03023   0.03024   3.06455
   D28       -1.17204   0.00008   0.00000   0.01140   0.01150  -1.16054
   D29       -1.07709   0.00137   0.00000   0.00947   0.00943  -1.06766
   D30        1.03531   0.00061   0.00000   0.00717   0.00714   1.04245
   D31        3.11216  -0.00132   0.00000  -0.01166  -0.01161   3.10055
   D32       -2.90357  -0.00137   0.00000  -0.01258  -0.01243  -2.91600
   D33       -0.86888   0.00165   0.00000   0.02214   0.02187  -0.84702
   D34        1.30938  -0.00023   0.00000   0.00000   0.00000   1.30939
   D35       -0.90408  -0.00190   0.00000  -0.02017  -0.02005  -0.92413
   D36        1.13061   0.00111   0.00000   0.01455   0.01424   1.14485
   D37       -2.97431  -0.00077   0.00000  -0.00759  -0.00762  -2.98193
   D38        1.09720   0.00087   0.00000   0.00939   0.00948   1.10669
   D39        3.13190   0.00388   0.00000   0.04411   0.04378  -3.10751
   D40       -0.97302   0.00200   0.00000   0.02198   0.02191  -0.95111
   D41        0.95665   0.00060   0.00000   0.00000   0.00001   0.95666
   D42        3.08247   0.00060   0.00000   0.00858   0.00854   3.09101
   D43       -1.13754  -0.00110   0.00000  -0.01486  -0.01483  -1.15237
   D44       -1.15797   0.00159   0.00000   0.01331   0.01338  -1.14459
   D45        0.96786   0.00159   0.00000   0.02189   0.02191   0.98977
   D46        3.03103  -0.00011   0.00000  -0.00155  -0.00146   3.02957
   D47        3.06215   0.00047   0.00000   0.00189   0.00185   3.06401
   D48       -1.09521   0.00047   0.00000   0.01048   0.01039  -1.08482
   D49        0.96796  -0.00124   0.00000  -0.01297  -0.01298   0.95498
   D50       -0.92192  -0.00093   0.00000   0.00000   0.00001  -0.92191
   D51        1.18275  -0.00140   0.00000  -0.00975  -0.00976   1.17299
   D52       -3.04889  -0.00090   0.00000  -0.00653  -0.00657  -3.05546
   D53       -3.04944   0.00000   0.00000  -0.00044  -0.00042  -3.04986
   D54       -0.94477  -0.00046   0.00000  -0.01019  -0.01019  -0.95495
   D55        1.10677   0.00004   0.00000  -0.00697  -0.00699   1.09978
   D56        1.17615   0.00003   0.00000   0.00669   0.00672   1.18287
   D57       -3.00236  -0.00044   0.00000  -0.00306  -0.00305  -3.00541
   D58       -0.95083   0.00006   0.00000   0.00016   0.00014  -0.95068
   D59        0.98633  -0.00084   0.00000  -0.01266  -0.01272   0.97360
   D60        3.09635  -0.00078   0.00000  -0.01607  -0.01623   3.08011
   D61       -1.13261   0.00041   0.00000  -0.00377  -0.00375  -1.13637
   D62       -1.11617  -0.00126   0.00000  -0.01378  -0.01379  -1.12995
   D63        0.99385  -0.00121   0.00000  -0.01720  -0.01730   0.97656
   D64        3.04808  -0.00001   0.00000  -0.00489  -0.00482   3.04326
   D65        3.11459  -0.00030   0.00000  -0.00288  -0.00289   3.11170
   D66       -1.05858  -0.00024   0.00000  -0.00629  -0.00640  -1.06497
   D67        0.99565   0.00096   0.00000   0.00601   0.00608   1.00173
   D68       -1.04708   0.00021   0.00000   0.00073   0.00085  -1.04623
   D69       -3.12494   0.00168   0.00000   0.01089   0.01051  -3.11443
   D70        1.07687   0.00099   0.00000   0.00543   0.00529   1.08216
   D71        3.12609  -0.00116   0.00000  -0.00716  -0.00696   3.11913
   D72        1.04822   0.00031   0.00000   0.00300   0.00270   1.05092
   D73       -1.03315  -0.00038   0.00000  -0.00246  -0.00253  -1.03568
   D74        1.07154  -0.00005   0.00000   0.00256   0.00280   1.07434
   D75       -1.00633   0.00142   0.00000   0.01273   0.01246  -0.99387
   D76       -3.08770   0.00073   0.00000   0.00726   0.00724  -3.08046
   D77       -1.17217   0.00287   0.00000   0.00000   0.00001  -1.17217
   D78        3.06734  -0.00056   0.00000  -0.01674  -0.01672   3.05062
   D79        1.01567  -0.00185   0.00000  -0.04077  -0.04108   0.97458
   D80        0.04108   0.00406   0.00000   0.02768   0.02748   0.06856
   D81        3.11088   0.00500   0.00000   0.02843   0.02833   3.13922
         Item               Value     Threshold  Converged?
 Maximum Force            0.037873     0.000450     NO 
 RMS     Force            0.006978     0.000300     NO 
 Maximum Displacement     0.268885     0.001800     NO 
 RMS     Displacement     0.055767     0.001200     NO 
 Predicted change in Energy=-1.345357D-02
 GradGradGradGradGradGradGradGradGradGradGradGradGradGradGradGradGradGrad

                          Input orientation:                          
 ---------------------------------------------------------------------
 Center     Atomic      Atomic             Coordinates (Angstroms)
 Number     Number       Type             X           Y           Z
 ---------------------------------------------------------------------
      1          8           0       -3.440635   -1.467257   -0.135106
      2          7           0       -3.117497   -0.286471    0.062723
      3          8           0       -3.889582    0.649474    0.321535
      4          6           0       -1.685123    0.001867   -0.012526
      5          6           0       -1.329420    1.285271    0.250940
      6          7           0       -0.072714    1.765868    0.323582
      7          6           0        1.181683    1.004144    0.338305
      8          1           0        1.800351    1.512869    1.096295
      9          6           0        1.950192    1.045604   -0.978776
     10          6           0        3.344310    0.443087   -0.770028
     11          6           0        3.263828   -0.968408   -0.177758
     12          6           0        2.409488   -1.002058    1.089746
     13          6           0        1.008073   -0.441582    0.815264
     14          1           0        0.421265   -0.450116    1.747830
     15          7           0        0.388734   -1.309307   -0.181970
     16          6           0       -0.840824   -1.085624   -0.491542
     17          1           0       -2.120142    1.999588    0.468890
     18          1           0        0.062775    2.755977    0.145780
     19          1           0        1.401514    0.479866   -1.739808
     20          1           0        2.029851    2.084017   -1.328604
     21          1           0        3.882191    0.422934   -1.724640
     22          1           0        3.915680    1.091576   -0.090870
     23          1           0        2.817870   -1.645377   -0.914612
     24          1           0        4.270195   -1.343683    0.044008
     25          1           0        2.317739   -2.030913    1.455716
     26          1           0        2.885303   -0.410727    1.883566
     27          1           0       -1.296112   -1.737620   -1.239921
 ---------------------------------------------------------------------
                    Distance matrix (angstroms):
                    1          2          3          4          5
     1  O    0.000000
     2  N    1.240085   0.000000
     3  O    2.211476   1.240601   0.000000
     4  C    2.292417   1.463043   2.321773   0.000000
     5  C    3.490369   2.388099   2.638873   1.357595   0.000000
     6  N    4.691097   3.681148   3.976786   2.413407   1.347428
     7  C    5.262867   4.497175   5.083680   3.057159   2.528301
     8  H    6.153490   5.337708   5.806982   3.957416   3.249906
     9  C    6.007268   5.342342   5.995889   3.903657   3.510768
    10  C    7.077289   6.555965   7.318696   5.105261   4.857510
    11  C    6.723132   6.422164   7.351063   5.045876   5.134276
    12  C    5.995049   5.666957   6.557133   4.357604   4.462612
    13  C    4.663285   4.196512   5.041944   2.852226   2.960466
    14  H    4.415235   3.922907   4.671918   2.782088   2.883946
    15  N    3.832912   3.660564   4.732265   2.459426   3.141863
    16  C    2.651737   2.475701   3.600914   1.457715   2.532025
    17  H    3.758661   2.527005   2.230569   2.100450   1.087654
    18  H    5.494405   4.401990   4.482117   3.265782   2.027866
    19  H    5.460107   4.925227   5.680986   3.569218   3.474156
    20  H    6.630400   5.835254   6.310353   4.457403   3.797059
    21  H    7.728080   7.259033   8.039814   5.839831   5.639808
    22  H    7.788771   7.168555   7.828643   5.706365   5.259793
    23  H    6.309378   6.166879   7.196133   4.878947   5.210300
    24  H    7.713900   7.462978   8.404264   6.105695   6.189499
    25  H    6.000608   5.875823   6.855777   4.723435   5.074478
    26  H    6.723748   6.274115   7.032996   4.965299   4.827605
    27  H    2.427486   2.668362   3.855185   2.164172   3.370704
                    6          7          8          9         10
     6  N    0.000000
     7  C    1.467634   0.000000
     8  H    2.041926   1.102769   0.000000
     9  C    2.511386   1.525460   2.132301   0.000000
    10  C    3.823844   2.494022   2.647906   1.533026   0.000000
    11  C    4.342824   2.914209   3.149876   2.534466   1.532834
    12  C    3.796017   2.469213   2.587653   2.946635   2.533989
    13  C    2.506529   1.532238   2.127572   2.513541   2.958681
    14  H    2.680127   2.163300   2.485898   3.465426   3.960002
    15  N    3.150432   2.500303   3.404601   2.935755   3.485990
    16  C    3.063565   3.024287   4.031029   3.545321   4.464287
    17  H    2.065842   3.451088   4.000099   4.424188   5.815312
    18  H    1.015030   2.087567   2.338367   2.784302   4.117843
    19  H    2.843366   2.154471   3.044609   1.095571   2.171700
    20  H    2.692901   2.159653   2.501802   1.098647   2.175422
    21  H    4.651877   3.447650   3.671470   2.162557   1.095904
    22  H    4.066168   2.768858   2.462004   2.157229   1.099208
    23  H    4.639525   3.356617   3.879899   2.828138   2.158640
    24  H    5.348674   3.890733   3.920118   3.483847   2.170821
    25  H    4.627260   3.427944   3.599343   3.940406   3.482594
    26  H    3.990110   2.700373   2.344598   3.344897   2.825110
    27  H    4.026869   4.018400   5.060797   4.284043   5.148767
                   11         12         13         14         15
    11  C    0.000000
    12  C    1.528920   0.000000
    13  C    2.520331   1.534091   0.000000
    14  H    3.472274   2.165813   1.101860   0.000000
    15  N    2.895237   2.407304   1.459797   2.112676   0.000000
    16  C    4.118297   3.615520   2.353923   2.647929   1.287510
    17  H    6.181771   5.469267   3.983091   3.754395   4.203197
    18  H    4.921632   4.530006   3.400908   3.601959   4.091479
    19  H    2.829437   3.349401   2.744496   3.740237   2.579481
    20  H    3.487757   3.939086   3.466821   4.298118   3.939883
    21  H    2.170496   3.481412   3.931801   4.979787   4.193415
    22  H    2.162406   2.836508   3.409667   4.238935   4.267539
    23  H    1.095500   2.144316   2.777942   3.776370   2.559377
    24  H    1.096715   2.161598   3.471319   4.302991   3.888185
    25  H    2.166157   1.095853   2.156705   2.486135   2.631309
    26  H    2.168720   1.098282   2.160142   2.468088   3.362550
    27  H    4.744780   4.438454   3.348548   3.678819   2.035047
                   16         17         18         19         20
    16  C    0.000000
    17  H    3.475286   0.000000
    18  H    3.997570   2.332735   0.000000
    19  H    3.006162   4.426055   3.244741   0.000000
    20  H    4.357530   4.523334   2.548475   1.771213   0.000000
    21  H    5.109124   6.582204   4.850721   2.481376   2.519366
    22  H    5.246434   6.129353   4.203701   3.068259   2.464401
    23  H    3.725367   6.291567   5.299707   2.683966   3.834155
    24  H    5.145476   7.224568   5.875367   3.838835   4.318834
    25  H    3.829087   6.075652   5.451156   4.165915   4.976742
    26  H    4.469972   5.732836   4.584165   4.015423   4.156150
    27  H    1.091997   4.191155   4.894809   3.527651   5.067031
                   21         22         23         24         25
    21  H    0.000000
    22  H    1.765618   0.000000
    23  H    2.463095   3.061805   0.000000
    24  H    2.529743   2.464621   1.766131   0.000000
    25  H    4.310863   3.833443   2.453003   2.505452   0.000000
    26  H    3.835092   2.686446   3.059201   2.484413   1.769234
    27  H    5.631853   6.040484   4.127855   5.726031   4.518008
                   26         27
    26  H    0.000000
    27  H    5.385262   0.000000
 Symmetry turned off by external request.
 Stoichiometry    C9H13N3O2
 Framework group  C1[X(C9H13N3O2)]
 Deg. of freedom    75
 Full point group                 C1      NOp   1
 Rotational constants (GHZ):           1.6932327           0.4231260           0.3732699
 Standard basis: 6-31G(d) (6D, 7F)
   236 basis functions,   444 primitive gaussians,   236 cartesian basis functions
    52 alpha electrons       52 beta electrons
       nuclear repulsion energy       932.8245480861 Hartrees.
 NAtoms=   27 NActive=   27 NUniq=   27 SFac= 1.00D+00 NAtFMM=   60 NAOKFM=F Big=F
 Integral buffers will be    131072 words long.
 Raffenetti 1 integral format.
 Two-electron integral symmetry is turned off.
 One-electron integrals computed using PRISM.
 NBasis=   236 RedAO= T EigKep=  1.02D-03  NBF=   236
 NBsUse=   236 1.00D-06 EigRej= -1.00D+00 NBFU=   236
 Initial guess from the checkpoint file:  "/home/alexey/tmp/Gau-1498066.chk"
 B after Tr=     0.054130    0.008829   -0.004773
         Rot=    0.999997   -0.001543    0.001331    0.001376 Ang=  -0.28 deg.
 ExpMin= 1.61D-01 ExpMax= 5.48D+03 ExpMxC= 8.25D+02 IAcc=3 IRadAn=         5 AccDes= 0.00D+00
 Harris functional with IExCor=  205 and IRadAn=       5 diagonalized for initial guess.
 HarFok:  IExCor=  205 AccDes= 0.00D+00 IRadAn=         5 IDoV= 1 UseB2=F ITyADJ=14
 ICtDFT=  3500011 ScaDFX=  1.000000  1.000000  1.000000  1.000000
 FoFCou: FMM=F IPFlag=           0 FMFlag=      100000 FMFlg1=           0
         NFxFlg=           0 DoJE=T BraDBF=F KetDBF=T FulRan=T
         wScrn=  0.000000 ICntrl=       500 IOpCl=  0 I1Cent=   200000004 NGrid=           0
         NMat0=    1 NMatS0=      1 NMatT0=    0 NMatD0=    1 NMtDS0=    0 NMtDT0=    0
 Symmetry not used in FoFCou.
 Keep R1 ints in memory in canonical form, NReq=397720213.
 Requested convergence on RMS density matrix=1.00D-08 within 128 cycles.
 Requested convergence on MAX density matrix=1.00D-06.
 Requested convergence on             energy=1.00D-06.
 No special actions if energy rises.
 SCF Done:  E(RHF) =  -661.296450419     A.U. after   15 cycles
            NFock= 15  Conv=0.36D-08     -V/T= 2.0024
 ExpMin= 1.61D-01 ExpMax= 5.48D+03 ExpMxC= 8.25D+02 IAcc=3 IRadAn=         5 AccDes= 0.00D+00
 HarFok:  IExCor=  205 AccDes= 0.00D+00 IRadAn=         5 IDoV=-2 UseB2=F ITyADJ=14
 ICtDFT= 12500011 ScaDFX=  1.000000  1.000000  1.000000  1.000000
 Range of M.O.s used for correlation:    15   236
 NBasis=   236 NAE=    52 NBE=    52 NFC=    14 NFV=     0
 NROrb=    222 NOA=    38 NOB=    38 NVA=   184 NVB=   184
 Fully direct method using O(ONN) memory.
 JobTyp=1 Pass  1:  I=  15 to  52 NPSUse=  4 ParTrn=T ParDer=T DoDerP=T.
 Spin components of T(2) and E(2):
     alpha-alpha T2 =       0.9117952762D-01 E2=     -0.2722484028D+00
     alpha-beta  T2 =       0.4915240171D+00 E2=     -0.1488356839D+01
     beta-beta   T2 =       0.9117952762D-01 E2=     -0.2722484028D+00
 ANorm=    0.1293786332D+01
 E2 =    -0.2032853645D+01 EUMP2 =    -0.66332930406389D+03
          IDoAtm=111111111111111111111111111
          Differentiating once with respect to electric field.
                with respect to dipole field.
          Differentiating once with respect to nuclear coordinates.
 Keep R1 ints in memory in canonical form, NReq=397723379.
          There are     1 degrees of freedom in the 1st order CPHF.  IDoFFX=0 NUNeed=     1.
 LinEq1:  Iter=  0 NonCon=     1 RMS=4.55D-03 Max=1.05D-01 NDo=     1
 AX will form     1 AO Fock derivatives at one time.
 LinEq1:  Iter=  1 NonCon=     1 RMS=1.53D-03 Max=2.58D-02 NDo=     1
 LinEq1:  Iter=  2 NonCon=     1 RMS=6.36D-04 Max=1.78D-02 NDo=     1
 LinEq1:  Iter=  3 NonCon=     1 RMS=2.79D-04 Max=8.02D-03 NDo=     1
 LinEq1:  Iter=  4 NonCon=     1 RMS=8.60D-05 Max=1.77D-03 NDo=     1
 LinEq1:  Iter=  5 NonCon=     1 RMS=3.61D-05 Max=1.83D-03 NDo=     1
 LinEq1:  Iter=  6 NonCon=     1 RMS=1.40D-05 Max=5.30D-04 NDo=     1
 LinEq1:  Iter=  7 NonCon=     1 RMS=5.42D-06 Max=1.08D-04 NDo=     1
 LinEq1:  Iter=  8 NonCon=     1 RMS=2.18D-06 Max=6.26D-05 NDo=     1
 LinEq1:  Iter=  9 NonCon=     1 RMS=8.11D-07 Max=2.45D-05 NDo=     1
 LinEq1:  Iter= 10 NonCon=     1 RMS=4.09D-07 Max=1.69D-05 NDo=     1
[...]
    26  H    2.175453   1.098741   2.165671   2.493877   3.365920
    27  H    4.707608   4.428843   3.355542   3.684847   2.029233
                   16         17         18         19         20
    16  C    0.000000
    17  H    3.458545   0.000000
    18  H    4.069732   2.244429   0.000000
    19  H    2.982652   4.324656   3.483814   0.000000
    20  H    4.358003   4.459732   2.837684   1.768258   0.000000
    21  H    5.092659   6.524269   5.057388   2.498321   2.520409
    22  H    5.238588   6.103899   4.295261   3.069913   2.459756
    23  H    3.704998   6.252573   5.415268   2.706466   3.843322
    24  H    5.138488   7.209943   5.932520   3.850951   4.316115
    25  H    3.828021   6.094743   5.389802   4.173882   4.984724
    26  H    4.491241   5.782204   4.506136   4.039126   4.182847
    27  H    1.089907   4.179817   5.013201   3.491462   5.054590
                   21         22         23         24         25
    21  H    0.000000
    22  H    1.758822   0.000000
    23  H    2.469011   3.061804   0.000000
    24  H    2.517403   2.459053   1.764593   0.000000
    25  H    4.312036   3.839352   2.444432   2.519780   0.000000
    26  H    3.846954   2.704622   3.060413   2.489812   1.767455
    27  H    5.588003   6.009591   4.077615   5.688679   4.495775
                   26         27
    26  H    0.000000
    27  H    5.386769   0.000000
 Symmetry turned off by external request.
 Stoichiometry    C9H13N3O2
 Framework group  C1[X(C9H13N3O2)]
 Deg. of freedom    75
 Full point group                 C1      NOp   1
 Rotational constants (GHZ):           1.6874207           0.4194926           0.3724715

 **********************************************************************

            Population analysis using the SCF Density.

 **********************************************************************

 Alpha  occ. eigenvalues --  -20.59159 -20.58822 -15.84627 -15.64103 -15.56260
 Alpha  occ. eigenvalues --  -11.35015 -11.29660 -11.29600 -11.28533 -11.27186
 Alpha  occ. eigenvalues --  -11.23737 -11.23222 -11.22747 -11.22113  -1.57038
 Alpha  occ. eigenvalues --   -1.36642  -1.30985  -1.23191  -1.14692  -1.09820
 Alpha  occ. eigenvalues --   -1.02826  -1.01318  -0.94440  -0.89635  -0.85611
 Alpha  occ. eigenvalues --   -0.82416  -0.78536  -0.77422  -0.75166  -0.71965
 Alpha  occ. eigenvalues --   -0.69724  -0.69424  -0.67831  -0.64999  -0.63690
 Alpha  occ. eigenvalues --   -0.62448  -0.60330  -0.57664  -0.57131  -0.55083
 Alpha  occ. eigenvalues --   -0.54546  -0.50892  -0.49971  -0.48560  -0.48079
 Alpha  occ. eigenvalues --   -0.47332  -0.46229  -0.46034  -0.43607  -0.41539
 Alpha  occ. eigenvalues --   -0.40081  -0.33931
 Alpha virt. eigenvalues --    0.07555   0.11999   0.17381   0.21774   0.23697
 Alpha virt. eigenvalues --    0.25176   0.27221   0.28584   0.28998   0.29638
 Alpha virt. eigenvalues --    0.30721   0.31837   0.32046   0.32726   0.33899
 Alpha virt. eigenvalues --    0.34352   0.35704   0.37234   0.38535   0.40249
 Alpha virt. eigenvalues --    0.41526   0.42559   0.45212   0.46184   0.46640
 Alpha virt. eigenvalues --    0.47053   0.48965   0.53964   0.57211   0.59167
 Alpha virt. eigenvalues --    0.64050   0.69395   0.69999   0.72828   0.74166
 Alpha virt. eigenvalues --    0.75047   0.75791   0.76773   0.78771   0.79254
 Alpha virt. eigenvalues --    0.81265   0.84912   0.85671   0.86147   0.88351
 Alpha virt. eigenvalues --    0.89451   0.90684   0.92087   0.92952   0.94545
 Alpha virt. eigenvalues --    0.95733   0.97804   0.98833   1.01456   1.02441
 Alpha virt. eigenvalues --    1.03100   1.05828   1.06930   1.07396   1.08708
 Alpha virt. eigenvalues --    1.10080   1.11111   1.11829   1.12472   1.13866
 Alpha virt. eigenvalues --    1.14759   1.14908   1.16006   1.16764   1.18542
 Alpha virt. eigenvalues --    1.19243   1.20816   1.21684   1.23215   1.23940
 Alpha virt. eigenvalues --    1.25191   1.26108   1.26941   1.27964   1.29598
 Alpha virt. eigenvalues --    1.29973   1.32743   1.36151   1.37066   1.39843
 Alpha virt. eigenvalues --    1.41341   1.44468   1.48665   1.51992   1.53158
 Alpha virt. eigenvalues --    1.56696   1.58653   1.59289   1.63158   1.66829
 Alpha virt. eigenvalues --    1.68305   1.69185   1.73049   1.74589   1.77943
 Alpha virt. eigenvalues --    1.81564   1.84690   1.87548   1.90415   1.93715
 Alpha virt. eigenvalues --    1.96315   1.97352   1.99712   2.01719   2.02092
 Alpha virt. eigenvalues --    2.04607   2.05829   2.08547   2.09297   2.12694
 Alpha virt. eigenvalues --    2.13744   2.14945   2.19352   2.20147   2.22699
 Alpha virt. eigenvalues --    2.23134   2.24779   2.25606   2.28135   2.29770
 Alpha virt. eigenvalues --    2.31821   2.33737   2.34544   2.36172   2.38195
 Alpha virt. eigenvalues --    2.40420   2.41694   2.43532   2.44911   2.47915
 Alpha virt. eigenvalues --    2.50586   2.51834   2.53033   2.55839   2.62067
 Alpha virt. eigenvalues --    2.62145   2.65101   2.67393   2.70490   2.70533
 Alpha virt. eigenvalues --    2.72206   2.73489   2.77081   2.78827   2.84354
 Alpha virt. eigenvalues --    2.88239   2.88926   2.92798   2.93298   2.96117
 Alpha virt. eigenvalues --    2.99244   3.01438   3.04250   3.05265   3.07781
 Alpha virt. eigenvalues --    3.09304   3.14949   3.21252   3.25183   3.27322
 Alpha virt. eigenvalues --    3.33851   3.37865   3.39444   3.51985   3.64495
 Alpha virt. eigenvalues --    4.13594   4.28161   4.33588   4.38165   4.46399
 Alpha virt. eigenvalues --    4.56675   4.62069   4.62768   4.73338   4.79923
 Alpha virt. eigenvalues --    4.98842   5.00758   5.04198   5.11498
          Condensed to atoms (all electrons):
               1          2          3          4          5          6
     1  O    8.314571   0.308547  -0.081371  -0.086737   0.004555  -0.000017
     2  N    0.308547   5.723113   0.298586   0.264843  -0.050662   0.001028
     3  O   -0.081371   0.298586   8.354254  -0.091697   0.003001   0.000758
     4  C   -0.086737   0.264843  -0.091697   5.231969   0.558755  -0.049552
     5  C    0.004555  -0.050662   0.003001   0.558755   4.705435   0.316959
     6  N   -0.000017   0.001028   0.000758  -0.049552   0.316959   7.197856
     7  C    0.000004  -0.000132   0.000003   0.004640  -0.029741   0.170232
     8  H   -0.000000   0.000002  -0.000000  -0.000263   0.003249  -0.051261
     9  C   -0.000000  -0.000004  -0.000000   0.000829   0.000529  -0.062194
    10  C    0.000000   0.000000   0.000000  -0.000038  -0.000050   0.003780
    11  C   -0.000000  -0.000000  -0.000000  -0.000025   0.000023  -0.000181
    12  C   -0.000000   0.000002  -0.000000  -0.000091  -0.000161   0.003657
    13  C   -0.000029  -0.000065  -0.000005  -0.012405  -0.000570  -0.045280
    14  H   -0.000004  -0.000121   0.000001   0.002873   0.005585  -0.006632
    15  N    0.000344   0.002328  -0.000017  -0.063841  -0.005211   0.001312
    16  C    0.002212  -0.030080   0.002696   0.330251  -0.050544  -0.002692
    17  H    0.000221  -0.007340   0.017322  -0.023945   0.374976  -0.034800
    18  H    0.000001  -0.000051   0.000011   0.001533  -0.031131   0.338343
    19  H    0.000001  -0.000004   0.000000  -0.001194   0.001223  -0.000196
    20  H    0.000000  -0.000000   0.000000  -0.000063   0.000152  -0.000564
    21  H   -0.000000   0.000000   0.000000   0.000001   0.000001  -0.000078
    22  H   -0.000000   0.000000  -0.000000  -0.000000  -0.000003  -0.000117
    23  H    0.000000  -0.000000   0.000000   0.000037  -0.000000  -0.000030
    24  H    0.000000   0.000000   0.000000   0.000000  -0.000000   0.000006
    25  H    0.000000  -0.000000   0.000000   0.000020   0.000002  -0.000087
    26  H    0.000000  -0.000000   0.000000   0.000007  -0.000001  -0.000056
    27  H    0.005143  -0.000656   0.000004  -0.063425   0.001954   0.000074
               7          8          9         10         11         12
     1  O    0.000004  -0.000000  -0.000000   0.000000  -0.000000  -0.000000
     2  N   -0.000132   0.000002  -0.000004   0.000000  -0.000000   0.000002
     3  O    0.000003  -0.000000  -0.000000   0.000000  -0.000000  -0.000000
     4  C    0.004640  -0.000263   0.000829  -0.000038  -0.000025  -0.000091
     5  C   -0.029741   0.003249   0.000529  -0.000050   0.000023  -0.000161
     6  N    0.170232  -0.051261  -0.062194   0.003780  -0.000181   0.003657
     7  C    5.012489   0.419197   0.350210  -0.054480  -0.009003  -0.060444
     8  H    0.419197   0.539409  -0.056260   0.000961  -0.000384  -0.002065
     9  C    0.350210  -0.056260   5.160865   0.324229  -0.050193  -0.005594
    10  C   -0.054480   0.000961   0.324229   5.119082   0.337090  -0.060782
    11  C   -0.009003  -0.000384  -0.050193   0.337090   5.119011   0.335857
    12  C   -0.060444  -0.002065  -0.005594  -0.060782   0.335857   5.117123
    13  C    0.341203  -0.038665  -0.059184  -0.000425  -0.050681   0.370955
    14  H   -0.046119  -0.000842   0.004442  -0.000413   0.004185  -0.036065
    15  N   -0.057352   0.003936  -0.014986   0.001526  -0.012736  -0.080600
    16  C   -0.002870   0.000117  -0.001625  -0.000009   0.000012   0.002795
    17  H    0.001636  -0.000033  -0.000079   0.000001   0.000000   0.000000
    18  H   -0.021154  -0.004332   0.001181  -0.000083   0.000004  -0.000109
    19  H   -0.036757   0.004383   0.389800  -0.031774  -0.002245   0.000727
    20  H   -0.042775  -0.002147   0.399698  -0.035495   0.003951  -0.000410
    21  H    0.004583  -0.000079  -0.036291   0.402387  -0.034909   0.004347
    22  H   -0.004774   0.003565  -0.047042   0.397906  -0.045487  -0.001019
    23  H    0.000540   0.000034  -0.001949  -0.038970   0.399197  -0.037742
    24  H   -0.000132  -0.000102   0.004395  -0.038483   0.402350  -0.038796
    25  H    0.005106  -0.000022  -0.000419   0.004187  -0.033510   0.398585
    26  H   -0.003888   0.001713   0.000952  -0.002211  -0.041504   0.397015
    27  H   -0.000475   0.000010  -0.000058   0.000008   0.000012  -0.000038
              13         14         15         16         17         18
     1  O   -0.000029  -0.000004   0.000344   0.002212   0.000221   0.000001
     2  N   -0.000065  -0.000121   0.002328  -0.030080  -0.007340  -0.000051
     3  O   -0.000005   0.000001  -0.000017   0.002696   0.017322   0.000011
     4  C   -0.012405   0.002873  -0.063841   0.330251  -0.023945   0.001533
     5  C   -0.000570   0.005585  -0.005211  -0.050544   0.374976  -0.031131
     6  N   -0.045280  -0.006632   0.001312  -0.002692  -0.034800   0.338343
     7  C    0.341203  -0.046119  -0.057352  -0.002870   0.001636  -0.021154
     8  H   -0.038665  -0.000842   0.003936   0.000117  -0.000033  -0.004332
     9  C   -0.059184   0.004442  -0.014986  -0.001625  -0.000079   0.001181
    10  C   -0.000425  -0.000413   0.001526  -0.000009   0.000001  -0.000083
    11  C   -0.050681   0.004185  -0.012736   0.000012   0.000000   0.000004
    12  C    0.370955  -0.036065  -0.080600   0.002795   0.000000  -0.000109
    13  C    5.042280   0.401862   0.242290  -0.072268  -0.000009   0.002965
    14  H    0.401862   0.525046  -0.037343  -0.003478   0.000116  -0.000111
    15  N    0.242290  -0.037343   6.960519   0.585064  -0.000081  -0.000136
    16  C   -0.072268  -0.003478   0.585064   4.710039   0.002234  -0.000223
    17  H   -0.000009   0.000116  -0.000081   0.002234   0.378614  -0.002782
    18  H    0.002965  -0.000111  -0.000136  -0.000223  -0.002782   0.310473
    19  H   -0.007480   0.000097   0.007582   0.003160   0.000019  -0.000152
    20  H    0.004317  -0.000065   0.000124  -0.000040   0.000003   0.000961
    21  H   -0.000432   0.000010  -0.000040   0.000004  -0.000000   0.000001
    22  H    0.000056  -0.000056   0.000015  -0.000002   0.000000   0.000001
    23  H   -0.007310   0.000002   0.008391   0.000070   0.000000   0.000000
    24  H    0.004693  -0.000055   0.000145   0.000007   0.000000  -0.000000
    25  H   -0.035693  -0.002807   0.000153  -0.000027  -0.000000   0.000002
    26  H   -0.047268  -0.001086   0.004815  -0.000073   0.000000  -0.000000
    27  H    0.005348  -0.000187  -0.040832   0.404069  -0.000085   0.000001
              19         20         21         22         23         24
     1  O    0.000001   0.000000  -0.000000  -0.000000   0.000000   0.000000
     2  N   -0.000004  -0.000000   0.000000   0.000000  -0.000000   0.000000
     3  O    0.000000   0.000000   0.000000  -0.000000   0.000000   0.000000
     4  C   -0.001194  -0.000063   0.000001  -0.000000   0.000037   0.000000
     5  C    0.001223   0.000152   0.000001  -0.000003  -0.000000  -0.000000
     6  N   -0.000196  -0.000564  -0.000078  -0.000117  -0.000030   0.000006
     7  C   -0.036757  -0.042775   0.004583  -0.004774   0.000540  -0.000132
     8  H    0.004383  -0.002147  -0.000079   0.003565   0.000034  -0.000102
     9  C    0.389800   0.399698  -0.036291  -0.047042  -0.001949   0.004395
    10  C   -0.031774  -0.035495   0.402387   0.397906  -0.038970  -0.038483
    11  C   -0.002245   0.003951  -0.034909  -0.045487   0.399197   0.402350
    12  C    0.000727  -0.000410   0.004347  -0.001019  -0.037742  -0.038796
    13  C   -0.007480   0.004317  -0.000432   0.000056  -0.007310   0.004693
    14  H    0.000097  -0.000065   0.000010  -0.000056   0.000002  -0.000055
    15  N    0.007582   0.000124  -0.000040   0.000015   0.008391   0.000145
    16  C    0.003160  -0.000040   0.000004  -0.000002   0.000070   0.000007
    17  H    0.000019   0.000003  -0.000000   0.000000   0.000000   0.000000
    18  H   -0.000152   0.000961   0.000001   0.000001   0.000000  -0.000000
    19  H    0.504804  -0.024900  -0.002806   0.003957   0.001502  -0.000065
    20  H   -0.024900   0.543109  -0.002694  -0.003022  -0.000045  -0.000083
    21  H   -0.002806  -0.002694   0.524181  -0.027416  -0.002903  -0.002234
    22  H    0.003957  -0.003022  -0.027416   0.571269   0.004142  -0.003678
    23  H    0.001502  -0.000045  -0.002903   0.004142   0.499056  -0.025496
    24  H   -0.000065  -0.000083  -0.002234  -0.003678  -0.025496   0.538377
    25  H   -0.000028   0.000012  -0.000087  -0.000080  -0.002338  -0.002278
    26  H    0.000019  -0.000031  -0.000082   0.002386   0.004058  -0.003069
    27  H    0.000082   0.000000  -0.000000   0.000000  -0.000035  -0.000000
              25         26         27
     1  O    0.000000   0.000000   0.005143
     2  N   -0.000000  -0.000000  -0.000656
     3  O    0.000000   0.000000   0.000004
     4  C    0.000020   0.000007  -0.063425
     5  C    0.000002  -0.000001   0.001954
     6  N   -0.000087  -0.000056   0.000074
     7  C    0.005106  -0.003888  -0.000475
     8  H   -0.000022   0.001713   0.000010
     9  C   -0.000419   0.000952  -0.000058
    10  C    0.004187  -0.002211   0.000008
    11  C   -0.033510  -0.041504   0.000012
    12  C    0.398585   0.397015  -0.000038
    13  C   -0.035693  -0.047268   0.005348
    14  H   -0.002807  -0.001086  -0.000187
    15  N    0.000153   0.004815  -0.040832
    16  C   -0.000027  -0.000073   0.404069
    17  H   -0.000000   0.000000  -0.000085
    18  H    0.000002  -0.000000   0.000001
    19  H   -0.000028   0.000019   0.000082
    20  H    0.000012  -0.000031   0.000000
    21  H   -0.000087  -0.000082  -0.000000
    22  H   -0.000080   0.002386   0.000000
    23  H   -0.002338   0.004058  -0.000035
    24  H   -0.002278  -0.003069  -0.000000
    25  H    0.506420  -0.024075  -0.000010
    26  H   -0.024075   0.561219   0.000001
    27  H   -0.000010   0.000001   0.444855
 Mulliken charges:
               1
     1  O   -0.467441
     2  N    0.490666
     3  O   -0.503547
     4  C   -0.002482
     5  C    0.191677
     6  N   -0.780266
     7  C    0.060253
     8  H    0.179879
     9  C   -0.301250
    10  C   -0.327943
    11  C   -0.320836
    12  C   -0.307146
    13  C   -0.038198
    14  H    0.191162
    15  N   -0.505370
    16  C    0.121198
    17  H    0.294013
    18  H    0.404787
    19  H    0.190245
    20  H    0.160008
    21  H    0.174535
    22  H    0.149399
    23  H    0.199787
    24  H    0.164498
    25  H    0.186972
    26  H    0.151161
    27  H    0.244241
 Sum of Mulliken charges =  -0.00000
 Mulliken charges with hydrogens summed into heavy atoms:
               1
     1  O   -0.467441
     2  N    0.490666
     3  O   -0.503547
     4  C   -0.002482
     5  C    0.485690
     6  N   -0.375480
     7  C    0.240133
     9  C    0.049003
    10  C   -0.004009
    11  C    0.043450
    12  C    0.030986
    13  C    0.152963
    15  N   -0.505370
    16  C    0.365439
 Electronic spatial extent (au):  <R**2>=           3002.7537
 Charge=             -0.0000 electrons
 Dipole moment (field-independent basis, Debye):
    X=              5.4672    Y=              4.8789    Z=              0.9859  Tot=              7.3936
 Quadrupole moment (field-independent basis, Debye-Ang):
   XX=           -106.2727   YY=            -79.1362   ZZ=            -81.5857
   XY=             -2.1886   XZ=              0.7683   YZ=              1.2847
 Traceless Quadrupole moment (field-independent basis, Debye-Ang):
   XX=            -17.2745   YY=              9.8620   ZZ=              7.4125
   XY=             -2.1886   XZ=              0.7683   YZ=              1.2847
 Octapole moment (field-independent basis, Debye-Ang**2):
  XXX=             93.1364  YYY=             38.5246  ZZZ=             -4.2815  XYY=             -4.3789
  XXY=             10.8371  XXZ=              1.0107  XZZ=             -9.5401  YZZ=             -0.8500
  YYZ=              6.3905  XYZ=              0.9943
 Hexadecapole moment (field-independent basis, Debye-Ang**3):
 XXXX=          -3383.3853 YYYY=           -597.7117 ZZZZ=           -303.1882 XXXY=            -26.7274
 XXXZ=             11.3266 YYYX=            -13.6385 YYYZ=             21.6759 ZZZX=             14.2503
 ZZZY=              7.3714 XXYY=           -626.4592 XXZZ=           -524.4641 YYZZ=           -157.6288
 XXYZ=             -7.3241 YYXZ=              6.2938 ZZXY=              4.5961
 N-N= 9.316091251096D+02 E-N=-3.409936539629D+03  KE= 6.596313416616D+02
 Unable to Open any file for archive entry.
 1\1\GINC-LOTUS\FOpt\RMP2-FC\6-31G(d)\C9H13N3O2\ALEXEY\02-Jul-2023\0\\#
 MP2/6-31G* SCF=Tight Opt=(ModRedun, MaxCycle=20 ) NoSymm\\MolName:\\0,
 1\O,-3.4951983427,-1.4020871171,-0.3551288781\N,-3.120660078,-0.251190
 6489,-0.0566475459\O,-3.9028432836,0.6882916572,0.1859135488\C,-1.6884
 061869,-0.0292108192,0.0327273446\C,-1.3088437841,1.2676361709,0.25879
 89689\N,-0.0622720646,1.7531099399,0.3560144864\C,1.1965710843,1.01827
 93838,0.3469360988\H,1.8380744368,1.5474261656,1.0683189788\C,1.918129
 0826,1.0282725322,-0.9998341524\C,3.3152702008,0.4239271178,-0.8182600
 524\C,3.2622982867,-0.9716156942,-0.1909167038\C,2.4516848445,-0.98227
 27015,1.1069717796\C,1.044400336,-0.4296110552,0.8577790978\H,0.460482
 4659,-0.4062776064,1.7921442758\N,0.4053755721,-1.3132771396,-0.113666
 27\C,-0.8373379665,-1.1185055737,-0.4144429077\H,-2.1032370248,1.99627
 50676,0.3962207672\H,0.0070395835,2.7481840452,0.5334261331\H,1.334428
 6827,0.4510369695,-1.7244736468\H,1.9886562922,2.0565051802,-1.3763456
 165\H,3.8311795714,0.3858740091,-1.7844643513\H,3.9061506405,1.0916732
 687,-0.1752160205\H,2.7951287907,-1.6699157005,-0.8920831584\H,4.27996
 42035,-1.3325017666,-0.0003412818\H,2.3627662417,-2.0041376786,1.49048
 01293\H,2.95268823,-0.3843975285,1.8807760562\H,-1.2724998149,-1.79849
 04776,-1.1466670797\\Version=ES64L-G16RevC.02\HF=-661.2995786\MP2=-663
 .3338272\RMSD=6.825e-09\RMSF=1.099e-03\Dipole=1.9948722,1.716317,0.374
 6708\PG=C01 [X(C9H13N3O2)]\\@
 The archive entry for this job was punched.


 HOW IS IT THAT THE SKY FEEDS THE STARS?

                           -- LUCRETIUS
 Job cpu time:       0 days  1 hours  7 minutes  7.9 seconds.
 Elapsed time:       0 days  0 hours 20 minutes  3.4 seconds.
 File lengths (MBytes):  RWF=     36 Int=      0 D2E=      0 Chk=      7 Scr=      1
 Normal termination of Gaussian 16 at Sun Jul  2 11:24:32 2023.
