 Entering Gaussian System, Link 0=g16
 Initial command:
 /home/alexey/programs//g16/l1.exe "/home/alexey/tmp/Gau-1501103.inp" -scrdir="/home/alexey/tmp/"
 Entering Link 1 = /home/alexey/programs//g16/l1.exe PID=   1501105.
  
 Copyright (c) 1988-2021, Gaussian, Inc.  All Rights Reserved.
  
 This is part of the Gaussian(R) 16 program.  It is based on
 the Gaussian(R) 09 system (copyright 2009, Gaussian, Inc.),
 the Gaussian(R) 03 system (copyright 2003, Gaussian, Inc.),
 the Gaussian(R) 98 system (copyright 1998, Gaussian, Inc.),
 the Gaussian(R) 94 system (copyright 1995, Gaussian, Inc.),
 the Gaussian 92(TM) system (copyright 1992, Gaussian, Inc.),
 the Gaussian 90(TM) system (copyright 1990, Gaussian, Inc.),
 the Gaussian 88(TM) system (copyright 1988, Gaussian, Inc.),
 the Gaussian 86(TM) system (copyright 1986, Carnegie Mellon
 University), and the Gaussian 82(TM) system (copyright 1983,
 Carnegie Mellon University). Gaussian is a federally registered
 trademark of Gaussian, Inc.
  
 This software contains proprietary and confidential information,
 including trade secrets, belonging to Gaussian, Inc.
  
 This software is provided under written license and may be
 used, copied, transmitted, or stored only in accord with that
 written license.
  
 The following legend is applicable only to US Government
 contracts under FAR:
  
                    RESTRICTED RIGHTS LEGEND
  
 Use, reproduction and disclosure by the US Government is
 subject to restrictions as set forth in subparagraphs (a)
 and (c) of the Commercial Computer Software - Restricted
 Rights clause in FAR 52.227-19.
  
 Gaussian, Inc.
 340 Quinnipiac St., Bldg. 40, Wallingford CT 06492
  
  
 ---------------------------------------------------------------
 Warning -- This program may not be used in any manner that
 competes with the business of Gaussian, Inc. or will provide
 assistance to any competitor of Gaussian, Inc.  The licensee
 of this program is prohibited from giving any competitor of
 Gaussian, Inc. access to this program.  By using this program,
 the user acknowledges that Gaussian, Inc. is engaged in the
 business of creating and licensing software in the field of
 computational chemistry and represents and warrants to the
 licensee that it is not a competitor of Gaussian, Inc. and that
 it will not use this program in any manner prohibited above.
 ---------------------------------------------------------------
  

 Cite this work as:
 Gaussian 16, Revision C.02,
 M. J. Frisch, G. W. Trucks, H. B. Schlegel, G. E. Scuseria, 
 M. A. Robb, J. R. Cheeseman, G. Scalmani, V. Barone, 
 G. A. Petersson, H. Nakatsuji, X. Li, M. Caricato, A. V. Marenich, 
 J. Bloino, B. G. Janesko, R. Gomperts, B. Mennucci, H. P. Hratchian, 
 J. V. Ortiz, A. F. Izmaylov, J. L. Sonnenberg, D. Williams-Young, 
 F. Ding, F. Lipparini, F. Egidi, J. Goings, B. Peng, A. Petrone, 
 T. Henderson, D. Ranasinghe, V. G. Zakrzewski, J. Gao, N. Rega, 
 G. Zheng, W. Liang, M. Hada, M. Ehara, K. Toyota, R. Fukuda, 
 J. Hasegawa, M. Ishida, T. Nakajima, Y. Honda, O. Kitao, H. Nakai, 
 T. Vreven, K. Throssell, J. A. Montgomery, Jr., J. E. Peralta, 
 F. Ogliaro, M. J. Bearpark, J. J. Heyd, E. N. Brothers, K. N. Kudin, 
 V. N. Staroverov, T. A. Keith, R. Kobayashi, J. Normand, 
 K. Raghavachari, A. P. Rendell, J. C. Burant, S. S. Iyengar, 
 J. Tomasi, M. Cossi, J. M. Millam, M. Klene, C. Adamo, R. Cammi, 
 J. W. Ochterski, R. L. Martin, K. Morokuma, O. Farkas, 
 J. B. Foresman, and D. J. Fox, Gaussian, Inc., Wallingford CT, 2019.
 
 ******************************************
 Gaussian 16:  ES64L-G16RevC.02  7-Dec-2021
                 2-Jul-2023 
 ******************************************
 %mem=8GB
 %NPROCS=4
 Will use up to    4 processors via shared memory.
 %NoSave
 ---------------------------------------------------------
 #MP2/6-31G* SCF=Tight Opt=(ModRedun, MaxCycle=20 ) NoSymm
 ---------------------------------------------------------
 1/6=20,18=120,19=15,38=1/1,3;
 2/9=110,12=2,15=1,17=6,18=5,40=1/2;
 3/5=1,6=6,7=1,11=9,25=1,30=1,71=1/1,2,3;
 4//1;
 5/5=2,32=2,38=5/2;
 8/6=4,10=2/1;
 9/15=2,16=-3/6;
 10/5=1,31=1/2;
 6/7=2,8=2,9=2,10=2/1;
 7/12=2,30=1/1,2,3,16;
 1/6=20,18=20,19=15/3(2);
 2/9=110,15=1/2;
 99//99;
 2/9=110,15=1/2;
 3/5=1,6=6,7=1,11=9,25=1,30=1,71=1/1,2,3;
 4/5=5,16=3,69=1/1;
 5/5=2,32=2,38=5/2;
 8/6=4,10=2/1;
 9/15=2,16=-3/6;
 10/5=1,31=1/2;
 7/12=2,30=1/1,2,3,16;
 1/6=20,18=20,19=15/3(-8);
 2/9=110,15=1/2;
 6/7=2,8=2,9=2,10=2/1;
 99/9=10/99;
 --------
 MolName:
 --------
 Symbolic Z-matrix:
 Charge =  0 Multiplicity = 1
 8                    0    -3.54702  -1.53163   0.00522 
 7                    0    -3.22431  -0.35638   0.1689 
 8                    0    -4.01654   0.5376    0.46833 
 6                    0    -1.75536   0.00358  -0.01428 
 6                    0    -1.38407   1.32612   0.25291 
 7                    0    -0.09298   1.79152   0.26379 
 6                    0     1.17978   1.00118   0.30103 
 1                    0     1.81063   1.49904   1.08251 
 6                    0     2.00967   1.04014  -1.0061 
 6                    0     3.40592   0.44253  -0.74861 
 6                    0     3.30445  -0.97084  -0.15382 
 6                    0     2.3963   -0.99467   1.09475 
 6                    0     0.9759   -0.44602   0.78801 
 1                    0     0.39281  -0.47813   1.73829 
 7                    0     0.35553  -1.30405  -0.22566 
 6                    0    -0.86982  -1.05701  -0.55881 
 1                    0    -2.16473   2.04434   0.55377 
 1                    0     0.13719   2.75838   0.02177 
 1                    0     1.49338   0.46571  -1.80445 
 1                    0     2.12272   2.08803  -1.35673 
 1                    0     3.98603   0.4111   -1.6968 
 1                    0     3.95514   1.09374  -0.03235 
 1                    0     2.8863   -1.65849  -0.92335 
 1                    0     4.31797  -1.34295   0.1117 
 1                    0     2.31174  -2.03999   1.46488 
 1                    0     2.86066  -0.38731   1.89991 
 1                    0    -1.28829  -1.57253  -1.4358 
 
 The following ModRedundant input section has been read:
 D       5       4      16      27 F                                           
 D       1       2       4      16 F                                           
 D       7      13      15      16 F                                           
 D       7       9      10      11 F                                           
 D       9      10      11      12 F                                           
 D       6       7      13      15 F                                           
 

 GradGradGradGradGradGradGradGradGradGradGradGradGradGradGradGradGradGrad
 Berny optimization.
 Initialization pass.
                           ----------------------------
                           !    Initial Parameters    !
                           ! (Angstroms and Degrees)  !
 --------------------------                            --------------------------
 ! Name  Definition              Value          Derivative Info.                !
 --------------------------------------------------------------------------------
 ! R1    R(1,2)                  1.2297         estimate D2E/DX2                !
 ! R2    R(2,3)                  1.2315         estimate D2E/DX2                !
 ! R3    R(2,4)                  1.5235         estimate D2E/DX2                !
 ! R4    R(4,5)                  1.3994         estimate D2E/DX2                !
 ! R5    R(4,16)                 1.4851         estimate D2E/DX2                !
 ! R6    R(5,6)                  1.3725         estimate D2E/DX2                !
 ! R7    R(5,17)                 1.1026         estimate D2E/DX2                !
 ! R8    R(6,7)                  1.4986         estimate D2E/DX2                !
 ! R9    R(6,18)                 1.0229         estimate D2E/DX2                !
 ! R10   R(7,8)                  1.121          estimate D2E/DX2                !
 ! R11   R(7,9)                  1.5488         estimate D2E/DX2                !
 ! R12   R(7,13)                 1.5405         estimate D2E/DX2                !
 ! R13   R(9,10)                 1.5404         estimate D2E/DX2                !
 ! R14   R(9,19)                 1.1108         estimate D2E/DX2                !
 ! R15   R(9,20)                 1.1108         estimate D2E/DX2                !
 ! R16   R(10,11)                1.5368         estimate D2E/DX2                !
 ! R17   R(10,21)                1.112          estimate D2E/DX2                !
 ! R18   R(10,22)                1.113          estimate D2E/DX2                !
 ! R19   R(11,12)                1.5441         estimate D2E/DX2                !
 ! R20   R(11,23)                1.1135         estimate D2E/DX2                !
 ! R21   R(11,24)                1.1118         estimate D2E/DX2                !
 ! R22   R(12,13)                1.5533         estimate D2E/DX2                !
 ! R23   R(12,25)                1.1121         estimate D2E/DX2                !
 ! R24   R(12,26)                1.1103         estimate D2E/DX2                !
 ! R25   R(13,14)                1.1154         estimate D2E/DX2                !
 ! R26   R(13,15)                1.4658         estimate D2E/DX2                !
 ! R27   R(15,16)                1.2936         estimate D2E/DX2                !
 ! R28   R(16,27)                1.1            estimate D2E/DX2                !
 ! A1    A(1,2,3)              123.8726         estimate D2E/DX2                !
 ! A2    A(1,2,4)              117.5713         estimate D2E/DX2                !
 ! A3    A(3,2,4)              118.556          estimate D2E/DX2                !
 ! A4    A(2,4,5)              117.1399         estimate D2E/DX2                !
 ! A5    A(2,4,16)             116.7625         estimate D2E/DX2                !
 ! A6    A(5,4,16)             125.9248         estimate D2E/DX2                !
 ! A7    A(4,5,6)              124.8602         estimate D2E/DX2                !
 ! A8    A(4,5,17)             118.675          estimate D2E/DX2                !
 ! A9    A(6,5,17)             116.2944         estimate D2E/DX2                !
 ! A10   A(5,6,7)              128.3374         estimate D2E/DX2                !
 ! A11   A(5,6,18)             122.0266         estimate D2E/DX2                !
 ! A12   A(7,6,18)             108.2551         estimate D2E/DX2                !
 ! A13   A(6,7,8)              105.1324         estimate D2E/DX2                !
 ! A14   A(6,7,9)              114.8865         estimate D2E/DX2                !
 ! A15   A(6,7,13)             113.0098         estimate D2E/DX2                !
 ! A16   A(8,7,9)              106.0005         estimate D2E/DX2                !
 ! A17   A(8,7,13)             105.744          estimate D2E/DX2                !
 ! A18   A(9,7,13)             111.1824         estimate D2E/DX2                !
 ! A19   A(7,9,10)             109.5628         estimate D2E/DX2                !
 ! A20   A(7,9,19)             110.1518         estimate D2E/DX2                !
 ! A21   A(7,9,20)             110.1618         estimate D2E/DX2                !
 ! A22   A(10,9,19)            109.9256         estimate D2E/DX2                !
 ! A23   A(10,9,20)            109.0567         estimate D2E/DX2                !
 ! A24   A(19,9,20)            107.9562         estimate D2E/DX2                !
 ! A25   A(9,10,11)            111.2011         estimate D2E/DX2                !
 ! A26   A(9,10,21)            109.9549         estimate D2E/DX2                !
 ! A27   A(9,10,22)            109.1388         estimate D2E/DX2                !
 ! A28   A(11,10,21)           109.7836         estimate D2E/DX2                !
 ! A29   A(11,10,22)           108.761          estimate D2E/DX2                !
 ! A30   A(21,10,22)           107.9295         estimate D2E/DX2                !
 ! A31   A(10,11,12)           111.4685         estimate D2E/DX2                !
 ! A32   A(10,11,23)           108.9827         estimate D2E/DX2                !
 ! A33   A(10,11,24)           109.8795         estimate D2E/DX2                !
 ! A34   A(12,11,23)           109.1733         estimate D2E/DX2                !
 ! A35   A(12,11,24)           109.7468         estimate D2E/DX2                !
 ! A36   A(23,11,24)           107.4982         estimate D2E/DX2                !
 ! A37   A(11,12,13)           111.8821         estimate D2E/DX2                !
 ! A38   A(11,12,25)           109.168          estimate D2E/DX2                !
 ! A39   A(11,12,26)           109.3876         estimate D2E/DX2                !
 ! A40   A(13,12,25)           109.1593         estimate D2E/DX2                !
 ! A41   A(13,12,26)           109.4167         estimate D2E/DX2                !
 ! A42   A(25,12,26)           107.7347         estimate D2E/DX2                !
 ! A43   A(7,13,12)            105.8568         estimate D2E/DX2                !
 ! A44   A(7,13,14)            111.4422         estimate D2E/DX2                !
 ! A45   A(7,13,15)            112.7876         estimate D2E/DX2                !
 ! A46   A(12,13,14)           107.4359         estimate D2E/DX2                !
 ! A47   A(12,13,15)           108.4711         estimate D2E/DX2                !
 ! A48   A(14,13,15)           110.5533         estimate D2E/DX2                !
 ! A49   A(13,15,16)           117.8523         estimate D2E/DX2                !
 ! A50   A(4,16,15)            127.3553         estimate D2E/DX2                !
 ! A51   A(4,16,27)            113.5891         estimate D2E/DX2                !
 ! A52   A(15,16,27)           118.4355         estimate D2E/DX2                !
 ! D1    D(1,2,4,5)           -176.2329         estimate D2E/DX2                !
 ! D2    D(1,2,4,16)             8.2584         Frozen                          !
 ! D3    D(3,2,4,5)              3.8588         estimate D2E/DX2                !
 ! D4    D(3,2,4,16)          -171.6499         estimate D2E/DX2                !
 ! D5    D(2,4,5,6)            173.4877         estimate D2E/DX2                !
 ! D6    D(2,4,5,17)            -1.5818         estimate D2E/DX2                !
 ! D7    D(16,4,5,6)           -11.4655         estimate D2E/DX2                !
 ! D8    D(16,4,5,17)          173.465          estimate D2E/DX2                !
 ! D9    D(2,4,16,15)         -142.6248         estimate D2E/DX2                !
 ! D10   D(2,4,16,27)           46.6328         estimate D2E/DX2                !
 ! D11   D(5,4,16,15)           42.3118         estimate D2E/DX2                !
 ! D12   D(5,4,16,27)         -128.4306         Frozen                          !
 ! D13   D(4,5,6,7)            -14.5867         estimate D2E/DX2                !
 ! D14   D(4,5,6,18)           150.3681         estimate D2E/DX2                !
 ! D15   D(17,5,6,7)           160.5885         estimate D2E/DX2                !
 ! D16   D(17,5,6,18)          -34.4567         estimate D2E/DX2                !
 ! D17   D(5,6,7,8)           -133.7526         estimate D2E/DX2                !
 ! D18   D(5,6,7,9)            110.129          estimate D2E/DX2                !
 ! D19   D(5,6,7,13)           -18.9037         estimate D2E/DX2                !
 ! D20   D(18,6,7,8)            59.6467         estimate D2E/DX2                !
 ! D21   D(18,6,7,9)           -56.4717         estimate D2E/DX2                !
 ! D22   D(18,6,7,13)          174.4956         estimate D2E/DX2                !
 ! D23   D(6,7,9,10)           168.4992         estimate D2E/DX2                !
 ! D24   D(6,7,9,19)           -70.4588         estimate D2E/DX2                !
 ! D25   D(6,7,9,20)            48.5257         estimate D2E/DX2                !
 ! D26   D(8,7,9,10)            52.8795         estimate D2E/DX2                !
 ! D27   D(8,7,9,19)           173.9216         estimate D2E/DX2                !
 ! D28   D(8,7,9,20)           -67.094          estimate D2E/DX2                !
 ! D29   D(13,7,9,10)          -61.5675         estimate D2E/DX2                !
 ! D30   D(13,7,9,19)           59.4745         estimate D2E/DX2                !
 ! D31   D(13,7,9,20)          178.459          estimate D2E/DX2                !
 ! D32   D(6,7,13,12)         -166.5161         estimate D2E/DX2                !
 ! D33   D(6,7,13,14)          -50.0153         estimate D2E/DX2                !
 ! D34   D(6,7,13,15)           75.0222         Frozen                          !
 ! D35   D(8,7,13,12)          -52.035          estimate D2E/DX2                !
 ! D36   D(8,7,13,14)           64.4658         estimate D2E/DX2                !
 ! D37   D(8,7,13,15)         -170.4966         estimate D2E/DX2                !
 ! D38   D(9,7,13,12)           62.5719         estimate D2E/DX2                !
 ! D39   D(9,7,13,14)          179.0727         estimate D2E/DX2                !
 ! D40   D(9,7,13,15)          -55.8897         estimate D2E/DX2                !
 ! D41   D(7,9,10,11)           54.8118         Frozen                          !
 ! D42   D(7,9,10,21)          176.6192         estimate D2E/DX2                !
 ! D43   D(7,9,10,22)          -65.1728         estimate D2E/DX2                !
 ! D44   D(19,9,10,11)         -66.367          estimate D2E/DX2                !
 ! D45   D(19,9,10,21)          55.4404         estimate D2E/DX2                !
 ! D46   D(19,9,10,22)         173.6484         estimate D2E/DX2                !
 ! D47   D(20,9,10,11)         175.4588         estimate D2E/DX2                !
 ! D48   D(20,9,10,21)         -62.7338         estimate D2E/DX2                !
 ! D49   D(20,9,10,22)          55.4742         estimate D2E/DX2                !
 ! D50   D(9,10,11,12)         -52.8224         Frozen                          !
 ! D51   D(9,10,11,23)          67.741          estimate D2E/DX2                !
 ! D52   D(9,10,11,24)        -174.7105         estimate D2E/DX2                !
 ! D53   D(21,10,11,12)       -174.7294         estimate D2E/DX2                !
 ! D54   D(21,10,11,23)        -54.1661         estimate D2E/DX2                !
 ! D55   D(21,10,11,24)         63.3824         estimate D2E/DX2                !
 ! D56   D(22,10,11,12)         67.386          estimate D2E/DX2                !
 ! D57   D(22,10,11,23)       -172.0506         estimate D2E/DX2                !
 ! D58   D(22,10,11,24)        -54.5021         estimate D2E/DX2                !
 ! D59   D(10,11,12,13)         56.4461         estimate D2E/DX2                !
 ! D60   D(10,11,12,25)        177.38           estimate D2E/DX2                !
 ! D61   D(10,11,12,26)        -64.9614         estimate D2E/DX2                !
 ! D62   D(23,11,12,13)        -64.0054         estimate D2E/DX2                !
 ! D63   D(23,11,12,25)         56.9285         estimate D2E/DX2                !
 ! D64   D(23,11,12,26)        174.5872         estimate D2E/DX2                !
 ! D65   D(24,11,12,13)        178.411          estimate D2E/DX2                !
 ! D66   D(24,11,12,25)        -60.6551         estimate D2E/DX2                !
 ! D67   D(24,11,12,26)         57.0035         estimate D2E/DX2                !
 ! D68   D(11,12,13,7)         -59.7426         estimate D2E/DX2                !
 ! D69   D(11,12,13,14)       -178.9213         estimate D2E/DX2                !
 ! D70   D(11,12,13,15)         61.5485         estimate D2E/DX2                !
 ! D71   D(25,12,13,7)         179.3185         estimate D2E/DX2                !
 ! D72   D(25,12,13,14)         60.1399         estimate D2E/DX2                !
 ! D73   D(25,12,13,15)        -59.3904         estimate D2E/DX2                !
 ! D74   D(26,12,13,7)          61.6481         estimate D2E/DX2                !
 ! D75   D(26,12,13,14)        -57.5306         estimate D2E/DX2                !
 ! D76   D(26,12,13,15)       -177.0608         estimate D2E/DX2                !
 ! D77   D(7,13,15,16)         -67.1603         Frozen                          !
 ! D78   D(12,13,15,16)        175.9167         estimate D2E/DX2                !
 ! D79   D(14,13,15,16)         58.3595         estimate D2E/DX2                !
 ! D80   D(13,15,16,4)          -0.9465         estimate D2E/DX2                !
 ! D81   D(13,15,16,27)        169.4018         estimate D2E/DX2                !
 --------------------------------------------------------------------------------
 Trust Radius=3.00D-01 FncErr=1.00D-07 GrdErr=1.00D-07 EigMax=2.50D+02 EigMin=1.00D-04
 Number of steps in this run=     20 maximum allowed number of steps=    162.
 GradGradGradGradGradGradGradGradGradGradGradGradGradGradGradGradGradGrad

                          Input orientation:                          
 ---------------------------------------------------------------------
 Center     Atomic      Atomic             Coordinates (Angstroms)
 Number     Number       Type             X           Y           Z
 ---------------------------------------------------------------------
      1          8           0       -3.547020   -1.531630    0.005220
      2          7           0       -3.224310   -0.356380    0.168900
      3          8           0       -4.016540    0.537600    0.468330
      4          6           0       -1.755360    0.003580   -0.014280
      5          6           0       -1.384070    1.326120    0.252910
      6          7           0       -0.092980    1.791520    0.263790
      7          6           0        1.179780    1.001180    0.301030
      8          1           0        1.810630    1.499040    1.082510
      9          6           0        2.009670    1.040140   -1.006100
     10          6           0        3.405920    0.442530   -0.748610
     11          6           0        3.304450   -0.970840   -0.153820
     12          6           0        2.396300   -0.994670    1.094750
     13          6           0        0.975900   -0.446020    0.788010
     14          1           0        0.392810   -0.478130    1.738290
     15          7           0        0.355530   -1.304050   -0.225660
     16          6           0       -0.869820   -1.057010   -0.558810
     17          1           0       -2.164730    2.044340    0.553770
     18          1           0        0.137190    2.758380    0.021770
     19          1           0        1.493380    0.465710   -1.804450
     20          1           0        2.122720    2.088030   -1.356730
     21          1           0        3.986030    0.411100   -1.696800
     22          1           0        3.955140    1.093740   -0.032350
     23          1           0        2.886300   -1.658490   -0.923350
     24          1           0        4.317970   -1.342950    0.111700
     25          1           0        2.311740   -2.039990    1.464880
     26          1           0        2.860660   -0.387310    1.899910
     27          1           0       -1.288290   -1.572530   -1.435800
 ---------------------------------------------------------------------
                    Distance matrix (angstroms):
                    1          2          3          4          5
     1  O    0.000000
     2  N    1.229693   0.000000
     3  O    2.171781   1.231457   0.000000
     4  C    2.359512   1.523463   2.372978   0.000000
     5  C    3.592553   2.494864   2.756459   1.399414   0.000000
     6  N    4.800060   3.798382   4.124133   2.457145   1.372454
     7  C    5.370779   4.610470   5.219640   3.116035   2.584807
     8  H    6.248994   5.443151   5.937802   4.019407   3.305185
     9  C    6.205930   5.543053   6.224283   4.029096   3.631028
    10  C    7.266976   6.740922   7.522160   5.231704   4.972703
    11  C    6.876221   6.565548   7.500624   5.154672   5.236762
    12  C    6.066173   5.732004   6.623048   4.411659   4.515081
    13  C    4.716791   4.246539   5.098447   2.881942   2.999378
    14  H    4.431214   3.944790   4.699667   2.813926   2.935809
    15  N    3.915992   3.724112   4.794611   2.492074   3.189519
    16  C    2.776832   2.562044   3.674186   1.485108   2.569562
    17  H    3.872879   2.652224   2.388884   2.157537   1.102627
    18  H    5.654897   4.585091   4.731253   3.342449   2.102148
    19  H    5.715759   5.179434   5.960698   3.737992   3.640433
    20  H    6.863148   6.073995   6.589779   4.602891   3.933068
    21  H    7.963537   7.487247   8.291255   5.996708   5.785897
    22  H    7.948357   7.327199   8.006726   5.813655   5.351872
    23  H    6.501226   6.342559   7.376231   5.013371   5.341118
    24  H    7.867973   7.606746   8.551474   6.222086   6.297391
    25  H    6.059217   5.929752   6.905375   4.785958   5.143790
    26  H    6.779209   6.326469   7.085249   5.012440   4.864790
    27  H    2.679566   2.793252   3.939760   2.173246   3.356052
                    6          7          8          9         10
     6  N    0.000000
     7  C    1.498647   0.000000
     8  H    2.092744   1.120958   0.000000
     9  C    2.568721   1.548814   2.147673   0.000000
    10  C    3.884202   2.523793   2.648427   1.540439   0.000000
    11  C    4.398586   2.934276   3.140114   2.539070   1.536778
    12  C    3.827514   2.468467   2.561591   2.950170   2.546145
    13  C    2.534541   1.540488   2.136999   2.548761   3.009272
    14  H    2.749810   2.207577   2.519814   3.528605   4.013866
    15  N    3.165956   2.504172   3.418470   2.973297   3.553716
    16  C    3.065008   3.029246   4.051189   3.590205   4.535041
    17  H    2.107167   3.512522   4.047271   4.568066   5.940886
    18  H    1.022922   2.062215   2.347660   2.741359   4.079368
    19  H    2.924368   2.195021   3.082687   1.110805   2.184753
    20  H    2.761038   2.195119   2.528676   1.110763   2.173495
    21  H    4.731574   3.494933   3.693311   2.186037   1.112016
    22  H    4.118479   2.796843   2.450735   2.176216   1.112989
    23  H    4.710412   3.388976   3.892369   2.838650   2.171365
    24  H    5.413364   3.921610   3.912305   3.500978   2.181721
    25  H    4.680359   3.447404   3.594725   3.960327   3.501382
    26  H    4.018480   2.703642   2.308467   3.347640   2.828533
    27  H    3.954011   3.966350   5.037830   4.229329   5.154445
                   11         12         13         14         15
    11  C    0.000000
    12  C    1.544096   0.000000
    13  C    2.566052   1.553268   0.000000
    14  H    3.507206   2.166779   1.115373   0.000000
    15  N    2.968555   2.450294   1.465811   2.130876   0.000000
    16  C    4.194755   3.661378   2.365146   2.684400   1.293638
    17  H    6.285215   5.507380   4.015012   3.782453   4.262738
    18  H    4.895860   4.510016   3.399814   3.672435   4.075811
    19  H    2.840463   3.369471   2.796406   3.827936   2.630462
    20  H    3.492873   3.948118   3.512338   4.376861   3.988544
    21  H    2.180618   3.506591   3.996225   5.049931   4.276274
    22  H    2.168097   2.839330   3.452495   4.277398   4.329429
    23  H    1.113503   2.180249   2.836982   3.833415   2.648999
    24  H    1.111841   2.186436   3.525806   4.335965   3.976966
    25  H    2.179161   1.112133   2.187090   2.489267   2.688176
    26  H    2.180657   1.110315   2.189084   2.474804   3.410885
    27  H    4.806117   4.507084   3.367627   3.754818   2.058802
                   16         17         18         19         20
    16  C    0.000000
    17  H    3.540197   0.000000
    18  H    3.988526   2.468140   0.000000
    19  H    3.074900   4.629799   3.229654   0.000000
    20  H    4.413983   4.694054   2.508378   1.796787   0.000000
    21  H    5.199004   6.750140   4.824601   2.495571   2.529756
    22  H    5.308778   6.220931   4.165417   3.097583   2.469890
    23  H    3.821401   6.434729   5.287684   2.688641   3.848023
    24  H    5.238751   7.327657   5.857296   3.862796   4.329784
    25  H    3.896652   6.127859   5.462196   4.199615   5.003775
    26  H    4.517774   5.742783   4.565092   4.039725   4.156629
    27  H    1.099995   4.219986   4.786782   3.468143   5.004092
                   21         22         23         24         25
    21  H    0.000000
    22  H    1.799262   0.000000
    23  H    2.467961   3.084002   0.000000
    24  H    2.541171   2.467763   1.794595   0.000000
    25  H    4.336740   3.842229   2.485821   2.518317   0.000000
    26  H    3.852303   2.669274   3.096345   2.496937   1.794969
    27  H    5.641042   6.047497   4.206804   5.820448   4.646792
                   26         27
    26  H    0.000000
    27  H    5.453943   0.000000
 Symmetry turned off by external request.
 Stoichiometry    C9H13N3O2
 Framework group  C1[X(C9H13N3O2)]
 Deg. of freedom    75
 Full point group                 C1      NOp   1
 Rotational constants (GHZ):           1.6780059           0.4041610           0.3581290
 Standard basis: 6-31G(d) (6D, 7F)
   236 basis functions,   444 primitive gaussians,   236 cartesian basis functions
    52 alpha electrons       52 beta electrons
       nuclear repulsion energy       918.9876642001 Hartrees.
 NAtoms=   27 NActive=   27 NUniq=   27 SFac= 1.00D+00 NAtFMM=   60 NAOKFM=F Big=F
 Integral buffers will be    131072 words long.
 Raffenetti 1 integral format.
 Two-electron integral symmetry is turned off.
 One-electron integrals computed using PRISM.
 NBasis=   236 RedAO= T EigKep=  1.27D-03  NBF=   236
 NBsUse=   236 1.00D-06 EigRej= -1.00D+00 NBFU=   236
 ExpMin= 1.61D-01 ExpMax= 5.48D+03 ExpMxC= 8.25D+02 IAcc=3 IRadAn=         5 AccDes= 0.00D+00
 Harris functional with IExCor=  205 and IRadAn=       5 diagonalized for initial guess.
 HarFok:  IExCor=  205 AccDes= 0.00D+00 IRadAn=         5 IDoV= 1 UseB2=F ITyADJ=14
 ICtDFT=  3500011 ScaDFX=  1.000000  1.000000  1.000000  1.000000
 FoFCou: FMM=F IPFlag=           0 FMFlag=      100000 FMFlg1=           0
         NFxFlg=           0 DoJE=T BraDBF=F KetDBF=T FulRan=T
         wScrn=  0.000000 ICntrl=       500 IOpCl=  0 I1Cent=   200000004 NGrid=           0
         NMat0=    1 NMatS0=      1 NMatT0=    0 NMatD0=    1 NMtDS0=    0 NMtDT0=    0
 Symmetry not used in FoFCou.
 Keep R1 ints in memory in canonical form, NReq=397720213.
 Requested convergence on RMS density matrix=1.00D-08 within 128 cycles.
 Requested convergence on MAX density matrix=1.00D-06.
 Requested convergence on             energy=1.00D-06.
 No special actions if energy rises.
 SCF Done:  E(RHF) =  -661.274769684     A.U. after   16 cycles
            NFock= 16  Conv=0.84D-08     -V/T= 2.0037
 ExpMin= 1.61D-01 ExpMax= 5.48D+03 ExpMxC= 8.25D+02 IAcc=3 IRadAn=         5 AccDes= 0.00D+00
 HarFok:  IExCor=  205 AccDes= 0.00D+00 IRadAn=         5 IDoV=-2 UseB2=F ITyADJ=14
 ICtDFT= 12500011 ScaDFX=  1.000000  1.000000  1.000000  1.000000
 Range of M.O.s used for correlation:    15   236
 NBasis=   236 NAE=    52 NBE=    52 NFC=    14 NFV=     0
 NROrb=    222 NOA=    38 NOB=    38 NVA=   184 NVB=   184
 Fully direct method using O(ONN) memory.
 JobTyp=1 Pass  1:  I=  15 to  52 NPSUse=  4 ParTrn=T ParDer=T DoDerP=T.
 Spin components of T(2) and E(2):
     alpha-alpha T2 =       0.9189399886D-01 E2=     -0.2716934652D+00
     alpha-beta  T2 =       0.5005299786D+00 E2=     -0.1494747171D+01
     beta-beta   T2 =       0.9189399886D-01 E2=     -0.2716934652D+00
 ANorm=    0.1297812766D+01
 E2 =    -0.2038134101D+01 EUMP2 =    -0.66331290378563D+03
          IDoAtm=111111111111111111111111111
          Differentiating once with respect to electric field.
                with respect to dipole field.
          Differentiating once with respect to nuclear coordinates.
 Keep R1 ints in memory in canonical form, NReq=397723379.
          There are     1 degrees of freedom in the 1st order CPHF.  IDoFFX=0 NUNeed=     1.
 LinEq1:  Iter=  0 NonCon=     1 RMS=4.57D-03 Max=1.15D-01 NDo=     1
 AX will form     1 AO Fock derivatives at one time.
 LinEq1:  Iter=  1 NonCon=     1 RMS=1.55D-03 Max=3.93D-02 NDo=     1
 LinEq1:  Iter=  2 NonCon=     1 RMS=6.32D-04 Max=1.87D-02 NDo=     1
 LinEq1:  Iter=  3 NonCon=     1 RMS=2.93D-04 Max=9.05D-03 NDo=     1
 LinEq1:  Iter=  4 NonCon=     1 RMS=8.94D-05 Max=1.79D-03 NDo=     1
 LinEq1:  Iter=  5 NonCon=     1 RMS=3.80D-05 Max=2.01D-03 NDo=     1
 LinEq1:  Iter=  6 NonCon=     1 RMS=1.56D-05 Max=6.00D-04 NDo=     1
 LinEq1:  Iter=  7 NonCon=     1 RMS=6.14D-06 Max=1.22D-04 NDo=     1
 LinEq1:  Iter=  8 NonCon=     1 RMS=2.46D-06 Max=7.37D-05 NDo=     1
 LinEq1:  Iter=  9 NonCon=     1 RMS=9.55D-07 Max=2.73D-05 NDo=     1
 LinEq1:  Iter= 10 NonCon=     1 RMS=4.63D-07 Max=1.55D-05 NDo=     1
 LinEq1:  Iter= 11 NonCon=     1 RMS=1.59D-07 Max=5.73D-06 NDo=     1
 LinEq1:  Iter= 12 NonCon=     1 RMS=5.47D-08 Max=7.51D-07 NDo=     1
 LinEq1:  Iter= 13 NonCon=     1 RMS=1.75D-08 Max=2.46D-07 NDo=     1
 LinEq1:  Iter= 14 NonCon=     1 RMS=5.67D-09 Max=1.30D-07 NDo=     1
 LinEq1:  Iter= 15 NonCon=     1 RMS=2.11D-09 Max=4.79D-08 NDo=     1
 LinEq1:  Iter= 16 NonCon=     1 RMS=8.14D-10 Max=1.27D-08 NDo=     1
 LinEq1:  Iter= 17 NonCon=     1 RMS=2.65D-10 Max=4.23D-09 NDo=     1
 LinEq1:  Iter= 18 NonCon=     1 RMS=9.14D-11 Max=1.10D-09 NDo=     1
 LinEq1:  Iter= 19 NonCon=     0 RMS=3.12D-11 Max=8.02D-10 NDo=     1
 Linear equations converged to 1.000D-10 1.000D-09 after    19 iterations.
 End of Minotr F.D. properties file   721 does not exist.
 End of Minotr F.D. properties file   722 does not exist.
 End of Minotr F.D. properties file   788 does not exist.

 **********************************************************************

            Population analysis using the SCF Density.

 **********************************************************************

 Alpha  occ. eigenvalues --  -20.59759 -20.59247 -15.85157 -15.62865 -15.57476
 Alpha  occ. eigenvalues --  -11.35617 -11.30630 -11.30172 -11.29955 -11.27835
 Alpha  occ. eigenvalues --  -11.24630 -11.23886 -11.23473 -11.22879  -1.58382
 Alpha  occ. eigenvalues --   -1.37897  -1.28348  -1.22983  -1.13220  -1.08297
 Alpha  occ. eigenvalues --   -1.01858  -1.00583  -0.93416  -0.89013  -0.84928
 Alpha  occ. eigenvalues --   -0.81546  -0.78040  -0.76830  -0.73984  -0.71089
 Alpha  occ. eigenvalues --   -0.70216  -0.69684  -0.67418  -0.64815  -0.63292
 Alpha  occ. eigenvalues --   -0.61631  -0.60611  -0.57309  -0.56526  -0.54893
 Alpha  occ. eigenvalues --   -0.53474  -0.50909  -0.48956  -0.48169  -0.47697
 Alpha  occ. eigenvalues --   -0.47538  -0.46020  -0.45800  -0.43874  -0.41998
 Alpha  occ. eigenvalues --   -0.40404  -0.34029
 Alpha virt. eigenvalues --    0.07413   0.11899   0.18665   0.20616   0.22376
 Alpha virt. eigenvalues --    0.24002   0.26580   0.27512   0.28534   0.28830
 Alpha virt. eigenvalues --    0.29738   0.31086   0.31882   0.32148   0.33276
 Alpha virt. eigenvalues --    0.33627   0.34254   0.35482   0.37490   0.38585
 Alpha virt. eigenvalues --    0.40661   0.42215   0.44878   0.45450   0.45542
 Alpha virt. eigenvalues --    0.45924   0.49805   0.52952   0.57124   0.58523
 Alpha virt. eigenvalues --    0.63285   0.69017   0.69689   0.72177   0.73977
 Alpha virt. eigenvalues --    0.75155   0.75679   0.76127   0.77795   0.79394
 Alpha virt. eigenvalues --    0.80261   0.83720   0.85136   0.85924   0.87878
 Alpha virt. eigenvalues --    0.88246   0.90106   0.90885   0.91767   0.94476
 Alpha virt. eigenvalues --    0.95293   0.96502   0.97758   1.00125   1.01947
 Alpha virt. eigenvalues --    1.02792   1.05180   1.05903   1.06561   1.08001
 Alpha virt. eigenvalues --    1.09410   1.10043   1.10607   1.12032   1.13112
 Alpha virt. eigenvalues --    1.13731   1.13943   1.15177   1.16359   1.16965
 Alpha virt. eigenvalues --    1.17498   1.19498   1.20455   1.21754   1.22169
 Alpha virt. eigenvalues --    1.24179   1.24400   1.25292   1.27219   1.27748
 Alpha virt. eigenvalues --    1.28815   1.31511   1.32753   1.35484   1.40239
 Alpha virt. eigenvalues --    1.41310   1.44862   1.45988   1.48244   1.51135
 Alpha virt. eigenvalues --    1.52654   1.56313   1.60695   1.61532   1.66494
 Alpha virt. eigenvalues --    1.69265   1.69889   1.72170   1.74433   1.77200
 Alpha virt. eigenvalues --    1.77468   1.80475   1.85231   1.88517   1.92090
 Alpha virt. eigenvalues --    1.94387   1.95765   1.98118   1.99140   2.01401
 Alpha virt. eigenvalues --    2.03408   2.04213   2.05997   2.08671   2.12003
 Alpha virt. eigenvalues --    2.12488   2.14801   2.17664   2.18263   2.19741
 Alpha virt. eigenvalues --    2.21018   2.22837   2.24719   2.26287   2.26921
 Alpha virt. eigenvalues --    2.29164   2.32411   2.33570   2.34460   2.36060
 Alpha virt. eigenvalues --    2.37861   2.39838   2.41618   2.43091   2.47205
 Alpha virt. eigenvalues --    2.48519   2.50372   2.50767   2.57184   2.57803
 Alpha virt. eigenvalues --    2.61269   2.62331   2.66631   2.67702   2.68757
 Alpha virt. eigenvalues --    2.70228   2.71359   2.74768   2.79969   2.81046
 Alpha virt. eigenvalues --    2.84041   2.86009   2.90007   2.92094   2.95140
 Alpha virt. eigenvalues --    2.97109   2.98636   3.02035   3.02922   3.05144
 Alpha virt. eigenvalues --    3.07034   3.11942   3.19565   3.22669   3.27197
 Alpha virt. eigenvalues --    3.29899   3.33519   3.36467   3.43670   3.57781
 Alpha virt. eigenvalues --    4.09334   4.23411   4.32158   4.35733   4.42265
 Alpha virt. eigenvalues --    4.53612   4.59757   4.61228   4.70716   4.77520
 Alpha virt. eigenvalues --    4.94714   4.99119   5.02136   5.10451
          Condensed to atoms (all electrons):
               1          2          3          4          5          6
     1  O    8.295859   0.317913  -0.088938  -0.083237   0.003428  -0.000014
     2  N    0.317913   5.676164   0.307958   0.270109  -0.044577   0.000859
     3  O   -0.088938   0.307958   8.333463  -0.087916   0.007780   0.000438
     4  C   -0.083237   0.270109  -0.087916   5.244270   0.580565  -0.051135
     5  C    0.003428  -0.044577   0.007780   0.580565   4.658602   0.303925
     6  N   -0.000014   0.000859   0.000438  -0.051135   0.303925   7.204455
     7  C    0.000004  -0.000095   0.000003   0.002737  -0.029205   0.198515
     8  H   -0.000000   0.000003  -0.000000  -0.000025   0.002033  -0.051542
     9  C   -0.000000  -0.000003   0.000000   0.000206   0.001970  -0.054605
    10  C   -0.000000   0.000000  -0.000000  -0.000010  -0.000069   0.003295
    11  C   -0.000000  -0.000000  -0.000000  -0.000021   0.000014  -0.000153
    12  C   -0.000000   0.000003  -0.000000   0.000058  -0.000073   0.003381
    13  C   -0.000028  -0.000071  -0.000006  -0.013233   0.000244  -0.041137
    14  H   -0.000005  -0.000057   0.000000   0.003553   0.004555  -0.005266
    15  N   -0.000083   0.001714  -0.000015  -0.060694  -0.003599   0.001401
    16  C    0.008725  -0.032018   0.001915   0.319758  -0.040815  -0.001694
    17  H    0.000106  -0.003735   0.011282  -0.029121   0.378481  -0.035738
    18  H    0.000000  -0.000035   0.000007   0.000939  -0.023298   0.327418
    19  H    0.000000   0.000001   0.000000  -0.000524   0.000437   0.000955
    20  H    0.000000  -0.000000   0.000000  -0.000011   0.000040  -0.002148
    21  H   -0.000000  -0.000000   0.000000   0.000000   0.000001  -0.000057
    22  H   -0.000000   0.000000  -0.000000  -0.000000  -0.000002  -0.000097
    23  H   -0.000000  -0.000000   0.000000   0.000023  -0.000000  -0.000024
    24  H   -0.000000   0.000000   0.000000   0.000000  -0.000000   0.000004
    25  H    0.000000  -0.000000   0.000000   0.000016   0.000001  -0.000068
    26  H   -0.000000  -0.000000   0.000000   0.000009   0.000000  -0.000065
    27  H    0.001830  -0.000129  -0.000046  -0.065833   0.001952   0.000204
               7          8          9         10         11         12
     1  O    0.000004  -0.000000  -0.000000  -0.000000  -0.000000  -0.000000
     2  N   -0.000095   0.000003  -0.000003   0.000000  -0.000000   0.000003
     3  O    0.000003  -0.000000   0.000000  -0.000000  -0.000000  -0.000000
     4  C    0.002737  -0.000025   0.000206  -0.000010  -0.000021   0.000058
     5  C   -0.029205   0.002033   0.001970  -0.000069   0.000014  -0.000073
     6  N    0.198515  -0.051542  -0.054605   0.003295  -0.000153   0.003381
     7  C    4.982512   0.418849   0.339125  -0.048907  -0.007617  -0.063288
     8  H    0.418849   0.549022  -0.061820   0.001747  -0.000449  -0.002283
     9  C    0.339125  -0.061820   5.182537   0.317145  -0.052664  -0.006748
    10  C   -0.048907   0.001747   0.317145   5.126685   0.332626  -0.059520
    11  C   -0.007617  -0.000449  -0.052664   0.332626   5.123292   0.330516
    12  C   -0.063288  -0.002283  -0.006748  -0.059520   0.330516   5.136318
    13  C    0.340305  -0.042760  -0.047544  -0.002260  -0.047890   0.364965
    14  H   -0.038976  -0.001084   0.003866  -0.000405   0.003963  -0.040362
    15  N   -0.055061   0.003958  -0.012454   0.001391  -0.007550  -0.072687
    16  C   -0.004983   0.000211  -0.001301   0.000007  -0.000004   0.003082
    17  H    0.001461   0.000006  -0.000065   0.000001   0.000000   0.000001
    18  H   -0.027708  -0.001977   0.000649  -0.000115   0.000010  -0.000121
    19  H   -0.034987   0.004167   0.385308  -0.032347  -0.002388   0.000723
    20  H   -0.041429  -0.001966   0.397543  -0.037607   0.004157  -0.000352
    21  H    0.004012  -0.000084  -0.035768   0.400192  -0.035876   0.004191
    22  H   -0.004041   0.003513  -0.045799   0.396090  -0.045685  -0.001260
    23  H    0.000368   0.000037  -0.002043  -0.040031   0.396785  -0.036791
    24  H   -0.000148  -0.000093   0.004396  -0.038485   0.400300  -0.037870
    25  H    0.004839   0.000006  -0.000367   0.004099  -0.034240   0.396038
    26  H   -0.004206   0.001688   0.000964  -0.002341  -0.042446   0.395045
    27  H   -0.000536   0.000010  -0.000041   0.000007   0.000005  -0.000027
              13         14         15         16         17         18
     1  O   -0.000028  -0.000005  -0.000083   0.008725   0.000106   0.000000
     2  N   -0.000071  -0.000057   0.001714  -0.032018  -0.003735  -0.000035
     3  O   -0.000006   0.000000  -0.000015   0.001915   0.011282   0.000007
     4  C   -0.013233   0.003553  -0.060694   0.319758  -0.029121   0.000939
     5  C    0.000244   0.004555  -0.003599  -0.040815   0.378481  -0.023298
     6  N   -0.041137  -0.005266   0.001401  -0.001694  -0.035738   0.327418
     7  C    0.340305  -0.038976  -0.055061  -0.004983   0.001461  -0.027708
     8  H   -0.042760  -0.001084   0.003958   0.000211   0.000006  -0.001977
     9  C   -0.047544   0.003866  -0.012454  -0.001301  -0.000065   0.000649
    10  C   -0.002260  -0.000405   0.001391   0.000007   0.000001  -0.000115
    11  C   -0.047890   0.003963  -0.007550  -0.000004   0.000000   0.000010
    12  C    0.364965  -0.040362  -0.072687   0.003082   0.000001  -0.000121
    13  C    5.038629   0.399367   0.232864  -0.071662  -0.000040   0.003466
    14  H    0.399367   0.518407  -0.036277  -0.003172   0.000115  -0.000004
    15  N    0.232864  -0.036277   6.922384   0.585740  -0.000072  -0.000121
    16  C   -0.071662  -0.003172   0.585740   4.690388   0.001865  -0.000281
    17  H   -0.000040   0.000115  -0.000072   0.001865   0.392002  -0.001548
    18  H    0.003466  -0.000004  -0.000121  -0.000281  -0.001548   0.323784
    19  H   -0.006504   0.000055   0.006602   0.002666   0.000011  -0.000110
    20  H    0.003814  -0.000046   0.000071  -0.000038   0.000000   0.003084
    21  H   -0.000361   0.000009  -0.000024   0.000002  -0.000000  -0.000000
    22  H    0.000331  -0.000046  -0.000004  -0.000002   0.000000   0.000003
    23  H   -0.005564   0.000007   0.006503   0.000009   0.000000   0.000000
    24  H    0.004115  -0.000055   0.000060   0.000006   0.000000  -0.000000
    25  H   -0.034686  -0.002625   0.000246  -0.000084  -0.000000   0.000002
    26  H   -0.044660  -0.001071   0.004112  -0.000084   0.000000  -0.000001
    27  H    0.005524  -0.000210  -0.041206   0.403343  -0.000072   0.000006
              19         20         21         22         23         24
     1  O    0.000000   0.000000  -0.000000  -0.000000  -0.000000  -0.000000
     2  N    0.000001  -0.000000  -0.000000   0.000000  -0.000000   0.000000
     3  O    0.000000   0.000000   0.000000  -0.000000   0.000000   0.000000
     4  C   -0.000524  -0.000011   0.000000  -0.000000   0.000023   0.000000
     5  C    0.000437   0.000040   0.000001  -0.000002  -0.000000  -0.000000
     6  N    0.000955  -0.002148  -0.000057  -0.000097  -0.000024   0.000004
     7  C   -0.034987  -0.041429   0.004012  -0.004041   0.000368  -0.000148
     8  H    0.004167  -0.001966  -0.000084   0.003513   0.000037  -0.000093
     9  C    0.385308   0.397543  -0.035768  -0.045799  -0.002043   0.004396
    10  C   -0.032347  -0.037607   0.400192   0.396090  -0.040031  -0.038485
    11  C   -0.002388   0.004157  -0.035876  -0.045685   0.396785   0.400300
    12  C    0.000723  -0.000352   0.004191  -0.001260  -0.036791  -0.037870
    13  C   -0.006504   0.003814  -0.000361   0.000331  -0.005564   0.004115
    14  H    0.000055  -0.000046   0.000009  -0.000046   0.000007  -0.000055
    15  N    0.006602   0.000071  -0.000024  -0.000004   0.006503   0.000060
    16  C    0.002666  -0.000038   0.000002  -0.000002   0.000009   0.000006
    17  H    0.000011   0.000000  -0.000000   0.000000   0.000000   0.000000
    18  H   -0.000110   0.003084  -0.000000   0.000003   0.000000  -0.000000
    19  H    0.508483  -0.024289  -0.002620   0.003772   0.001653  -0.000067
    20  H   -0.024289   0.550903  -0.002587  -0.003003  -0.000050  -0.000090
    21  H   -0.002620  -0.002587   0.526320  -0.024725  -0.002825  -0.002046
    22  H    0.003772  -0.003003  -0.024725   0.568416   0.004069  -0.003612
    23  H    0.001653  -0.000050  -0.002825   0.004069   0.510476  -0.025066
    24  H   -0.000067  -0.000090  -0.002046  -0.003612  -0.025066   0.541087
    25  H   -0.000027   0.000011  -0.000086  -0.000081  -0.002133  -0.002366
    26  H    0.000023  -0.000036  -0.000076   0.002490   0.003830  -0.002814
    27  H    0.000057  -0.000001  -0.000000   0.000000  -0.000020  -0.000000
              25         26         27
     1  O    0.000000  -0.000000   0.001830
     2  N   -0.000000  -0.000000  -0.000129
     3  O    0.000000   0.000000  -0.000046
     4  C    0.000016   0.000009  -0.065833
     5  C    0.000001   0.000000   0.001952
     6  N   -0.000068  -0.000065   0.000204
     7  C    0.004839  -0.004206  -0.000536
     8  H    0.000006   0.001688   0.000010
     9  C   -0.000367   0.000964  -0.000041
    10  C    0.004099  -0.002341   0.000007
    11  C   -0.034240  -0.042446   0.000005
    12  C    0.396038   0.395045  -0.000027
    13  C   -0.034686  -0.044660   0.005524
    14  H   -0.002625  -0.001071  -0.000210
    15  N    0.000246   0.004112  -0.041206
    16  C   -0.000084  -0.000084   0.403343
    17  H   -0.000000   0.000000  -0.000072
    18  H    0.000002  -0.000001   0.000006
    19  H   -0.000027   0.000023   0.000057
    20  H    0.000011  -0.000036  -0.000001
    21  H   -0.000086  -0.000076  -0.000000
    22  H   -0.000081   0.002490   0.000000
    23  H   -0.002133   0.003830  -0.000020
    24  H   -0.002366  -0.002814  -0.000000
    25  H    0.511204  -0.022930  -0.000005
    26  H   -0.022930   0.559203   0.000001
    27  H   -0.000005   0.000001   0.469679
 Mulliken charges:
               1
     1  O   -0.455560
     2  N    0.505996
     3  O   -0.485927
     4  C   -0.030483
     5  C    0.197610
     6  N   -0.801109
     7  C    0.068456
     8  H    0.178834
     9  C   -0.312485
    10  C   -0.321188
    11  C   -0.314687
    12  C   -0.312938
    13  C   -0.035219
    14  H    0.195765
    15  N   -0.477198
    16  C    0.138421
    17  H    0.285060
    18  H    0.395954
    19  H    0.188949
    20  H    0.154029
    21  H    0.172407
    22  H    0.149672
    23  H    0.190785
    24  H    0.162744
    25  H    0.183237
    26  H    0.153365
    27  H    0.225509
 Sum of Mulliken charges =  -0.00000
 Mulliken charges with hydrogens summed into heavy atoms:
               1
     1  O   -0.455560
     2  N    0.505996
     3  O   -0.485927
     4  C   -0.030483
     5  C    0.482671
     6  N   -0.405155
     7  C    0.247290
     9  C    0.030492
    10  C    0.000892
    11  C    0.038842
    12  C    0.023665
    13  C    0.160546
    15  N   -0.477198
    16  C    0.363931
 Electronic spatial extent (au):  <R**2>=           3103.3802
 Charge=             -0.0000 electrons
 Dipole moment (field-independent basis, Debye):
    X=              5.3360    Y=              4.6045    Z=             -0.1555  Tot=              7.0498
 Quadrupole moment (field-independent basis, Debye-Ang):
   XX=           -105.0656   YY=            -80.9310   ZZ=            -81.9610
   XY=             -2.9820   XZ=              3.3439   YZ=             -0.4678
 Traceless Quadrupole moment (field-independent basis, Debye-Ang):
   XX=            -15.7464   YY=              8.3882   ZZ=              7.3582
   XY=             -2.9820   XZ=              3.3439   YZ=             -0.4678
 Octapole moment (field-independent basis, Debye-Ang**2):
  XXX=             97.2087  YYY=             41.1451  ZZZ=            -11.2838  XYY=             -0.2240
  XXY=             15.9260  XXZ=            -12.6757  XZZ=             -8.3095  YZZ=             -2.6284
  YYZ=             -2.4109  XYZ=             -1.9565
 Hexadecapole moment (field-independent basis, Debye-Ang**3):
 XXXX=          -3506.0734 YYYY=           -625.8201 ZZZZ=           -302.6712 XXXY=            -65.8785
 XXXZ=            111.2912 YYYX=            -41.4445 YYYZ=              9.2085 ZZZX=             63.9875
 ZZZY=             16.1247 XXYY=           -652.0160 XXZZ=           -543.0522 YYZZ=           -164.6471
 XXYZ=              3.7834 YYXZ=             25.0826 ZZXY=              0.0626
 N-N= 9.189876642001D+02 E-N=-3.383995244085D+03  KE= 6.588555185155D+02
 Calling FoFJK, ICntrl=  10002127 FMM=F ISym2X=0 I1Cent= 0 IOpClX= 0 NMat=1 NMatS=1 NMatT=0.
 -------------------------------------------------------------------
 Center     Atomic                   Forces (Hartrees/Bohr)
 Number     Number              X              Y              Z
 -------------------------------------------------------------------
      1        8           0.003634816   -0.019635042   -0.005162193
      2        7           0.038129630    0.017117616   -0.005744968
      3        8          -0.006119355    0.015211592    0.004620776
      4        6          -0.007556427    0.015971286    0.009948880
      5        6           0.002478888   -0.021796882   -0.001820170
      6        7           0.015873471   -0.012197851   -0.005324915
      7        6          -0.005159271    0.004821946    0.003089067
      8        1          -0.008885887   -0.002618297   -0.007741963
      9        6          -0.004415053   -0.000442441   -0.002599088
     10        6           0.002870509   -0.000710571    0.001337262
     11        6          -0.001351849   -0.004928797   -0.002832257
     12        6           0.001267814   -0.008105266   -0.002442498
     13        6           0.008090266   -0.006398929    0.011641725
     14        1           0.001107175    0.005552494   -0.009213837
     15        7          -0.000415415    0.009500922   -0.009268908
     16        6          -0.011505798    0.011918624   -0.000214894
     17        1           0.006219185   -0.005205339   -0.007922890
     18        1          -0.016550629   -0.001772850    0.007112824
     19        1           0.002991130    0.006082675    0.007735846
     20        1          -0.003478575   -0.007195168    0.002600649
     21        1          -0.004784845    0.002467992    0.009415772
     22        1          -0.003661825   -0.004008441   -0.007572745
     23        1           0.003855364    0.006275974    0.009402683
     24        1          -0.009263638    0.002732328   -0.002472920
     25        1          -0.000542210    0.010552612   -0.002307899
     26        1          -0.004675489   -0.004888019   -0.004566520
     27        1           0.001848018   -0.008302167    0.010303180
 -------------------------------------------------------------------
 Cartesian Forces:  Max     0.038129630 RMS     0.008903324

 GradGradGradGradGradGradGradGradGradGradGradGradGradGradGradGradGradGrad
 Berny optimization.
 FormGI is forming the generalized inverse of G from B-inverse, IUseBI=4.
 Internal  Forces:  Max     0.038124838 RMS     0.006911007
 Search for a local minimum.
 Step number   1 out of a maximum of   20
 All quantities printed in internal units (Hartrees-Bohrs-Radians)
 Mixed Optimization -- RFO/linear search
 Second derivative matrix not updated -- first step.
 ITU=  0
     Eigenvalues ---    0.00230   0.00758   0.01047   0.01146   0.01186
     Eigenvalues ---    0.01522   0.01679   0.01997   0.02054   0.02087
     Eigenvalues ---    0.02663   0.03644   0.04490   0.04693   0.04836
     Eigenvalues ---    0.05079   0.05133   0.05299   0.05878   0.06272
     Eigenvalues ---    0.07216   0.07712   0.07728   0.07881   0.07998
     Eigenvalues ---    0.08058   0.08101   0.10470   0.11742   0.12290
     Eigenvalues ---    0.13695   0.15256   0.15761   0.15947   0.16066
     Eigenvalues ---    0.19988   0.21715   0.22563   0.24919   0.25000
     Eigenvalues ---    0.25000   0.25255   0.25990   0.26656   0.27983
     Eigenvalues ---    0.28095   0.28390   0.30035   0.31098   0.31467
     Eigenvalues ---    0.32038   0.32232   0.32286   0.32375   0.32387
     Eigenvalues ---    0.32406   0.32515   0.32519   0.32567   0.33200
     Eigenvalues ---    0.33393   0.33683   0.35204   0.43875   0.44064
     Eigenvalues ---    0.48596   0.66431   0.90482   0.912141000.00000
     Eigenvalues --- 1000.000001000.000001000.000001000.000001000.00000
     Eigenvalues --- 1000.000001000.000001000.000001000.000001000.00000
     Eigenvalues --- 1000.000001000.000001000.000001000.000001000.00000
     Eigenvalues --- 1000.000001000.000001000.000001000.000001000.00000
     Eigenvalues --- 1000.000001000.000001000.000001000.000001000.00000
     Eigenvalues --- 1000.000001000.000001000.000001000.000001000.00000
     Eigenvalues --- 1000.000001000.000001000.000001000.000001000.00000
     Eigenvalues --- 1000.000001000.000001000.000001000.000001000.00000
     Eigenvalues --- 1000.000001000.000001000.000001000.000001000.00000
     Eigenvalues --- 1000.000001000.000001000.000001000.000001000.00000
     Eigenvalues --- 1000.000001000.000001000.000001000.000001000.00000
     Eigenvalues --- 1000.000001000.000001000.000001000.000001000.00000
     Eigenvalues --- 1000.000001000.000001000.000001000.000001000.00000
     Eigenvalues --- 1000.000001000.000001000.000001000.000001000.00000
     Eigenvalues --- 1000.000001000.000001000.000001000.000001000.00000
     Eigenvalues --- 1000.000001000.000001000.000001000.000001000.00000
     Eigenvalues --- 1000.000001000.000001000.000001000.000001000.00000
     Eigenvalues --- 1000.000001000.000001000.000001000.000001000.00000
     Eigenvalues --- 1000.00000
 RFO step:  Lambda=-2.44736994D-02 EMin= 2.30009299D-03
 Linear search not attempted -- first point.
 Iteration  1 RMS(Cart)=  0.05546882 RMS(Int)=  0.00095783
 Iteration  2 RMS(Cart)=  0.00108613 RMS(Int)=  0.00025419
 Iteration  3 RMS(Cart)=  0.00000106 RMS(Int)=  0.00025419
 Iteration  4 RMS(Cart)=  0.00000000 RMS(Int)=  0.00025419
 Iteration  1 RMS(Cart)=  0.00005204 RMS(Int)=  0.00003846
 Iteration  2 RMS(Cart)=  0.00002437 RMS(Int)=  0.00004272
 Iteration  3 RMS(Cart)=  0.00001285 RMS(Int)=  0.00004727
 Iteration  4 RMS(Cart)=  0.00000776 RMS(Int)=  0.00005009
 Iteration  5 RMS(Cart)=  0.00000524 RMS(Int)=  0.00005182
 Iteration  6 RMS(Cart)=  0.00000382 RMS(Int)=  0.00005293
 Iteration  7 RMS(Cart)=  0.00000293 RMS(Int)=  0.00005369
 Iteration  8 RMS(Cart)=  0.00000233 RMS(Int)=  0.00005425
 Iteration  9 RMS(Cart)=  0.00000189 RMS(Int)=  0.00005467
 Iteration 10 RMS(Cart)=  0.00000156 RMS(Int)=  0.00005500
 Iteration 11 RMS(Cart)=  0.00000130 RMS(Int)=  0.00005527
 Iteration 12 RMS(Cart)=  0.00000109 RMS(Int)=  0.00005549
 Iteration 13 RMS(Cart)=  0.00000091 RMS(Int)=  0.00005567
 Variable       Old X    -DE/DX   Delta X   Delta X   Delta X     New X
                                 (Linear)    (Quad)   (Total)
    R1        2.32378   0.01850   0.00000   0.01975   0.01975   2.34353
    R2        2.32712   0.01610   0.00000   0.01733   0.01733   2.34445
    R3        2.87893  -0.03812   0.00000  -0.11737  -0.11737   2.76156
    R4        2.64451  -0.03803   0.00000  -0.08365  -0.08351   2.56100
    R5        2.80645  -0.01579   0.00000  -0.04497  -0.04476   2.76168
    R6        2.59356  -0.02211   0.00000  -0.04524  -0.04522   2.54834
    R7        2.08366  -0.00996   0.00000  -0.02778  -0.02778   2.05589
    R8        2.83203  -0.01954   0.00000  -0.05536  -0.05542   2.77662
    R9        1.93304  -0.00708   0.00000  -0.01529  -0.01529   1.91775
   R10        2.11830  -0.01156   0.00000  -0.03409  -0.03409   2.08422
   R11        2.92683  -0.01321   0.00000  -0.04419  -0.04425   2.88259
   R12        2.91110  -0.00669   0.00000  -0.01233  -0.01225   2.89886
   R13        2.91101  -0.00459   0.00000  -0.01392  -0.01395   2.89706
   R14        2.09912  -0.01010   0.00000  -0.02888  -0.02888   2.07024
   R15        2.09904  -0.00796   0.00000  -0.02277  -0.02277   2.07627
   R16        2.90409  -0.00211   0.00000  -0.00781  -0.00786   2.89623
   R17        2.10141  -0.01059   0.00000  -0.03041  -0.03041   2.07099
   R18        2.10325  -0.00903   0.00000  -0.02599  -0.02599   2.07726
   R19        2.91792  -0.00885   0.00000  -0.02860  -0.02854   2.88937
   R20        2.10422  -0.01182   0.00000  -0.03409  -0.03409   2.07013
   R21        2.10107  -0.00995   0.00000  -0.02855  -0.02855   2.07253
   R22        2.93525  -0.01045   0.00000  -0.03612  -0.03610   2.89915
   R23        2.10163  -0.01065   0.00000  -0.03057  -0.03057   2.07106
   R24        2.09819  -0.00794   0.00000  -0.02268  -0.02268   2.07551
   R25        2.10775  -0.00859   0.00000  -0.02491  -0.02491   2.08284
   R26        2.76998  -0.00485   0.00000  -0.00927  -0.00955   2.76043
   R27        2.44462  -0.00886   0.00000  -0.01171  -0.01175   2.43287
   R28        2.07869  -0.00503   0.00000  -0.01391  -0.01391   2.06478
    A1        2.16198   0.01130   0.00000   0.04118   0.04118   2.20316
    A2        2.05201  -0.00980   0.00000  -0.03569  -0.03569   2.01632
    A3        2.06919  -0.00151   0.00000  -0.00550  -0.00550   2.06369
    A4        2.04448  -0.00453   0.00000  -0.01765  -0.01835   2.02613
    A5        2.03789  -0.00424   0.00000  -0.01550  -0.01632   2.02157
    A6        2.19780   0.00870   0.00000   0.02798   0.02727   2.22507
    A7        2.17922   0.00498   0.00000   0.00896   0.00902   2.18824
    A8        2.07127  -0.00268   0.00000  -0.00575  -0.00578   2.06549
    A9        2.02972  -0.00221   0.00000  -0.00252  -0.00261   2.02711
   A10        2.23991  -0.00368   0.00000  -0.01440  -0.01460   2.22531
   A11        2.12977  -0.01267   0.00000  -0.07060  -0.07066   2.05911
   A12        1.88941   0.01657   0.00000   0.08805   0.08828   1.97768
   A13        1.83491  -0.00075   0.00000  -0.01489  -0.01472   1.82019
   A14        2.00515  -0.00202   0.00000  -0.01829  -0.01819   1.98695
   A15        1.97239   0.00124   0.00000   0.01528   0.01479   1.98719
   A16        1.85006   0.00258   0.00000   0.02216   0.02199   1.87205
   A17        1.84558   0.00007   0.00000   0.00841   0.00837   1.85395
   A18        1.94050  -0.00080   0.00000  -0.00975  -0.00938   1.93112
   A19        1.91223  -0.00014   0.00000  -0.00347  -0.00364   1.90859
   A20        1.92251  -0.00058   0.00000  -0.01104  -0.01100   1.91151
   A21        1.92269  -0.00160   0.00000  -0.00901  -0.00899   1.91370
   A22        1.91856  -0.00017   0.00000   0.00670   0.00671   1.92527
   A23        1.90340   0.00298   0.00000   0.02251   0.02252   1.92592
   A24        1.88419  -0.00045   0.00000  -0.00530  -0.00556   1.87863
   A25        1.94082  -0.00095   0.00000   0.00616   0.00604   1.94686
   A26        1.91908  -0.00078   0.00000  -0.00662  -0.00665   1.91243
   A27        1.90483   0.00045   0.00000  -0.00318  -0.00323   1.90160
   A28        1.91608   0.00094   0.00000   0.00740   0.00744   1.92353
   A29        1.89824   0.00158   0.00000   0.01020   0.01023   1.90847
   A30        1.88373  -0.00124   0.00000  -0.01446  -0.01455   1.86918
   A31        1.94549   0.00044   0.00000   0.00439   0.00451   1.95000
   A32        1.90211   0.00049   0.00000   0.00491   0.00485   1.90696
   A33        1.91776   0.00055   0.00000   0.00564   0.00562   1.92338
   A34        1.90543  -0.00077   0.00000  -0.01217  -0.01221   1.89322
   A35        1.91544  -0.00062   0.00000  -0.00046  -0.00055   1.91489
   A36        1.87620  -0.00011   0.00000  -0.00265  -0.00267   1.87353
   A37        1.95271  -0.00299   0.00000  -0.01795  -0.01793   1.93478
   A38        1.90534   0.00242   0.00000   0.01643   0.01627   1.92161
   A39        1.90917   0.00158   0.00000   0.01407   0.01404   1.92321
   A40        1.90519   0.00030   0.00000  -0.00228  -0.00214   1.90305
   A41        1.90968  -0.00031   0.00000  -0.00513  -0.00509   1.90459
   A42        1.88033  -0.00093   0.00000  -0.00468  -0.00486   1.87547
   A43        1.84755   0.00462   0.00000   0.02674   0.02674   1.87429
   A44        1.94503  -0.00412   0.00000  -0.03429  -0.03481   1.91022
   A45        1.96852  -0.00096   0.00000  -0.00670  -0.00670   1.96181
   A46        1.87511   0.00206   0.00000   0.03254   0.03293   1.90804
   A47        1.89318  -0.00275   0.00000  -0.02164  -0.02147   1.87171
   A48        1.92952   0.00144   0.00000   0.00652   0.00629   1.93581
   A49        2.05691  -0.00474   0.00000  -0.01145  -0.01161   2.04530
   A50        2.22277  -0.00377   0.00000  -0.01866  -0.01837   2.20440
   A51        1.98250   0.00730   0.00000   0.04205   0.04183   2.02433
   A52        2.06709  -0.00300   0.00000  -0.02015  -0.02044   2.04665
    D1       -3.07584  -0.00113   0.00000  -0.06569  -0.06443  -3.14027
    D2        0.14414  -0.00066   0.00000   0.00000  -0.00000   0.14414
    D3        0.06735  -0.00100   0.00000  -0.06127  -0.06064   0.00671
    D4       -2.99586  -0.00052   0.00000   0.00442   0.00379  -2.99207
    D5        3.02793  -0.00062   0.00000   0.00928   0.00925   3.03718
    D6       -0.02761  -0.00179   0.00000  -0.00038  -0.00036  -0.02797
    D7       -0.20011  -0.00187   0.00000  -0.06564  -0.06647  -0.26658
    D8        3.02754  -0.00304   0.00000  -0.07529  -0.07607   2.95146
    D9       -2.48927  -0.00224   0.00000  -0.05177  -0.05246  -2.54173
   D10        0.81390  -0.00606   0.00000  -0.07476  -0.07564   0.73826
   D11        0.73848  -0.00097   0.00000   0.02300   0.02319   0.76167
   D12       -2.24154  -0.00479   0.00000   0.00000   0.00000  -2.24153
   D13       -0.25459  -0.00009   0.00000   0.05083   0.05071  -0.20387
   D14        2.62442   0.00324   0.00000   0.07882   0.07820   2.70261
   D15        2.80280   0.00102   0.00000   0.06011   0.05997   2.86277
   D16       -0.60138   0.00435   0.00000   0.08810   0.08746  -0.51392
   D17       -2.33442  -0.00079   0.00000  -0.02998  -0.02968  -2.36411
   D18        1.92211  -0.00239   0.00000  -0.03774  -0.03761   1.88450
   D19       -0.32993  -0.00054   0.00000  -0.02122  -0.02123  -0.35117
   D20        1.04103  -0.00055   0.00000  -0.03735  -0.03762   1.00341
   D21       -0.98562  -0.00215   0.00000  -0.04510  -0.04555  -1.03117
   D22        3.04552  -0.00030   0.00000  -0.02859  -0.02917   3.01635
   D23        2.94087   0.00216   0.00000   0.01476   0.01465   2.95552
   D24       -1.22974   0.00149   0.00000   0.01381   0.01372  -1.21602
   D25        0.84693  -0.00043   0.00000  -0.00522  -0.00523   0.84171
   D26        0.92292   0.00249   0.00000   0.02847   0.02846   0.95139
   D27        3.03550   0.00182   0.00000   0.02753   0.02753   3.06303
   D28       -1.17101  -0.00010   0.00000   0.00849   0.00859  -1.16243
   D29       -1.07456   0.00137   0.00000   0.01103   0.01098  -1.06358
   D30        1.03803   0.00070   0.00000   0.01008   0.01004   1.04807
   D31        3.11470  -0.00122   0.00000  -0.00895  -0.00890   3.10580
   D32       -2.90625  -0.00163   0.00000  -0.01312  -0.01305  -2.91931
   D33       -0.87293   0.00139   0.00000   0.02355   0.02313  -0.84980
   D34        1.30938  -0.00068   0.00000   0.00000   0.00001   1.30939
   D35       -0.90818  -0.00187   0.00000  -0.01825  -0.01815  -0.92633
   D36        1.12514   0.00116   0.00000   0.01841   0.01804   1.14318
   D37       -2.97573  -0.00091   0.00000  -0.00513  -0.00509  -2.98081
   D38        1.09209   0.00082   0.00000   0.00776   0.00782   1.09991
   D39        3.12541   0.00385   0.00000   0.04443   0.04401  -3.11377
   D40       -0.97546   0.00177   0.00000   0.02088   0.02089  -0.95457
   D41        0.95665   0.00059   0.00000   0.00000   0.00000   0.95665
   D42        3.08259   0.00061   0.00000   0.00894   0.00890   3.09148
   D43       -1.13748  -0.00108   0.00000  -0.01445  -0.01442  -1.15190
   D44       -1.15832   0.00151   0.00000   0.01164   0.01171  -1.14662
   D45        0.96762   0.00153   0.00000   0.02058   0.02060   0.98822
   D46        3.03074  -0.00016   0.00000  -0.00280  -0.00271   3.02802
   D47        3.06233   0.00038   0.00000   0.00074   0.00069   3.06303
   D48       -1.09491   0.00040   0.00000   0.00968   0.00959  -1.08533
   D49        0.96821  -0.00129   0.00000  -0.01371  -0.01373   0.95448
   D50       -0.92192  -0.00106   0.00000   0.00000   0.00000  -0.92192
   D51        1.18230  -0.00142   0.00000  -0.00916  -0.00917   1.17313
   D52       -3.04927  -0.00094   0.00000  -0.00623  -0.00627  -3.05554
   D53       -3.04960  -0.00009   0.00000  -0.00077  -0.00076  -3.05036
   D54       -0.94538  -0.00045   0.00000  -0.00993  -0.00993  -0.95531
   D55        1.10623   0.00003   0.00000  -0.00700  -0.00702   1.09921
   D56        1.17611  -0.00006   0.00000   0.00647   0.00650   1.18261
   D57       -3.00285  -0.00042   0.00000  -0.00269  -0.00268  -3.00553
   D58       -0.95124   0.00005   0.00000   0.00024   0.00023  -0.95101
   D59        0.98517  -0.00093   0.00000  -0.01355  -0.01360   0.97157
   D60        3.09586  -0.00084   0.00000  -0.01690  -0.01704   3.07882
   D61       -1.13379   0.00034   0.00000  -0.00491  -0.00488  -1.13867
   D62       -1.11710  -0.00131   0.00000  -0.01442  -0.01442  -1.13152
   D63        0.99359  -0.00122   0.00000  -0.01777  -0.01786   0.97573
   D64        3.04712  -0.00003   0.00000  -0.00578  -0.00570   3.04142
   D65        3.11386  -0.00037   0.00000  -0.00380  -0.00381   3.11005
   D66       -1.05863  -0.00028   0.00000  -0.00715  -0.00725  -1.06589
   D67        0.99490   0.00091   0.00000   0.00484   0.00490   0.99980
   D68       -1.04271   0.00038   0.00000   0.00157   0.00171  -1.04099
   D69       -3.12277   0.00174   0.00000   0.01125   0.01086  -3.11191
   D70        1.07422   0.00038   0.00000  -0.00287  -0.00299   1.07123
   D71        3.12970  -0.00093   0.00000  -0.00593  -0.00572   3.12398
   D72        1.04964   0.00043   0.00000   0.00375   0.00343   1.05307
   D73       -1.03656  -0.00093   0.00000  -0.01037  -0.01042  -1.04698
   D74        1.07596   0.00020   0.00000   0.00401   0.00426   1.08023
   D75       -1.00410   0.00156   0.00000   0.01369   0.01341  -0.99069
   D76       -3.09029   0.00019   0.00000  -0.00044  -0.00044  -3.09074
   D77       -1.17217   0.00248   0.00000   0.00000   0.00001  -1.17216
   D78        3.07033  -0.00090   0.00000  -0.01518  -0.01531   3.05501
   D79        1.01857  -0.00259   0.00000  -0.04542  -0.04585   0.97272
   D80       -0.01652   0.00531   0.00000   0.02624   0.02626   0.00974
   D81        2.95662   0.01012   0.00000   0.05522   0.05475   3.01137
         Item               Value     Threshold  Converged?
 Maximum Force            0.038125     0.000450     NO 
 RMS     Force            0.007010     0.000300     NO 
 Maximum Displacement     0.272552     0.001800     NO 
 RMS     Displacement     0.055891     0.001200     NO 
 Predicted change in Energy=-1.394265D-02
 GradGradGradGradGradGradGradGradGradGradGradGradGradGradGradGradGradGrad

                          Input orientation:                          
 ---------------------------------------------------------------------
 Center     Atomic      Atomic             Coordinates (Angstroms)
 Number     Number       Type             X           Y           Z
 ---------------------------------------------------------------------
      1          8           0       -3.402792   -1.500446   -0.066902
      2          7           0       -3.100807   -0.316307    0.144237
      3          8           0       -3.883361    0.596904    0.448887
      4          6           0       -1.682030    0.005861    0.006999
      5          6           0       -1.339048    1.296667    0.236808
      6          7           0       -0.078663    1.774676    0.274925
      7          6           0        1.170217    1.001759    0.317419
      8          1           0        1.778423    1.509201    1.084895
      9          6           0        1.962778    1.038508   -0.985402
     10          6           0        3.352513    0.434883   -0.751865
     11          6           0        3.261246   -0.975100   -0.158114
     12          6           0        2.385903   -1.005924    1.095137
     13          6           0        0.989548   -0.443107    0.800017
     14          1           0        0.390973   -0.448757    1.725494
     15          7           0        0.384213   -1.298432   -0.217727
     16          6           0       -0.838266   -1.054793   -0.539648
     17          1           0       -2.128156    2.005682    0.478044
     18          1           0        0.064232    2.757614    0.066850
     19          1           0        1.427160    0.473042   -1.755815
     20          1           0        2.050893    2.076369   -1.335045
     21          1           0        3.906659    0.412502   -1.697099
     22          1           0        3.912771    1.084070   -0.064121
     23          1           0        2.827276   -1.652792   -0.901381
     24          1           0        4.263421   -1.350842    0.081238
     25          1           0        2.286904   -2.034538    1.460201
     26          1           0        2.850024   -0.415199    1.896342
     27          1           0       -1.253030   -1.608492   -1.385364
 ---------------------------------------------------------------------
                    Distance matrix (angstroms):
                    1          2          3          4          5
     1  O    0.000000
     2  N    1.240145   0.000000
     3  O    2.212659   1.240627   0.000000
     4  C    2.288109   1.461354   2.321735   0.000000
     5  C    3.489287   2.390408   2.647296   1.355223   0.000000
     6  N    4.679006   3.677315   3.986620   2.402348   1.348523
     7  C    5.226963   4.473135   5.071474   3.037019   2.527821
     8  H    6.101606   5.293789   5.769973   3.923853   3.237753
     9  C    6.006602   5.362043   6.035689   3.916101   3.530226
    10  C    7.060369   6.558402   7.336616   5.109458   4.871436
    11  C    6.685335   6.403214   7.340644   5.042373   5.145832
    12  C    5.924852   5.611041   6.503105   4.330801   4.462501
    13  C    4.600235   4.144531   4.995014   2.822726   2.960807
    14  H    4.325665   3.835420   4.581819   2.730795   2.873267
    15  N    3.795386   3.638812   4.716870   2.453781   3.148138
    16  C    2.645541   2.476319   3.602486   1.461420   2.526466
    17  H    3.770224   2.539509   2.250833   2.102426   1.087928
    18  H    5.492651   4.412760   4.516427   3.259625   2.032841
    19  H    5.484115   4.973506   5.751321   3.604558   3.507252
    20  H    6.644130   5.869683   6.370761   4.474684   3.817113
    21  H    7.729487   7.281913   8.082306   5.856855   5.660316
    22  H    7.758684   7.155050   7.828166   5.698192   5.264727
    23  H    6.287552   6.166172   7.205346   4.889798   5.230013
    24  H    7.669103   7.436806   8.384446   6.098733   6.198481
    25  H    5.915229   5.806161   6.783761   4.693342   5.073573
    26  H    6.643026   6.204196   6.961175   4.928126   4.820048
    27  H    2.524181   2.724647   3.891900   2.174592   3.328482
                    6          7          8          9         10
     6  N    0.000000
     7  C    1.469322   0.000000
     8  H    2.043354   1.102919   0.000000
     9  C    2.509551   1.525400   2.131119   0.000000
    10  C    3.823913   2.495422   2.646810   1.533058   0.000000
    11  C    4.347848   2.916591   3.148902   2.534767   1.532620
    12  C    3.805071   2.472555   2.587468   2.947436   2.534103
    13  C    2.517014   1.534008   2.124850   2.515966   2.960204
    14  H    2.695989   2.166539   2.483744   3.468643   3.960915
    15  N    3.146578   2.488988   3.394620   2.922753   3.478576
    16  C    3.040792   2.999662   4.007526   3.525117   4.452729
    17  H    2.072448   3.451511   3.984485   4.451161   5.832480
    18  H    1.014831   2.090219   2.352319   2.768942   4.108305
    19  H    2.843529   2.154962   3.044116   1.095525   2.171717
    20  H    2.686639   2.158938   2.500405   1.098713   2.174578
    21  H    4.650503   3.448712   3.670371   2.162653   1.095922
    22  H    4.064902   2.770189   2.460978   2.157153   1.099238
    23  H    4.644966   3.358267   3.878606   2.827988   2.157920
    24  H    5.353510   3.893382   3.919488   3.484204   2.170859
    25  H    4.637984   3.431040   3.599652   3.940767   3.482356
    26  H    4.000219   2.706015   2.347358   3.347375   2.826328
    27  H    3.947343   3.947785   5.001189   4.184256   5.078162
                   11         12         13         14         15
    11  C    0.000000
    12  C    1.528991   0.000000
    13  C    2.522230   1.534166   0.000000
    14  H    3.473252   2.165071   1.102194   0.000000
    15  N    2.895758   2.411626   1.460758   2.120872   0.000000
    16  C    4.117999   3.615270   2.347289   2.647485   1.287419
    17  H    6.191559   5.461437   3.977475   3.731810   4.208712
    18  H    4.919824   4.540017   3.411505   3.624731   4.078589
    19  H    2.830836   3.351784   2.750111   3.747387   2.567406
    20  H    3.487346   3.939359   3.468819   4.300987   3.926258
    21  H    2.170362   3.481553   3.934106   4.981561   4.186103
    22  H    2.161828   2.836067   3.409433   4.237374   4.260356
    23  H    1.095464   2.144605   2.781247   3.779648   2.561545
    24  H    1.096734   2.161488   3.472588   4.302695   3.891064
    25  H    2.165801   1.095956   2.156763   2.485887   2.641501
    26  H    2.168728   1.098314   2.159648   2.465208   3.365949
    27  H    4.720806   4.444976   3.341133   3.704749   2.034718
                   16         17         18         19         20
    16  C    0.000000
    17  H    3.473617   0.000000
    18  H    3.964440   2.353943   0.000000
    19  H    2.990902   4.469831   3.224741   0.000000
    20  H    4.334059   4.555956   2.525119   1.771086   0.000000
    21  H    5.099701   6.609724   4.834802   2.480932   2.518611
    22  H    5.231941   6.134827   4.198709   3.068134   2.463026
    23  H    3.731575   6.312174   5.293729   2.685061   3.833729
    24  H    5.147849   7.230211   5.874761   3.840012   4.318207
    25  H    3.837445   6.064714   5.463188   4.167718   4.976812
    26  H    4.466163   5.714412   4.601568   4.018926   4.157930
    27  H    1.092633   4.159373   4.786124   3.413714   4.949408
                   21         22         23         24         25
    21  H    0.000000
    22  H    1.765689   0.000000
    23  H    2.462453   3.060999   0.000000
    24  H    2.529653   2.464322   1.766133   0.000000
    25  H    4.310470   3.833108   2.452509   2.505114   0.000000
    26  H    3.835933   2.687126   3.059314   2.483489   1.769063
    27  H    5.550134   5.973364   4.109148   5.713890   4.561785
                   26         27
    26  H    0.000000
    27  H    5.387819   0.000000
 Symmetry turned off by external request.
 Stoichiometry    C9H13N3O2
 Framework group  C1[X(C9H13N3O2)]
 Deg. of freedom    75
 Full point group                 C1      NOp   1
 Rotational constants (GHZ):           1.6929599           0.4252521           0.3750775
 Standard basis: 6-31G(d) (6D, 7F)
   236 basis functions,   444 primitive gaussians,   236 cartesian basis functions
    52 alpha electrons       52 beta electrons
       nuclear repulsion energy       933.6250792498 Hartrees.
 NAtoms=   27 NActive=   27 NUniq=   27 SFac= 1.00D+00 NAtFMM=   60 NAOKFM=F Big=F
 Integral buffers will be    131072 words long.
 Raffenetti 1 integral format.
 Two-electron integral symmetry is turned off.
 One-electron integrals computed using PRISM.
 NBasis=   236 RedAO= T EigKep=  1.03D-03  NBF=   236
 NBsUse=   236 1.00D-06 EigRej= -1.00D+00 NBFU=   236
 Initial guess from the checkpoint file:  "/home/alexey/tmp/Gau-1501105.chk"
 B after Tr=     0.053803    0.010634   -0.005930
         Rot=    0.999996   -0.001954    0.001518    0.001381 Ang=  -0.32 deg.
 ExpMin= 1.61D-01 ExpMax= 5.48D+03 ExpMxC= 8.25D+02 IAcc=3 IRadAn=         5 AccDes= 0.00D+00
 Harris functional with IExCor=  205 and IRadAn=       5 diagonalized for initial guess.
 HarFok:  IExCor=  205 AccDes= 0.00D+00 IRadAn=         5 IDoV= 1 UseB2=F ITyADJ=14
 ICtDFT=  3500011 ScaDFX=  1.000000  1.000000  1.000000  1.000000
 FoFCou: FMM=F IPFlag=           0 FMFlag=      100000 FMFlg1=           0
         NFxFlg=           0 DoJE=T BraDBF=F KetDBF=T FulRan=T
         wScrn=  0.000000 ICntrl=       500 IOpCl=  0 I1Cent=   200000004 NGrid=           0
         NMat0=    1 NMatS0=      1 NMatT0=    0 NMatD0=    1 NMtDS0=    0 NMtDT0=    0
 Symmetry not used in FoFCou.
 Keep R1 ints in memory in canonical form, NReq=397720213.
 Requested convergence on RMS density matrix=1.00D-08 within 128 cycles.
 Requested convergence on MAX density matrix=1.00D-06.
 Requested convergence on             energy=1.00D-06.
 No special actions if energy rises.
 SCF Done:  E(RHF) =  -661.292978179     A.U. after   15 cycles
            NFock= 15  Conv=0.39D-08     -V/T= 2.0024
 ExpMin= 1.61D-01 ExpMax= 5.48D+03 ExpMxC= 8.25D+02 IAcc=3 IRadAn=         5 AccDes= 0.00D+00
 HarFok:  IExCor=  205 AccDes= 0.00D+00 IRadAn=         5 IDoV=-2 UseB2=F ITyADJ=14
 ICtDFT= 12500011 ScaDFX=  1.000000  1.000000  1.000000  1.000000
 Range of M.O.s used for correlation:    15   236
 NBasis=   236 NAE=    52 NBE=    52 NFC=    14 NFV=     0
 NROrb=    222 NOA=    38 NOB=    38 NVA=   184 NVB=   184
 Fully direct method using O(ONN) memory.
 JobTyp=1 Pass  1:  I=  15 to  52 NPSUse=  4 ParTrn=T ParDer=T DoDerP=T.
 Spin components of T(2) and E(2):
     alpha-alpha T2 =       0.9115115133D-01 E2=     -0.2722221196D+00
     alpha-beta  T2 =       0.4919712049D+00 E2=     -0.1488910519D+01
     beta-beta   T2 =       0.9115115133D-01 E2=     -0.2722221196D+00
 ANorm=    0.1293937212D+01
 E2 =    -0.2033354758D+01 EUMP2 =    -0.66332633293673D+03
          IDoAtm=111111111111111111111111111
          Differentiating once with respect to electric field.
                with respect to dipole field.
          Differentiating once with respect to nuclear coordinates.
 Keep R1 ints in memory in canonical form, NReq=397723379.
          There are     1 degrees of freedom in the 1st order CPHF.  IDoFFX=0 NUNeed=     1.
 LinEq1:  Iter=  0 NonCon=     1 RMS=4.53D-03 Max=1.05D-01 NDo=     1
 AX will form     1 AO Fock derivatives at one time.
 LinEq1:  Iter=  1 NonCon=     1 RMS=1.52D-03 Max=3.06D-02 NDo=     1
 LinEq1:  Iter=  2 NonCon=     1 RMS=6.33D-04 Max=1.80D-02 NDo=     1
 LinEq1:  Iter=  3 NonCon=     1 RMS=2.78D-04 Max=7.93D-03 NDo=     1
 LinEq1:  Iter=  4 NonCon=     1 RMS=8.53D-05 Max=1.64D-03 NDo=     1
 LinEq1:  Iter=  5 NonCon=     1 RMS=3.61D-05 Max=1.88D-03 NDo=     1
[...]
    27  H    4.688618   4.435429   3.348940   3.706052   2.028277
                   16         17         18         19         20
    16  C    0.000000
    17  H    3.452761   0.000000
    18  H    4.049826   2.255194   0.000000
    19  H    2.974298   4.347408   3.457154   0.000000
    20  H    4.340455   4.472291   2.796317   1.767946   0.000000
    21  H    5.088434   6.538755   5.030282   2.497599   2.519846
    22  H    5.228140   6.108250   4.279119   3.069633   2.457949
    23  H    3.714808   6.270453   5.409663   2.708832   3.843702
    24  H    5.143018   7.219305   5.928923   3.852362   4.315046
    25  H    3.834901   6.100440   5.408764   4.176439   4.984333
    26  H    4.487371   5.782596   4.526312   4.042227   4.183110
    27  H    1.090269   4.134752   4.930912   3.392022   4.950870
                   21         22         23         24         25
    21  H    0.000000
    22  H    1.758771   0.000000
    23  H    2.468599   3.061380   0.000000
    24  H    2.517317   2.458250   1.764622   0.000000
    25  H    4.312068   3.839111   2.444907   2.519965   0.000000
    26  H    3.847068   2.704667   3.060515   2.488115   1.766991
    27  H    5.518077   5.951135   4.065499   5.680618   4.536030
                   26         27
    26  H    0.000000
    27  H    5.389449   0.000000
 Symmetry turned off by external request.
 Stoichiometry    C9H13N3O2
 Framework group  C1[X(C9H13N3O2)]
 Deg. of freedom    75
 Full point group                 C1      NOp   1
 Rotational constants (GHZ):           1.6925933           0.4202464           0.3733387

 **********************************************************************

            Population analysis using the SCF Density.

 **********************************************************************

 Alpha  occ. eigenvalues --  -20.59067 -20.58736 -15.84500 -15.64057 -15.56414
 Alpha  occ. eigenvalues --  -11.35027 -11.29701 -11.29673 -11.28422 -11.27260
 Alpha  occ. eigenvalues --  -11.23747 -11.23236 -11.22806 -11.22140  -1.56928
 Alpha  occ. eigenvalues --   -1.36548  -1.30969  -1.23307  -1.14677  -1.09814
 Alpha  occ. eigenvalues --   -1.02843  -1.01319  -0.94384  -0.89563  -0.85647
 Alpha  occ. eigenvalues --   -0.82377  -0.78433  -0.77436  -0.75106  -0.71888
 Alpha  occ. eigenvalues --   -0.69673  -0.69385  -0.67828  -0.65104  -0.63597
 Alpha  occ. eigenvalues --   -0.62523  -0.60415  -0.57622  -0.57248  -0.55107
 Alpha  occ. eigenvalues --   -0.54502  -0.51013  -0.49826  -0.48467  -0.48043
 Alpha  occ. eigenvalues --   -0.47281  -0.46351  -0.45974  -0.43514  -0.41453
 Alpha  occ. eigenvalues --   -0.40179  -0.34036
 Alpha virt. eigenvalues --    0.07641   0.12168   0.17461   0.21564   0.23057
 Alpha virt. eigenvalues --    0.24870   0.27249   0.28444   0.28992   0.29574
 Alpha virt. eigenvalues --    0.30714   0.31901   0.32100   0.32676   0.33834
 Alpha virt. eigenvalues --    0.34300   0.35565   0.37159   0.38494   0.40214
 Alpha virt. eigenvalues --    0.41687   0.42648   0.45277   0.46245   0.46547
 Alpha virt. eigenvalues --    0.47097   0.48921   0.53845   0.56702   0.59030
 Alpha virt. eigenvalues --    0.64190   0.69279   0.70047   0.72803   0.74087
 Alpha virt. eigenvalues --    0.75246   0.75797   0.76862   0.78929   0.79100
 Alpha virt. eigenvalues --    0.81219   0.84861   0.85612   0.86596   0.88112
 Alpha virt. eigenvalues --    0.89143   0.90355   0.92159   0.93101   0.94600
 Alpha virt. eigenvalues --    0.95606   0.97213   0.98210   1.01267   1.02383
 Alpha virt. eigenvalues --    1.03052   1.05740   1.06527   1.07315   1.08400
 Alpha virt. eigenvalues --    1.09895   1.10957   1.11831   1.12512   1.13814
 Alpha virt. eigenvalues --    1.14668   1.14774   1.16029   1.16632   1.18200
 Alpha virt. eigenvalues --    1.19252   1.19617   1.21086   1.22960   1.23713
 Alpha virt. eigenvalues --    1.24751   1.26809   1.27245   1.28494   1.29457
 Alpha virt. eigenvalues --    1.29696   1.32440   1.36039   1.36682   1.39059
 Alpha virt. eigenvalues --    1.41562   1.43650   1.48559   1.51959   1.52359
 Alpha virt. eigenvalues --    1.56607   1.58615   1.59322   1.62975   1.67845
 Alpha virt. eigenvalues --    1.68611   1.69493   1.73343   1.74140   1.78331
 Alpha virt. eigenvalues --    1.81501   1.84672   1.86986   1.90065   1.93644
 Alpha virt. eigenvalues --    1.96654   1.97664   1.99608   2.01792   2.02114
 Alpha virt. eigenvalues --    2.04332   2.06482   2.08562   2.09000   2.12939
 Alpha virt. eigenvalues --    2.14233   2.14771   2.19539   2.20141   2.22940
 Alpha virt. eigenvalues --    2.23897   2.25246   2.25688   2.28069   2.29931
 Alpha virt. eigenvalues --    2.31351   2.33422   2.34629   2.36103   2.38057
 Alpha virt. eigenvalues --    2.39826   2.42086   2.43179   2.44769   2.48246
 Alpha virt. eigenvalues --    2.50248   2.51796   2.53090   2.56232   2.61960
 Alpha virt. eigenvalues --    2.62426   2.65090   2.67224   2.70516   2.70757
 Alpha virt. eigenvalues --    2.72310   2.74237   2.77263   2.79291   2.84879
 Alpha virt. eigenvalues --    2.87860   2.88669   2.92484   2.93431   2.96203
 Alpha virt. eigenvalues --    2.98981   3.01482   3.04272   3.04826   3.07641
 Alpha virt. eigenvalues --    3.09338   3.14851   3.21305   3.24985   3.27112
 Alpha virt. eigenvalues --    3.34057   3.37821   3.40037   3.51640   3.62871
 Alpha virt. eigenvalues --    4.13316   4.28001   4.31900   4.37824   4.46279
 Alpha virt. eigenvalues --    4.57000   4.62012   4.63579   4.73259   4.79949
 Alpha virt. eigenvalues --    4.98124   5.00607   5.03625   5.11730
          Condensed to atoms (all electrons):
               1          2          3          4          5          6
     1  O    8.313332   0.309663  -0.080042  -0.087816   0.004371  -0.000020
     2  N    0.309663   5.726135   0.295788   0.264465  -0.047662   0.001116
     3  O   -0.080042   0.295788   8.354224  -0.090658   0.002491   0.000710
     4  C   -0.087816   0.264465  -0.090658   5.238384   0.557204  -0.053094
     5  C    0.004371  -0.047662   0.002491   0.557204   4.701842   0.317275
     6  N   -0.000020   0.001116   0.000710  -0.053094   0.317275   7.199178
     7  C    0.000005  -0.000127   0.000004   0.004387  -0.029381   0.171305
     8  H   -0.000000   0.000002  -0.000000  -0.000240   0.003325  -0.051674
     9  C   -0.000000  -0.000004  -0.000000   0.000759   0.000526  -0.062737
    10  C    0.000000   0.000000   0.000000  -0.000037  -0.000050   0.003807
    11  C   -0.000000  -0.000000  -0.000000  -0.000024   0.000021  -0.000174
    12  C   -0.000000   0.000003  -0.000000  -0.000034  -0.000145   0.003445
    13  C   -0.000035  -0.000094  -0.000007  -0.013219  -0.000760  -0.042703
    14  H   -0.000005  -0.000135   0.000001   0.003162   0.004940  -0.006179
    15  N    0.000299   0.002323  -0.000019  -0.063993  -0.004273   0.001029
    16  C    0.003938  -0.033347   0.002863   0.333451  -0.051124  -0.003275
    17  H    0.000223  -0.007422   0.017188  -0.024805   0.375309  -0.035327
    18  H    0.000001  -0.000053   0.000010   0.001582  -0.030607   0.337782
    19  H    0.000001  -0.000003   0.000000  -0.001133   0.001183  -0.000041
    20  H    0.000000  -0.000000   0.000000  -0.000050   0.000154  -0.000715
    21  H   -0.000000  -0.000000   0.000000   0.000001   0.000001  -0.000078
    22  H   -0.000000   0.000000  -0.000000  -0.000000  -0.000003  -0.000117
    23  H    0.000000  -0.000000   0.000000   0.000034  -0.000000  -0.000029
    24  H    0.000000   0.000000   0.000000   0.000000  -0.000000   0.000006
    25  H    0.000000  -0.000000   0.000000   0.000017   0.000003  -0.000084
    26  H   -0.000000  -0.000000   0.000000   0.000007  -0.000001  -0.000053
    27  H    0.003971  -0.000449  -0.000015  -0.063122   0.001631   0.000166
               7          8          9         10         11         12
     1  O    0.000005  -0.000000  -0.000000   0.000000  -0.000000  -0.000000
     2  N   -0.000127   0.000002  -0.000004   0.000000  -0.000000   0.000003
     3  O    0.000004  -0.000000  -0.000000   0.000000  -0.000000  -0.000000
     4  C    0.004387  -0.000240   0.000759  -0.000037  -0.000024  -0.000034
     5  C   -0.029381   0.003325   0.000526  -0.000050   0.000021  -0.000145
     6  N    0.171305  -0.051674  -0.062737   0.003807  -0.000174   0.003445
     7  C    5.008609   0.419839   0.349638  -0.054236  -0.008990  -0.059836
     8  H    0.419839   0.540470  -0.057318   0.001126  -0.000442  -0.001878
     9  C    0.349638  -0.057318   5.163207   0.323725  -0.049973  -0.005850
    10  C   -0.054236   0.001126   0.323725   5.118851   0.337140  -0.060577
    11  C   -0.008990  -0.000442  -0.049973   0.337140   5.118143   0.335762
    12  C   -0.059836  -0.001878  -0.005850  -0.060577   0.335762   5.115901
    13  C    0.343688  -0.039483  -0.058005  -0.000592  -0.050644   0.369447
    14  H   -0.045775  -0.000928   0.004457  -0.000422   0.004169  -0.035726
    15  N   -0.057034   0.003971  -0.015259   0.001472  -0.012437  -0.079087
    16  C   -0.004044   0.000229  -0.001949   0.000010  -0.000004   0.002987
    17  H    0.001645  -0.000022  -0.000085   0.000001   0.000000   0.000000
    18  H   -0.021093  -0.004154   0.001039  -0.000081   0.000004  -0.000105
    19  H   -0.036649   0.004401   0.389426  -0.031495  -0.002279   0.000769
    20  H   -0.043099  -0.002214   0.399911  -0.035698   0.003972  -0.000405
    21  H    0.004564  -0.000081  -0.036213   0.402340  -0.034929   0.004346
    22  H   -0.004695   0.003567  -0.047135   0.398068  -0.045569  -0.001022
    23  H    0.000507   0.000034  -0.001948  -0.038913   0.399222  -0.037627
    24  H   -0.000135  -0.000101   0.004402  -0.038532   0.402361  -0.038889
    25  H    0.005063  -0.000020  -0.000416   0.004186  -0.033616   0.398897
    26  H   -0.003854   0.001743   0.000931  -0.002187  -0.041527   0.397248
    27  H   -0.000564   0.000011  -0.000052   0.000010   0.000011  -0.000044
              13         14         15         16         17         18
     1  O   -0.000035  -0.000005   0.000299   0.003938   0.000223   0.000001
     2  N   -0.000094  -0.000135   0.002323  -0.033347  -0.007422  -0.000053
     3  O   -0.000007   0.000001  -0.000019   0.002863   0.017188   0.000010
     4  C   -0.013219   0.003162  -0.063993   0.333451  -0.024805   0.001582
     5  C   -0.000760   0.004940  -0.004273  -0.051124   0.375309  -0.030607
     6  N   -0.042703  -0.006179   0.001029  -0.003275  -0.035327   0.337782
     7  C    0.343688  -0.045775  -0.057034  -0.004044   0.001645  -0.021093
     8  H   -0.039483  -0.000928   0.003971   0.000229  -0.000022  -0.004154
     9  C   -0.058005   0.004457  -0.015259  -0.001949  -0.000085   0.001039
    10  C   -0.000592  -0.000422   0.001472   0.000010   0.000001  -0.000081
    11  C   -0.050644   0.004169  -0.012437  -0.000004   0.000000   0.000004
    12  C    0.369447  -0.035726  -0.079087   0.002987   0.000000  -0.000105
    13  C    5.044670   0.400827   0.240066  -0.073101  -0.000010   0.002933
    14  H    0.400827   0.522940  -0.037242  -0.002599   0.000133  -0.000110
    15  N    0.240066  -0.037242   6.957656   0.583481  -0.000084  -0.000138
    16  C   -0.073101  -0.002599   0.583481   4.710557   0.002440  -0.000247
    17  H   -0.000010   0.000133  -0.000084   0.002440   0.380982  -0.002711
    18  H    0.002933  -0.000110  -0.000138  -0.000247  -0.002711   0.310477
    19  H   -0.007421   0.000088   0.007445   0.003226   0.000020  -0.000152
    20  H    0.004291  -0.000063   0.000125  -0.000044   0.000004   0.001115
    21  H   -0.000430   0.000010  -0.000038   0.000004  -0.000000   0.000001
    22  H    0.000067  -0.000057   0.000011  -0.000002   0.000000   0.000001
    23  H   -0.007096   0.000000   0.008172   0.000039   0.000000   0.000000
    24  H    0.004686  -0.000054   0.000153   0.000008   0.000000  -0.000000
    25  H   -0.035863  -0.002804  -0.000076  -0.000033  -0.000000   0.000002
    26  H   -0.047105  -0.001130   0.004724  -0.000084   0.000000  -0.000001
    27  H    0.005679  -0.000198  -0.041840   0.404161  -0.000094   0.000002
              19         20         21         22         23         24
     1  O    0.000001   0.000000  -0.000000  -0.000000   0.000000   0.000000
     2  N   -0.000003  -0.000000  -0.000000   0.000000  -0.000000   0.000000
     3  O    0.000000   0.000000   0.000000  -0.000000   0.000000   0.000000
     4  C   -0.001133  -0.000050   0.000001  -0.000000   0.000034   0.000000
     5  C    0.001183   0.000154   0.000001  -0.000003  -0.000000  -0.000000
     6  N   -0.000041  -0.000715  -0.000078  -0.000117  -0.000029   0.000006
     7  C   -0.036649  -0.043099   0.004564  -0.004695   0.000507  -0.000135
     8  H    0.004401  -0.002214  -0.000081   0.003567   0.000034  -0.000101
     9  C    0.389426   0.399911  -0.036213  -0.047135  -0.001948   0.004402
    10  C   -0.031495  -0.035698   0.402340   0.398068  -0.038913  -0.038532
    11  C   -0.002279   0.003972  -0.034929  -0.045569   0.399222   0.402361
    12  C    0.000769  -0.000405   0.004346  -0.001022  -0.037627  -0.038889
    13  C   -0.007421   0.004291  -0.000430   0.000067  -0.007096   0.004686
    14  H    0.000088  -0.000063   0.000010  -0.000057   0.000000  -0.000054
    15  N    0.007445   0.000125  -0.000038   0.000011   0.008172   0.000153
    16  C    0.003226  -0.000044   0.000004  -0.000002   0.000039   0.000008
    17  H    0.000020   0.000004  -0.000000   0.000000   0.000000   0.000000
    18  H   -0.000152   0.001115   0.000001   0.000001   0.000000  -0.000000
    19  H    0.504803  -0.025072  -0.002822   0.003955   0.001491  -0.000065
    20  H   -0.025072   0.544922  -0.002694  -0.003056  -0.000046  -0.000084
    21  H   -0.002822  -0.002694   0.524333  -0.027432  -0.002910  -0.002228
    22  H    0.003955  -0.003056  -0.027432   0.571207   0.004147  -0.003699
    23  H    0.001491  -0.000046  -0.002910   0.004147   0.499182  -0.025543
    24  H   -0.000065  -0.000084  -0.002228  -0.003699  -0.025543   0.538610
    25  H   -0.000028   0.000012  -0.000087  -0.000079  -0.002353  -0.002266
    26  H    0.000019  -0.000031  -0.000082   0.002393   0.004047  -0.003102
    27  H    0.000083  -0.000000  -0.000000   0.000000  -0.000034  -0.000000
              25         26         27
     1  O    0.000000  -0.000000   0.003971
     2  N   -0.000000  -0.000000  -0.000449
     3  O    0.000000   0.000000  -0.000015
     4  C    0.000017   0.000007  -0.063122
     5  C    0.000003  -0.000001   0.001631
     6  N   -0.000084  -0.000053   0.000166
     7  C    0.005063  -0.003854  -0.000564
     8  H   -0.000020   0.001743   0.000011
     9  C   -0.000416   0.000931  -0.000052
    10  C    0.004186  -0.002187   0.000010
    11  C   -0.033616  -0.041527   0.000011
    12  C    0.398897   0.397248  -0.000044
    13  C   -0.035863  -0.047105   0.005679
    14  H   -0.002804  -0.001130  -0.000198
    15  N   -0.000076   0.004724  -0.041840
    16  C   -0.000033  -0.000084   0.404161
    17  H   -0.000000   0.000000  -0.000094
    18  H    0.000002  -0.000001   0.000002
    19  H   -0.000028   0.000019   0.000083
    20  H    0.000012  -0.000031  -0.000000
    21  H   -0.000087  -0.000082  -0.000000
    22  H   -0.000079   0.002393   0.000000
    23  H   -0.002353   0.004047  -0.000034
    24  H   -0.002266  -0.003102  -0.000000
    25  H    0.506673  -0.024053  -0.000008
    26  H   -0.024053   0.560114   0.000001
    27  H   -0.000008   0.000001   0.451350
 Mulliken charges:
               1
     1  O   -0.467885
     2  N    0.489801
     3  O   -0.502540
     4  C   -0.005229
     5  C    0.193728
     6  N   -0.779521
     7  C    0.060258
     8  H    0.179834
     9  C   -0.301076
    10  C   -0.327915
    11  C   -0.320195
    12  C   -0.307581
    13  C   -0.039789
    14  H    0.192699
    15  N   -0.499404
    16  C    0.122460
    17  H    0.292614
    18  H    0.404503
    19  H    0.190249
    20  H    0.158765
    21  H    0.174424
    22  H    0.149450
    23  H    0.199623
    24  H    0.164470
    25  H    0.186932
    26  H    0.151983
    27  H    0.239343
 Sum of Mulliken charges =  -0.00000
 Mulliken charges with hydrogens summed into heavy atoms:
               1
     1  O   -0.467885
     2  N    0.489801
     3  O   -0.502540
     4  C   -0.005229
     5  C    0.486343
     6  N   -0.375018
     7  C    0.240092
     9  C    0.047937
    10  C   -0.004042
    11  C    0.043898
    12  C    0.031334
    13  C    0.152910
    15  N   -0.499404
    16  C    0.361803
 Electronic spatial extent (au):  <R**2>=           2997.1501
 Charge=             -0.0000 electrons
 Dipole moment (field-independent basis, Debye):
    X=              5.5107    Y=              4.9613    Z=              0.6945  Tot=              7.4474
 Quadrupole moment (field-independent basis, Debye-Ang):
   XX=           -106.3245   YY=            -79.1128   ZZ=            -81.6675
   XY=             -2.6540   XZ=              1.6669   YZ=              0.7458
 Traceless Quadrupole moment (field-independent basis, Debye-Ang):
   XX=            -17.2895   YY=              9.9221   ZZ=              7.3674
   XY=             -2.6540   XZ=              1.6669   YZ=              0.7458
 Octapole moment (field-independent basis, Debye-Ang**2):
  XXX=             93.1531  YYY=             40.7101  ZZZ=             -7.1038  XYY=             -4.2130
  XXY=             12.3695  XXZ=             -2.9674  XZZ=             -9.2502  YZZ=             -1.2279
  YYZ=              4.8746  XYZ=              1.5763
 Hexadecapole moment (field-independent basis, Debye-Ang**3):
 XXXX=          -3376.2516 YYYY=           -595.0244 ZZZZ=           -303.7164 XXXY=            -33.5279
 XXXZ=             37.0543 YYYX=            -18.4667 YYYZ=             18.8941 ZZZX=             27.3930
 ZZZY=              8.5804 XXYY=           -624.2993 XXZZ=           -525.0710 YYZZ=           -158.2606
 XXYZ=             -9.3297 YYXZ=             10.9168 ZZXY=              4.5667
 N-N= 9.321285708624D+02 E-N=-3.410977036469D+03  KE= 6.596297211227D+02
 Unable to Open any file for archive entry.
 1\1\GINC-LOTUS\FOpt\RMP2-FC\6-31G(d)\C9H13N3O2\ALEXEY\02-Jul-2023\0\\#
 MP2/6-31G* SCF=Tight Opt=(ModRedun, MaxCycle=20 ) NoSymm\\MolName:\\0,
 1\O,-3.4797985518,-1.4161750019,-0.3259661864\N,-3.1149463889,-0.27173
 1044,0.0082312129\O,-3.9027860107,0.6455591481,0.310619045\C,-1.685451
 3824,-0.0331368629,0.0710069859\C,-1.3171635568,1.2743912469,0.2414358
 732\N,-0.0681299133,1.7570102979,0.3226452669\C,1.1865333644,1.0127148
 029,0.3330268548\H,1.8216782429,1.542147629,1.0603241703\C,1.926087252
 5,1.0204386916,-1.0043700276\C,3.3218069733,0.4186046595,-0.8049124212
 \C,3.2639399146,-0.9758151411,-0.1756882116\C,2.4379351674,-0.98539363
 82,1.1125394032\C,1.0330674976,-0.4344979619,0.8500370829\H,0.44123619
 15,-0.4088428136,1.7798352519\N,0.4022475077,-1.309444567,-0.136475319
 1\C,-0.836079212,-1.0992777527,-0.4423052466\H,-2.1123541049,2.0033425
 919,0.3740457893\H,0.0111273368,2.7588437594,0.451133073\H,1.353003448
 ,0.4428930315,-1.7369373035\H,2.0011599586,2.0486519188,-1.380473873\H
 ,3.849651593,0.3797772758,-1.7646075559\H,3.9036940739,1.0883967117,-0
 .1558151717\H,2.8072795831,-1.6762826677,-0.8813992001\H,4.2799724531,
 -1.3338857333,0.0284532302\H,2.3456190881,-2.0068410655,1.4966607234\H
 ,2.9298679317,-0.3866331756,1.8914206374\H,-1.2401984574,-1.6918043396
 ,-1.2634540836\\Version=ES64L-G16RevC.02\HF=-661.2967225\MP2=-663.3313
 212\RMSD=8.805e-09\RMSF=2.241e-03\Dipole=2.0091868,1.740101,0.2776796\
 PG=C01 [X(C9H13N3O2)]\\@
 The archive entry for this job was punched.


 EXPERIENCE IS A WONDERFUL THING.  IT ENABLES
 YOU TO RECOGNIZE A MISTAKE WHEN YOU MAKE IT AGAIN.
           - BACK OF A SUGAR PACKET
 Job cpu time:       0 days  1 hours  5 minutes 34.2 seconds.
 Elapsed time:       0 days  0 hours 19 minutes 51.5 seconds.
 File lengths (MBytes):  RWF=     36 Int=      0 D2E=      0 Chk=      7 Scr=      1
 Normal termination of Gaussian 16 at Sun Jul  2 11:44:45 2023.
