 Entering Gaussian System, Link 0=g16
 Initial command:
 /home/alexey/programs//g16/l1.exe "/home/alexey/tmp/Gau-1251110.inp" -scrdir="/home/alexey/tmp/"
 Entering Link 1 = /home/alexey/programs//g16/l1.exe PID=   1251112.
  
 Copyright (c) 1988-2021, Gaussian, Inc.  All Rights Reserved.
  
 This is part of the Gaussian(R) 16 program.  It is based on
 the Gaussian(R) 09 system (copyright 2009, Gaussian, Inc.),
 the Gaussian(R) 03 system (copyright 2003, Gaussian, Inc.),
 the Gaussian(R) 98 system (copyright 1998, Gaussian, Inc.),
 the Gaussian(R) 94 system (copyright 1995, Gaussian, Inc.),
 the Gaussian 92(TM) system (copyright 1992, Gaussian, Inc.),
 the Gaussian 90(TM) system (copyright 1990, Gaussian, Inc.),
 the Gaussian 88(TM) system (copyright 1988, Gaussian, Inc.),
 the Gaussian 86(TM) system (copyright 1986, Carnegie Mellon
 University), and the Gaussian 82(TM) system (copyright 1983,
 Carnegie Mellon University). Gaussian is a federally registered
 trademark of Gaussian, Inc.
  
 This software contains proprietary and confidential information,
 including trade secrets, belonging to Gaussian, Inc.
  
 This software is provided under written license and may be
 used, copied, transmitted, or stored only in accord with that
 written license.
  
 The following legend is applicable only to US Government
 contracts under FAR:
  
                    RESTRICTED RIGHTS LEGEND
  
 Use, reproduction and disclosure by the US Government is
 subject to restrictions as set forth in subparagraphs (a)
 and (c) of the Commercial Computer Software - Restricted
 Rights clause in FAR 52.227-19.
  
 Gaussian, Inc.
 340 Quinnipiac St., Bldg. 40, Wallingford CT 06492
  
  
 ---------------------------------------------------------------
 Warning -- This program may not be used in any manner that
 competes with the business of Gaussian, Inc. or will provide
 assistance to any competitor of Gaussian, Inc.  The licensee
 of this program is prohibited from giving any competitor of
 Gaussian, Inc. access to this program.  By using this program,
 the user acknowledges that Gaussian, Inc. is engaged in the
 business of creating and licensing software in the field of
 computational chemistry and represents and warrants to the
 licensee that it is not a competitor of Gaussian, Inc. and that
 it will not use this program in any manner prohibited above.
 ---------------------------------------------------------------
  

 Cite this work as:
 Gaussian 16, Revision C.02,
 M. J. Frisch, G. W. Trucks, H. B. Schlegel, G. E. Scuseria, 
 M. A. Robb, J. R. Cheeseman, G. Scalmani, V. Barone, 
 G. A. Petersson, H. Nakatsuji, X. Li, M. Caricato, A. V. Marenich, 
 J. Bloino, B. G. Janesko, R. Gomperts, B. Mennucci, H. P. Hratchian, 
 J. V. Ortiz, A. F. Izmaylov, J. L. Sonnenberg, D. Williams-Young, 
 F. Ding, F. Lipparini, F. Egidi, J. Goings, B. Peng, A. Petrone, 
 T. Henderson, D. Ranasinghe, V. G. Zakrzewski, J. Gao, N. Rega, 
 G. Zheng, W. Liang, M. Hada, M. Ehara, K. Toyota, R. Fukuda, 
 J. Hasegawa, M. Ishida, T. Nakajima, Y. Honda, O. Kitao, H. Nakai, 
 T. Vreven, K. Throssell, J. A. Montgomery, Jr., J. E. Peralta, 
 F. Ogliaro, M. J. Bearpark, J. J. Heyd, E. N. Brothers, K. N. Kudin, 
 V. N. Staroverov, T. A. Keith, R. Kobayashi, J. Normand, 
 K. Raghavachari, A. P. Rendell, J. C. Burant, S. S. Iyengar, 
 J. Tomasi, M. Cossi, J. M. Millam, M. Klene, C. Adamo, R. Cammi, 
 J. W. Ochterski, R. L. Martin, K. Morokuma, O. Farkas, 
 J. B. Foresman, and D. J. Fox, Gaussian, Inc., Wallingford CT, 2019.
 
 ******************************************
 Gaussian 16:  ES64L-G16RevC.02  7-Dec-2021
                 1-Jul-2023 
 ******************************************
 %mem=8GB
 %NPROCS=4
 Will use up to    4 processors via shared memory.
 %NoSave
 ---------------------------------------------------------
 #MP2/6-31G* SCF=Tight Opt=(ModRedun, MaxCycle=20 ) NoSymm
 ---------------------------------------------------------
 1/6=20,18=120,19=15,38=1/1,3;
 2/9=110,12=2,15=1,17=6,18=5,40=1/2;
 3/5=1,6=6,7=1,11=9,25=1,30=1,71=1/1,2,3;
 4//1;
 5/5=2,32=2,38=5/2;
 8/6=4,10=2/1;
 9/15=2,16=-3/6;
 10/5=1,31=1/2;
 6/7=2,8=2,9=2,10=2/1;
 7/12=2,30=1/1,2,3,16;
 1/6=20,18=20,19=15/3(2);
 2/9=110,15=1/2;
 99//99;
 2/9=110,15=1/2;
 3/5=1,6=6,7=1,11=9,25=1,30=1,71=1/1,2,3;
 4/5=5,16=3,69=1/1;
 5/5=2,32=2,38=5/2;
 8/6=4,10=2/1;
 9/15=2,16=-3/6;
 10/5=1,31=1/2;
 7/12=2,30=1/1,2,3,16;
 1/6=20,18=20,19=15/3(-8);
 2/9=110,15=1/2;
 6/7=2,8=2,9=2,10=2/1;
 99/9=10/99;
 --------
 MolName:
 --------
 Symbolic Z-matrix:
 Charge =  0 Multiplicity = 1
 8                    0    -3.63913  -1.30346  -0.56935 
 7                    0    -3.20899  -0.16059  -0.42418 
 8                    0    -3.89711   0.84843  -0.58516 
 6                    0    -1.72965   0.00688  -0.06033 
 6                    0    -1.3343    1.30739   0.27478 
 7                    0    -0.08079   1.69916   0.65386 
 6                    0     1.20402   0.96724   0.48252 
 1                    0     1.933     1.47681   1.1655 
 6                    0     1.82452   1.03746  -0.93501 
 6                    0     3.26129   0.48343  -0.89139 
 6                    0     3.29046  -0.93398  -0.2975 
 6                    0     2.57747  -0.98607   1.07118 
 6                    0     1.11145  -0.48265   0.96885 
 1                    0     0.66051  -0.52859   1.98796 
 7                    0     0.37796  -1.38092   0.07519 
 6                    0    -0.89438  -1.22972  -0.10067 
 1                    0    -2.09288   2.10711   0.24747 
 1                    0     0.15196   2.69318   0.71728 
 1                    0     1.21249   0.44701  -1.64973 
 1                    0     1.84785   2.0894   -1.2907 
 1                    0     3.69437   0.47151  -1.91554 
 1                    0     3.8911    1.14979  -0.26068 
 1                    0     2.78387  -1.63224  -1.0015 
 1                    0     4.34261  -1.27572  -0.18656 
 1                    0     2.58052  -2.03304   1.44605 
 1                    0     3.1342   -0.3636    1.80257 
 1                    0    -1.44144  -2.1112   -0.46691 
 
 The following ModRedundant input section has been read:
 D       5       4      16      27 F                                           
 D       1       2       4      16 F                                           
 D       7      13      15      16 F                                           
 D       7       9      10      11 F                                           
 D       9      10      11      12 F                                           
 D       6       7      13      15 F                                           
 

 GradGradGradGradGradGradGradGradGradGradGradGradGradGradGradGradGradGrad
 Berny optimization.
 Initialization pass.
                           ----------------------------
                           !    Initial Parameters    !
                           ! (Angstroms and Degrees)  !
 --------------------------                            --------------------------
 ! Name  Definition              Value          Derivative Info.                !
 --------------------------------------------------------------------------------
 ! R1    R(1,2)                  1.2297         estimate D2E/DX2                !
 ! R2    R(2,3)                  1.2319         estimate D2E/DX2                !
 ! R3    R(2,4)                  1.5326         estimate D2E/DX2                !
 ! R4    R(4,5)                  1.4            estimate D2E/DX2                !
 ! R5    R(4,16)                 1.4928         estimate D2E/DX2                !
 ! R6    R(5,6)                  1.3669         estimate D2E/DX2                !
 ! R7    R(5,17)                 1.1026         estimate D2E/DX2                !
 ! R8    R(6,7)                  1.4886         estimate D2E/DX2                !
 ! R9    R(6,18)                 1.0229         estimate D2E/DX2                !
 ! R10   R(7,8)                  1.1214         estimate D2E/DX2                !
 ! R11   R(7,9)                  1.549          estimate D2E/DX2                !
 ! R12   R(7,13)                 1.5321         estimate D2E/DX2                !
 ! R13   R(9,10)                 1.5405         estimate D2E/DX2                !
 ! R14   R(9,19)                 1.1109         estimate D2E/DX2                !
 ! R15   R(9,20)                 1.1107         estimate D2E/DX2                !
 ! R16   R(10,11)                1.5371         estimate D2E/DX2                !
 ! R17   R(10,21)                1.112          estimate D2E/DX2                !
 ! R18   R(10,22)                1.1129         estimate D2E/DX2                !
 ! R19   R(11,12)                1.5441         estimate D2E/DX2                !
 ! R20   R(11,23)                1.1135         estimate D2E/DX2                !
 ! R21   R(11,24)                1.1118         estimate D2E/DX2                !
 ! R22   R(12,13)                1.5534         estimate D2E/DX2                !
 ! R23   R(12,25)                1.1121         estimate D2E/DX2                !
 ! R24   R(12,26)                1.1101         estimate D2E/DX2                !
 ! R25   R(13,14)                1.1154         estimate D2E/DX2                !
 ! R26   R(13,15)                1.4641         estimate D2E/DX2                !
 ! R27   R(15,16)                1.2933         estimate D2E/DX2                !
 ! R28   R(16,27)                1.1002         estimate D2E/DX2                !
 ! A1    A(1,2,3)              123.3955         estimate D2E/DX2                !
 ! A2    A(1,2,4)              117.853          estimate D2E/DX2                !
 ! A3    A(3,2,4)              118.731          estimate D2E/DX2                !
 ! A4    A(2,4,5)              115.5259         estimate D2E/DX2                !
 ! A5    A(2,4,16)             116.305          estimate D2E/DX2                !
 ! A6    A(5,4,16)             128.1685         estimate D2E/DX2                !
 ! A7    A(4,5,6)              126.2703         estimate D2E/DX2                !
 ! A8    A(4,5,17)             118.2652         estimate D2E/DX2                !
 ! A9    A(6,5,17)             115.4612         estimate D2E/DX2                !
 ! A10   A(5,6,7)              128.2189         estimate D2E/DX2                !
 ! A11   A(5,6,18)             120.2905         estimate D2E/DX2                !
 ! A12   A(7,6,18)             106.772          estimate D2E/DX2                !
 ! A13   A(6,7,8)              105.5186         estimate D2E/DX2                !
 ! A14   A(6,7,9)              115.3916         estimate D2E/DX2                !
 ! A15   A(6,7,13)             112.1252         estimate D2E/DX2                !
 ! A16   A(8,7,9)              106.0426         estimate D2E/DX2                !
 ! A17   A(8,7,13)             106.0203         estimate D2E/DX2                !
 ! A18   A(9,7,13)             110.9528         estimate D2E/DX2                !
 ! A19   A(7,9,10)             109.3535         estimate D2E/DX2                !
 ! A20   A(7,9,19)             110.1202         estimate D2E/DX2                !
 ! A21   A(7,9,20)             110.1461         estimate D2E/DX2                !
 ! A22   A(10,9,19)            109.9321         estimate D2E/DX2                !
 ! A23   A(10,9,20)            109.2745         estimate D2E/DX2                !
 ! A24   A(19,9,20)            107.9952         estimate D2E/DX2                !
 ! A25   A(9,10,11)            111.1175         estimate D2E/DX2                !
 ! A26   A(9,10,21)            109.9382         estimate D2E/DX2                !
 ! A27   A(9,10,22)            109.1793         estimate D2E/DX2                !
 ! A28   A(11,10,21)           109.7898         estimate D2E/DX2                !
 ! A29   A(11,10,22)           108.8107         estimate D2E/DX2                !
 ! A30   A(21,10,22)           107.937          estimate D2E/DX2                !
 ! A31   A(10,11,12)           111.3964         estimate D2E/DX2                !
 ! A32   A(10,11,23)           108.9872         estimate D2E/DX2                !
 ! A33   A(10,11,24)           109.8742         estimate D2E/DX2                !
 ! A34   A(12,11,23)           109.2193         estimate D2E/DX2                !
 ! A35   A(12,11,24)           109.7642         estimate D2E/DX2                !
 ! A36   A(23,11,24)           107.5109         estimate D2E/DX2                !
 ! A37   A(11,12,13)           111.4962         estimate D2E/DX2                !
 ! A38   A(11,12,25)           109.2254         estimate D2E/DX2                !
 ! A39   A(11,12,26)           109.4813         estimate D2E/DX2                !
 ! A40   A(13,12,25)           109.2625         estimate D2E/DX2                !
 ! A41   A(13,12,26)           109.5711         estimate D2E/DX2                !
 ! A42   A(25,12,26)           107.7244         estimate D2E/DX2                !
 ! A43   A(7,13,12)            105.6985         estimate D2E/DX2                !
 ! A44   A(7,13,14)            110.6981         estimate D2E/DX2                !
 ! A45   A(7,13,15)            114.6541         estimate D2E/DX2                !
 ! A46   A(12,13,14)           107.9395         estimate D2E/DX2                !
 ! A47   A(12,13,15)           108.3114         estimate D2E/DX2                !
 ! A48   A(14,13,15)           109.2623         estimate D2E/DX2                !
 ! A49   A(13,15,16)           120.2743         estimate D2E/DX2                !
 ! A50   A(4,16,15)            130.0629         estimate D2E/DX2                !
 ! A51   A(4,16,27)            113.233          estimate D2E/DX2                !
 ! A52   A(15,16,27)           116.1535         estimate D2E/DX2                !
 ! D1    D(1,2,4,5)           -171.48           estimate D2E/DX2                !
 ! D2    D(1,2,4,16)             8.258          Frozen                          !
 ! D3    D(3,2,4,5)             10.1096         estimate D2E/DX2                !
 ! D4    D(3,2,4,16)          -170.1524         estimate D2E/DX2                !
 ! D5    D(2,4,5,6)            178.8305         estimate D2E/DX2                !
 ! D6    D(2,4,5,17)            -0.4805         estimate D2E/DX2                !
 ! D7    D(16,4,5,6)            -0.8708         estimate D2E/DX2                !
 ! D8    D(16,4,5,17)          179.8182         estimate D2E/DX2                !
 ! D9    D(2,4,16,15)          175.4062         estimate D2E/DX2                !
 ! D10   D(2,4,16,27)            4.3777         estimate D2E/DX2                !
 ! D11   D(5,4,16,15)           -4.8945         estimate D2E/DX2                !
 ! D12   D(5,4,16,27)         -175.923          Frozen                          !
 ! D13   D(4,5,6,7)             16.7415         estimate D2E/DX2                !
 ! D14   D(4,5,6,18)           169.0348         estimate D2E/DX2                !
 ! D15   D(17,5,6,7)          -163.9306         estimate D2E/DX2                !
 ! D16   D(17,5,6,18)          -11.6373         estimate D2E/DX2                !
 ! D17   D(5,6,7,8)           -164.5746         estimate D2E/DX2                !
 ! D18   D(5,6,7,9)             78.7281         estimate D2E/DX2                !
 ! D19   D(5,6,7,13)           -49.6086         estimate D2E/DX2                !
 ! D20   D(18,6,7,8)            40.2163         estimate D2E/DX2                !
 ! D21   D(18,6,7,9)           -76.4809         estimate D2E/DX2                !
 ! D22   D(18,6,7,13)          155.1823         estimate D2E/DX2                !
 ! D23   D(6,7,9,10)           168.9249         estimate D2E/DX2                !
 ! D24   D(6,7,9,19)           -70.1789         estimate D2E/DX2                !
 ! D25   D(6,7,9,20)            48.8242         estimate D2E/DX2                !
 ! D26   D(8,7,9,10)            52.524          estimate D2E/DX2                !
 ! D27   D(8,7,9,19)           173.4203         estimate D2E/DX2                !
 ! D28   D(8,7,9,20)           -67.5767         estimate D2E/DX2                !
 ! D29   D(13,7,9,10)          -62.1592         estimate D2E/DX2                !
 ! D30   D(13,7,9,19)           58.737          estimate D2E/DX2                !
 ! D31   D(13,7,9,20)          177.74           estimate D2E/DX2                !
 ! D32   D(6,7,13,12)         -165.7628         estimate D2E/DX2                !
 ! D33   D(6,7,13,14)          -49.1336         estimate D2E/DX2                !
 ! D34   D(6,7,13,15)           75.0221         Frozen                          !
 ! D35   D(8,7,13,12)          -51.1032         estimate D2E/DX2                !
 ! D36   D(8,7,13,14)           65.5261         estimate D2E/DX2                !
 ! D37   D(8,7,13,15)         -170.3183         estimate D2E/DX2                !
 ! D38   D(9,7,13,12)           63.594          estimate D2E/DX2                !
 ! D39   D(9,7,13,14)         -179.7767         estimate D2E/DX2                !
 ! D40   D(9,7,13,15)          -55.6211         estimate D2E/DX2                !
 ! D41   D(7,9,10,11)           54.8121         Frozen                          !
 ! D42   D(7,9,10,21)          176.5602         estimate D2E/DX2                !
 ! D43   D(7,9,10,22)          -65.2082         estimate D2E/DX2                !
 ! D44   D(19,9,10,11)         -66.1984         estimate D2E/DX2                !
 ! D45   D(19,9,10,21)          55.5497         estimate D2E/DX2                !
 ! D46   D(19,9,10,22)         173.7812         estimate D2E/DX2                !
 ! D47   D(20,9,10,11)         175.4457         estimate D2E/DX2                !
 ! D48   D(20,9,10,21)         -62.8061         estimate D2E/DX2                !
 ! D49   D(20,9,10,22)          55.4254         estimate D2E/DX2                !
 ! D50   D(9,10,11,12)         -52.8224         Frozen                          !
 ! D51   D(9,10,11,23)          67.7558         estimate D2E/DX2                !
 ! D52   D(9,10,11,24)        -174.6807         estimate D2E/DX2                !
 ! D53   D(21,10,11,12)       -174.657          estimate D2E/DX2                !
 ! D54   D(21,10,11,23)        -54.0788         estimate D2E/DX2                !
 ! D55   D(21,10,11,24)         63.4847         estimate D2E/DX2                !
 ! D56   D(22,10,11,12)         67.4166         estimate D2E/DX2                !
 ! D57   D(22,10,11,23)       -172.0052         estimate D2E/DX2                !
 ! D58   D(22,10,11,24)        -54.4418         estimate D2E/DX2                !
 ! D59   D(10,11,12,13)         56.6793         estimate D2E/DX2                !
 ! D60   D(10,11,12,25)        177.5328         estimate D2E/DX2                !
 ! D61   D(10,11,12,26)        -64.7335         estimate D2E/DX2                !
 ! D62   D(23,11,12,13)        -63.7624         estimate D2E/DX2                !
 ! D63   D(23,11,12,25)         57.091          estimate D2E/DX2                !
 ! D64   D(23,11,12,26)        174.8248         estimate D2E/DX2                !
 ! D65   D(24,11,12,13)        178.6014         estimate D2E/DX2                !
 ! D66   D(24,11,12,25)        -60.5452         estimate D2E/DX2                !
 ! D67   D(24,11,12,26)         57.1886         estimate D2E/DX2                !
 ! D68   D(11,12,13,7)         -60.5548         estimate D2E/DX2                !
 ! D69   D(11,12,13,14)       -179.0375         estimate D2E/DX2                !
 ! D70   D(11,12,13,15)         62.7729         estimate D2E/DX2                !
 ! D71   D(25,12,13,7)         178.6135         estimate D2E/DX2                !
 ! D72   D(25,12,13,14)         60.1308         estimate D2E/DX2                !
 ! D73   D(25,12,13,15)        -58.0588         estimate D2E/DX2                !
 ! D74   D(26,12,13,7)          60.8058         estimate D2E/DX2                !
 ! D75   D(26,12,13,14)        -57.6769         estimate D2E/DX2                !
 ! D76   D(26,12,13,15)       -175.8664         estimate D2E/DX2                !
 ! D77   D(7,13,15,16)         -67.1606         Frozen                          !
 ! D78   D(12,13,15,16)        175.0976         estimate D2E/DX2                !
 ! D79   D(14,13,15,16)         57.7536         estimate D2E/DX2                !
 ! D80   D(13,15,16,4)          30.6043         estimate D2E/DX2                !
 ! D81   D(13,15,16,27)       -158.5818         estimate D2E/DX2                !
 --------------------------------------------------------------------------------
 Trust Radius=3.00D-01 FncErr=1.00D-07 GrdErr=1.00D-07 EigMax=2.50D+02 EigMin=1.00D-04
 Number of steps in this run=     20 maximum allowed number of steps=    162.
 GradGradGradGradGradGradGradGradGradGradGradGradGradGradGradGradGradGrad

                          Input orientation:                          
 ---------------------------------------------------------------------
 Center     Atomic      Atomic             Coordinates (Angstroms)
 Number     Number       Type             X           Y           Z
 ---------------------------------------------------------------------
      1          8           0       -3.639130   -1.303460   -0.569350
      2          7           0       -3.208990   -0.160590   -0.424180
      3          8           0       -3.897110    0.848430   -0.585160
      4          6           0       -1.729650    0.006880   -0.060330
      5          6           0       -1.334300    1.307390    0.274780
      6          7           0       -0.080790    1.699160    0.653860
      7          6           0        1.204020    0.967240    0.482520
      8          1           0        1.933000    1.476810    1.165500
      9          6           0        1.824520    1.037460   -0.935010
     10          6           0        3.261290    0.483430   -0.891390
     11          6           0        3.290460   -0.933980   -0.297500
     12          6           0        2.577470   -0.986070    1.071180
     13          6           0        1.111450   -0.482650    0.968850
     14          1           0        0.660510   -0.528590    1.987960
     15          7           0        0.377960   -1.380920    0.075190
     16          6           0       -0.894380   -1.229720   -0.100670
     17          1           0       -2.092880    2.107110    0.247470
     18          1           0        0.151960    2.693180    0.717280
     19          1           0        1.212490    0.447010   -1.649730
     20          1           0        1.847850    2.089400   -1.290700
     21          1           0        3.694370    0.471510   -1.915540
     22          1           0        3.891100    1.149790   -0.260680
     23          1           0        2.783870   -1.632240   -1.001500
     24          1           0        4.342610   -1.275720   -0.186560
     25          1           0        2.580520   -2.033040    1.446050
     26          1           0        3.134200   -0.363600    1.802570
     27          1           0       -1.441440   -2.111200   -0.466910
 ---------------------------------------------------------------------
                    Distance matrix (angstroms):
                    1          2          3          4          5
     1  O    0.000000
     2  N    1.229734   0.000000
     3  O    2.167357   1.231887   0.000000
     4  C    2.371119   1.532606   2.383597   0.000000
     5  C    3.583481   2.481526   2.741922   1.399974   0.000000
     6  N    4.813912   3.795586   4.101611   2.468323   1.366921
     7  C    5.451478   4.644218   5.213021   3.134230   2.569421
     8  H    6.464382   5.625675   6.119629   4.132597   3.390772
     9  C    5.955257   5.199278   5.735432   3.802537   3.393317
    10  C    7.135298   6.519016   7.174238   5.082051   4.812308
    11  C    6.944756   6.546528   7.410863   5.113020   5.171039
    12  C    6.437250   6.033294   6.930299   4.562625   4.603928
    13  C    5.060415   4.550874   5.410397   3.061160   3.109288
    14  H    5.062328   4.574590   5.411934   3.192974   3.207035
    15  N    4.069207   3.821621   4.866445   2.527128   3.193537
    16  C    2.785453   2.570042   3.683724   1.492810   2.602195
    17  H    3.832763   2.615201   2.352189   2.153519   1.102607
    18  H    5.656935   4.554439   4.636208   3.370659   2.079709
    19  H    5.269685   4.628243   5.234736   3.372847   3.306075
    20  H    6.491440   5.602227   5.919659   4.318473   3.631576
    21  H    7.664396   7.090845   7.716382   5.751320   5.548308
    22  H    7.925786   7.221849   7.800790   5.739269   5.255127
    23  H    6.445912   6.197856   7.138806   4.893299   5.218203
    24  H    7.990962   7.637188   8.518444   6.207523   6.254007
    25  H    6.578615   6.365709   7.374847   5.000802   5.277894
    26  H    7.237910   6.725748   7.523935   5.221560   5.009375
    27  H    2.343668   2.632668   3.847559   2.175922   3.499763
                    6          7          8          9         10
     6  N    0.000000
     7  C    1.488557   0.000000
     8  H    2.089633   1.121399   0.000000
     9  C    2.567598   1.548981   2.148706   0.000000
    10  C    3.877537   2.520726   2.642339   1.540506   0.000000
    11  C    4.382218   2.928532   3.129692   2.538105   1.537078
    12  C    3.801442   2.459330   2.547551   2.947271   2.545333
    13  C    2.506182   1.532079   2.133799   2.538481   3.002601
    14  H    2.700411   2.190721   2.513424   3.514425   4.009850
    15  N    3.167365   2.522330   3.431260   2.993593   3.567025
    16  C    3.132025   3.093546   4.113705   3.637121   4.563958
    17  H    2.092865   3.496298   4.177052   4.229472   5.709683
    18  H    1.022874   2.034898   2.202853   2.875574   4.139897
    19  H    2.923522   2.194812   3.083041   1.110872   2.184946
    20  H    2.766451   2.195010   2.532871   1.110692   2.176327
    21  H    4.728718   3.492604   3.688612   2.185881   1.112018
    22  H    4.112676   2.793934   2.444399   2.176716   1.112875
    23  H    4.695180   3.384603   3.884078   2.837617   2.171661
    24  H    5.396544   3.915263   3.900091   3.500251   2.181891
    25  H    4.651823   3.438724   3.580089   3.958403   3.501385
    26  H    3.988819   2.690588   2.288198   3.342540   2.826841
    27  H    4.198373   4.168533   5.188971   4.560666   5.387760
                   11         12         13         14         15
    11  C    0.000000
    12  C    1.544135   0.000000
    13  C    2.560357   1.553421   0.000000
    14  H    3.507749   2.173594   1.115367   0.000000
    15  N    2.970069   2.446579   1.464078   2.113052   0.000000
    16  C    4.199892   3.672375   2.392768   2.696598   1.293305
    17  H    6.206897   5.662016   4.182700   4.190152   4.277977
    18  H    4.902678   4.420998   3.327132   3.500436   4.130575
    19  H    2.837890   3.364556   2.780546   3.806477   2.648229
    20  H    3.494052   3.945800   3.501898   4.360420   4.008660
    21  H    2.180963   3.506066   3.987681   5.043988   4.288715
    22  H    2.168922   2.839256   3.450081   4.279025   4.342747
    23  H    1.113470   2.180857   2.828573   3.829304   2.647796
    24  H    1.111806   2.186670   3.521978   4.341037   3.974674
    25  H    2.179889   1.112062   2.188514   2.498695   2.675031
    26  H    2.181753   1.110112   2.191068   2.486108   3.408173
    27  H    4.879080   4.447839   3.351243   3.598505   2.034059
                   16         17         18         19         20
    16  C    0.000000
    17  H    3.562589   0.000000
    18  H    4.141620   2.367173   0.000000
    19  H    3.106431   4.157015   3.431143   0.000000
    20  H    4.466828   4.230323   2.696772   1.797228   0.000000
    21  H    5.219632   6.391092   4.941278   2.496194   2.533304
    22  H    5.346821   6.081340   4.161686   3.098114   2.473596
    23  H    3.808286   6.270993   5.347000   2.685650   3.848425
    24  H    5.237896   7.283368   5.842144   3.860870   4.332088
    25  H    3.887492   6.357523   5.363410   4.195951   5.002111
    26  H    4.538936   5.987079   4.406304   4.033415   4.152135
    27  H    1.100188   4.327684   5.198394   3.871285   5.398435
                   21         22         23         24         25
    21  H    0.000000
    22  H    1.799258   0.000000
    23  H    2.467842   3.084552   0.000000
    24  H    2.542125   2.468290   1.794688   0.000000
    25  H    4.337479   3.841999   2.488472   2.518712   0.000000
    26  H    3.851693   2.668379   3.097578   2.499771   1.794630
    27  H    5.928361   6.254004   4.285841   5.850800   4.454401
                   26         27
    26  H    0.000000
    27  H    5.398252   0.000000
 Symmetry turned off by external request.
 Stoichiometry    C9H13N3O2
 Framework group  C1[X(C9H13N3O2)]
 Deg. of freedom    75
 Full point group                 C1      NOp   1
 Rotational constants (GHZ):           1.6016331           0.4038043           0.3619047
 Standard basis: 6-31G(d) (6D, 7F)
   236 basis functions,   444 primitive gaussians,   236 cartesian basis functions
    52 alpha electrons       52 beta electrons
       nuclear repulsion energy       917.6493535342 Hartrees.
 NAtoms=   27 NActive=   27 NUniq=   27 SFac= 1.00D+00 NAtFMM=   60 NAOKFM=F Big=F
 Integral buffers will be    131072 words long.
 Raffenetti 1 integral format.
 Two-electron integral symmetry is turned off.
 One-electron integrals computed using PRISM.
 NBasis=   236 RedAO= T EigKep=  1.27D-03  NBF=   236
 NBsUse=   236 1.00D-06 EigRej= -1.00D+00 NBFU=   236
 ExpMin= 1.61D-01 ExpMax= 5.48D+03 ExpMxC= 8.25D+02 IAcc=3 IRadAn=         5 AccDes= 0.00D+00
 Harris functional with IExCor=  205 and IRadAn=       5 diagonalized for initial guess.
 HarFok:  IExCor=  205 AccDes= 0.00D+00 IRadAn=         5 IDoV= 1 UseB2=F ITyADJ=14
 ICtDFT=  3500011 ScaDFX=  1.000000  1.000000  1.000000  1.000000
 FoFCou: FMM=F IPFlag=           0 FMFlag=      100000 FMFlg1=           0
         NFxFlg=           0 DoJE=T BraDBF=F KetDBF=T FulRan=T
         wScrn=  0.000000 ICntrl=       500 IOpCl=  0 I1Cent=   200000004 NGrid=           0
         NMat0=    1 NMatS0=      1 NMatT0=    0 NMatD0=    1 NMtDS0=    0 NMtDT0=    0
 Symmetry not used in FoFCou.
 Keep R1 ints in memory in canonical form, NReq=397720213.
 Requested convergence on RMS density matrix=1.00D-08 within 128 cycles.
 Requested convergence on MAX density matrix=1.00D-06.
 Requested convergence on             energy=1.00D-06.
 No special actions if energy rises.
 SCF Done:  E(RHF) =  -661.275336814     A.U. after   16 cycles
            NFock= 16  Conv=0.72D-08     -V/T= 2.0036
 ExpMin= 1.61D-01 ExpMax= 5.48D+03 ExpMxC= 8.25D+02 IAcc=3 IRadAn=         5 AccDes= 0.00D+00
 HarFok:  IExCor=  205 AccDes= 0.00D+00 IRadAn=         5 IDoV=-2 UseB2=F ITyADJ=14
 ICtDFT= 12500011 ScaDFX=  1.000000  1.000000  1.000000  1.000000
 Range of M.O.s used for correlation:    15   236
 NBasis=   236 NAE=    52 NBE=    52 NFC=    14 NFV=     0
 NROrb=    222 NOA=    38 NOB=    38 NVA=   184 NVB=   184
 Fully direct method using O(ONN) memory.
 JobTyp=1 Pass  1:  I=  15 to  52 NPSUse=  4 ParTrn=T ParDer=T DoDerP=T.
 Spin components of T(2) and E(2):
     alpha-alpha T2 =       0.9216341471D-01 E2=     -0.2719998584D+00
     alpha-beta  T2 =       0.4998099308D+00 E2=     -0.1493839988D+01
     beta-beta   T2 =       0.9216341471D-01 E2=     -0.2719998584D+00
 ANorm=    0.1297742948D+01
 E2 =    -0.2037839705D+01 EUMP2 =    -0.66331317651824D+03
          IDoAtm=111111111111111111111111111
          Differentiating once with respect to electric field.
                with respect to dipole field.
          Differentiating once with respect to nuclear coordinates.
 Keep R1 ints in memory in canonical form, NReq=397723379.
          There are     1 degrees of freedom in the 1st order CPHF.  IDoFFX=0 NUNeed=     1.
 LinEq1:  Iter=  0 NonCon=     1 RMS=4.68D-03 Max=1.30D-01 NDo=     1
 AX will form     1 AO Fock derivatives at one time.
 LinEq1:  Iter=  1 NonCon=     1 RMS=1.59D-03 Max=5.18D-02 NDo=     1
 LinEq1:  Iter=  2 NonCon=     1 RMS=6.58D-04 Max=2.12D-02 NDo=     1
 LinEq1:  Iter=  3 NonCon=     1 RMS=3.00D-04 Max=9.78D-03 NDo=     1
 LinEq1:  Iter=  4 NonCon=     1 RMS=9.53D-05 Max=2.65D-03 NDo=     1
 LinEq1:  Iter=  5 NonCon=     1 RMS=3.94D-05 Max=1.79D-03 NDo=     1
 LinEq1:  Iter=  6 NonCon=     1 RMS=1.62D-05 Max=5.41D-04 NDo=     1
 LinEq1:  Iter=  7 NonCon=     1 RMS=6.17D-06 Max=7.12D-05 NDo=     1
 LinEq1:  Iter=  8 NonCon=     1 RMS=2.44D-06 Max=5.21D-05 NDo=     1
 LinEq1:  Iter=  9 NonCon=     1 RMS=9.11D-07 Max=2.64D-05 NDo=     1
 LinEq1:  Iter= 10 NonCon=     1 RMS=4.29D-07 Max=1.26D-05 NDo=     1
 LinEq1:  Iter= 11 NonCon=     1 RMS=1.65D-07 Max=5.38D-06 NDo=     1
 LinEq1:  Iter= 12 NonCon=     1 RMS=5.89D-08 Max=1.07D-06 NDo=     1
 LinEq1:  Iter= 13 NonCon=     1 RMS=1.88D-08 Max=4.31D-07 NDo=     1
 LinEq1:  Iter= 14 NonCon=     1 RMS=5.95D-09 Max=1.74D-07 NDo=     1
 LinEq1:  Iter= 15 NonCon=     1 RMS=2.16D-09 Max=6.76D-08 NDo=     1
 LinEq1:  Iter= 16 NonCon=     1 RMS=7.67D-10 Max=1.21D-08 NDo=     1
 LinEq1:  Iter= 17 NonCon=     1 RMS=2.59D-10 Max=5.23D-09 NDo=     1
 LinEq1:  Iter= 18 NonCon=     1 RMS=9.26D-11 Max=1.45D-09 NDo=     1
 LinEq1:  Iter= 19 NonCon=     0 RMS=3.29D-11 Max=6.39D-10 NDo=     1
 Linear equations converged to 1.000D-10 1.000D-09 after    19 iterations.
 End of Minotr F.D. properties file   721 does not exist.
 End of Minotr F.D. properties file   722 does not exist.
 End of Minotr F.D. properties file   788 does not exist.

 **********************************************************************

            Population analysis using the SCF Density.

 **********************************************************************

 Alpha  occ. eigenvalues --  -20.59782 -20.59443 -15.85322 -15.63794 -15.55980
 Alpha  occ. eigenvalues --  -11.35997 -11.30540 -11.30207 -11.29961 -11.27521
 Alpha  occ. eigenvalues --  -11.24640 -11.23888 -11.23238 -11.22841  -1.58493
 Alpha  occ. eigenvalues --   -1.37964  -1.29045  -1.22379  -1.13264  -1.08412
 Alpha  occ. eigenvalues --   -1.01674  -1.00719  -0.93713  -0.88890  -0.84875
 Alpha  occ. eigenvalues --   -0.81509  -0.78006  -0.77007  -0.74391  -0.71252
 Alpha  occ. eigenvalues --   -0.70276  -0.69818  -0.67351  -0.63960  -0.63375
 Alpha  occ. eigenvalues --   -0.61903  -0.59743  -0.57425  -0.56470  -0.54781
 Alpha  occ. eigenvalues --   -0.54211  -0.50505  -0.49776  -0.48626  -0.47841
 Alpha  occ. eigenvalues --   -0.47775  -0.46443  -0.45277  -0.44059  -0.42234
 Alpha  occ. eigenvalues --   -0.38770  -0.33477
 Alpha virt. eigenvalues --    0.07250   0.11377   0.17246   0.21625   0.23816
 Alpha virt. eigenvalues --    0.25046   0.25783   0.27931   0.28594   0.28891
 Alpha virt. eigenvalues --    0.30142   0.31526   0.31783   0.32433   0.33161
 Alpha virt. eigenvalues --    0.33955   0.34698   0.35763   0.37680   0.38929
 Alpha virt. eigenvalues --    0.40299   0.41098   0.43785   0.45132   0.45302
 Alpha virt. eigenvalues --    0.47120   0.49862   0.53393   0.57677   0.59104
 Alpha virt. eigenvalues --    0.63215   0.68255   0.69517   0.72539   0.74064
 Alpha virt. eigenvalues --    0.74884   0.75728   0.76036   0.78158   0.78587
 Alpha virt. eigenvalues --    0.81063   0.82208   0.84551   0.84924   0.87841
 Alpha virt. eigenvalues --    0.88410   0.90737   0.91982   0.92580   0.93682
 Alpha virt. eigenvalues --    0.95078   0.97482   0.99307   1.01051   1.01944
 Alpha virt. eigenvalues --    1.03126   1.04976   1.05918   1.07128   1.08578
 Alpha virt. eigenvalues --    1.09885   1.10714   1.11771   1.12898   1.13102
 Alpha virt. eigenvalues --    1.13288   1.14424   1.15134   1.15814   1.16606
 Alpha virt. eigenvalues --    1.17802   1.20150   1.21309   1.21960   1.23023
 Alpha virt. eigenvalues --    1.23125   1.25063   1.25808   1.27250   1.28764
 Alpha virt. eigenvalues --    1.29198   1.31342   1.34454   1.36562   1.39013
 Alpha virt. eigenvalues --    1.41792   1.47591   1.52013   1.52623   1.53631
 Alpha virt. eigenvalues --    1.54209   1.58827   1.60715   1.64264   1.65726
 Alpha virt. eigenvalues --    1.67116   1.68451   1.71831   1.72742   1.76399
 Alpha virt. eigenvalues --    1.79978   1.82477   1.83627   1.86902   1.91331
 Alpha virt. eigenvalues --    1.93291   1.95979   1.98089   2.00053   2.00786
 Alpha virt. eigenvalues --    2.02809   2.03201   2.05546   2.09625   2.11513
 Alpha virt. eigenvalues --    2.11835   2.13166   2.16660   2.18132   2.19610
 Alpha virt. eigenvalues --    2.20507   2.22284   2.24126   2.24678   2.25982
 Alpha virt. eigenvalues --    2.28883   2.31958   2.32857   2.35241   2.37114
 Alpha virt. eigenvalues --    2.39522   2.41894   2.42747   2.44912   2.45474
 Alpha virt. eigenvalues --    2.48674   2.50726   2.51422   2.56244   2.57530
 Alpha virt. eigenvalues --    2.60352   2.63383   2.66608   2.67748   2.68402
 Alpha virt. eigenvalues --    2.69308   2.70521   2.74029   2.75088   2.81465
 Alpha virt. eigenvalues --    2.84759   2.86254   2.89742   2.91645   2.93914
 Alpha virt. eigenvalues --    2.97712   2.98004   3.02151   3.05669   3.07025
 Alpha virt. eigenvalues --    3.08335   3.14737   3.18704   3.22741   3.27244
 Alpha virt. eigenvalues --    3.31436   3.31648   3.38252   3.42185   3.60386
 Alpha virt. eigenvalues --    4.10434   4.23006   4.32288   4.36238   4.44506
 Alpha virt. eigenvalues --    4.51933   4.59432   4.59981   4.70546   4.78299
 Alpha virt. eigenvalues --    4.96500   4.99234   5.04839   5.08781
          Condensed to atoms (all electrons):
               1          2          3          4          5          6
     1  O    8.302976   0.309218  -0.090364  -0.076439   0.003508  -0.000011
     2  N    0.309218   5.678562   0.312542   0.263804  -0.048739   0.000720
     3  O   -0.090364   0.312542   8.328312  -0.088115   0.008059   0.000488
     4  C   -0.076439   0.263804  -0.088115   5.261068   0.562648  -0.052028
     5  C    0.003508  -0.048739   0.008059   0.562648   4.688018   0.317150
     6  N   -0.000011   0.000720   0.000488  -0.052028   0.317150   7.151012
     7  C    0.000001  -0.000102   0.000001   0.006420  -0.029856   0.206238
     8  H   -0.000000   0.000001  -0.000000  -0.000260   0.002949  -0.045249
     9  C    0.000000  -0.000006  -0.000000   0.000664   0.000461  -0.058378
    10  C   -0.000000   0.000000   0.000000  -0.000025  -0.000023   0.003344
    11  C   -0.000000  -0.000000  -0.000000  -0.000012   0.000009  -0.000149
    12  C    0.000000   0.000001  -0.000000  -0.000272  -0.000127   0.003916
    13  C   -0.000007   0.000025  -0.000000  -0.007482  -0.001033  -0.053225
    14  H    0.000000  -0.000025   0.000000   0.001655   0.002513  -0.004908
    15  N    0.000423   0.001437  -0.000008  -0.064056  -0.005016   0.002155
    16  C    0.000606  -0.021163   0.002096   0.309063  -0.044352   0.001505
    17  H    0.000155  -0.004501   0.012776  -0.023979   0.374522  -0.031736
    18  H    0.000000  -0.000032   0.000008   0.001730  -0.026629   0.332267
    19  H    0.000000  -0.000005  -0.000000  -0.000978   0.001336  -0.000462
    20  H    0.000000   0.000000   0.000000  -0.000036  -0.000044  -0.000341
    21  H   -0.000000  -0.000000  -0.000000   0.000001   0.000001  -0.000063
    22  H   -0.000000   0.000000  -0.000000  -0.000001  -0.000001  -0.000091
    23  H    0.000000  -0.000000   0.000000   0.000025  -0.000001  -0.000024
    24  H    0.000000   0.000000   0.000000  -0.000000  -0.000000   0.000005
    25  H    0.000000  -0.000000   0.000000   0.000024  -0.000001  -0.000076
    26  H    0.000000  -0.000000   0.000000   0.000004  -0.000001  -0.000079
    27  H    0.007076  -0.000107   0.000071  -0.068319   0.001976  -0.000025
               7          8          9         10         11         12
     1  O    0.000001  -0.000000   0.000000  -0.000000  -0.000000   0.000000
     2  N   -0.000102   0.000001  -0.000006   0.000000  -0.000000   0.000001
     3  O    0.000001  -0.000000  -0.000000   0.000000  -0.000000  -0.000000
     4  C    0.006420  -0.000260   0.000664  -0.000025  -0.000012  -0.000272
     5  C   -0.029856   0.002949   0.000461  -0.000023   0.000009  -0.000127
     6  N    0.206238  -0.045249  -0.058378   0.003344  -0.000149   0.003916
     7  C    5.056135   0.412615   0.342917  -0.049036  -0.008322  -0.065078
     8  H    0.412615   0.543945  -0.056638   0.000451  -0.000165  -0.003418
     9  C    0.342917  -0.056638   5.171575   0.320428  -0.053849  -0.005245
    10  C   -0.049036   0.000451   0.320428   5.126231   0.332490  -0.060848
    11  C   -0.008322  -0.000165  -0.053849   0.332490   5.125169   0.330391
    12  C   -0.065078  -0.003418  -0.005245  -0.060848   0.330391   5.143402
    13  C    0.310415  -0.037582  -0.055565  -0.000810  -0.046821   0.366843
    14  H   -0.042808  -0.000775   0.003756  -0.000384   0.003963  -0.041379
    15  N   -0.065520   0.004048  -0.011034   0.001141  -0.007025  -0.076078
    16  C   -0.000063  -0.000203   0.000093  -0.000090  -0.000020   0.002628
    17  H    0.001467  -0.000054  -0.000034   0.000001  -0.000000   0.000001
    18  H   -0.030348  -0.004464   0.001183  -0.000112   0.000010  -0.000160
    19  H   -0.035361   0.003964   0.389033  -0.033691  -0.002090   0.000510
    20  H   -0.042038  -0.001811   0.397099  -0.036813   0.004123  -0.000390
    21  H    0.004097  -0.000064  -0.036014   0.400130  -0.035764   0.004247
    22  H   -0.004574   0.003553  -0.045504   0.395702  -0.045460  -0.001262
    23  H    0.000515   0.000035  -0.002050  -0.040314   0.396565  -0.036899
    24  H   -0.000148  -0.000107   0.004410  -0.038465   0.400441  -0.037632
    25  H    0.005256  -0.000021  -0.000396   0.004116  -0.033646   0.394559
    26  H   -0.004387   0.001445   0.001108  -0.002447  -0.042602   0.393745
    27  H   -0.000384   0.000008  -0.000039   0.000002   0.000007  -0.000023
              13         14         15         16         17         18
     1  O   -0.000007   0.000000   0.000423   0.000606   0.000155   0.000000
     2  N    0.000025  -0.000025   0.001437  -0.021163  -0.004501  -0.000032
     3  O   -0.000000   0.000000  -0.000008   0.002096   0.012776   0.000008
     4  C   -0.007482   0.001655  -0.064056   0.309063  -0.023979   0.001730
     5  C   -0.001033   0.002513  -0.005016  -0.044352   0.374522  -0.026629
     6  N   -0.053225  -0.004908   0.002155   0.001505  -0.031736   0.332267
     7  C    0.310415  -0.042808  -0.065520  -0.000063   0.001467  -0.030348
     8  H   -0.037582  -0.000775   0.004048  -0.000203  -0.000054  -0.004464
     9  C   -0.055565   0.003756  -0.011034   0.000093  -0.000034   0.001183
    10  C   -0.000810  -0.000384   0.001141  -0.000090   0.000001  -0.000112
    11  C   -0.046821   0.003963  -0.007025  -0.000020  -0.000000   0.000010
    12  C    0.366843  -0.041379  -0.076078   0.002628   0.000001  -0.000160
    13  C    5.017270   0.410452   0.253729  -0.065686  -0.000087   0.004081
    14  H    0.410452   0.516604  -0.033400  -0.008586   0.000001  -0.000016
    15  N    0.253729  -0.033400   6.967755   0.575544  -0.000061  -0.000127
    16  C   -0.065686  -0.008586   0.575544   4.714459   0.001352  -0.000169
    17  H   -0.000087   0.000001  -0.000061   0.001352   0.380533  -0.002666
    18  H    0.004081  -0.000016  -0.000127  -0.000169  -0.002666   0.325880
    19  H   -0.005721   0.000057   0.006448   0.001507   0.000002  -0.000130
    20  H    0.003965  -0.000054   0.000088  -0.000046  -0.000017   0.001889
    21  H   -0.000418   0.000009  -0.000034   0.000003  -0.000000   0.000001
    22  H    0.000329  -0.000041   0.000010  -0.000000   0.000000   0.000002
    23  H   -0.006010  -0.000000   0.006723   0.000089   0.000000   0.000000
    24  H    0.004153  -0.000062  -0.000000   0.000005   0.000000  -0.000000
    25  H   -0.034335  -0.002775   0.001615  -0.000065  -0.000000   0.000003
    26  H   -0.045124  -0.000909   0.004242  -0.000028   0.000000  -0.000001
    27  H    0.004643  -0.000129  -0.041426   0.404678  -0.000064   0.000000
              19         20         21         22         23         24
     1  O    0.000000   0.000000  -0.000000  -0.000000   0.000000   0.000000
     2  N   -0.000005   0.000000  -0.000000   0.000000  -0.000000   0.000000
     3  O   -0.000000   0.000000  -0.000000  -0.000000   0.000000   0.000000
     4  C   -0.000978  -0.000036   0.000001  -0.000001   0.000025  -0.000000
     5  C    0.001336  -0.000044   0.000001  -0.000001  -0.000001  -0.000000
     6  N   -0.000462  -0.000341  -0.000063  -0.000091  -0.000024   0.000005
     7  C   -0.035361  -0.042038   0.004097  -0.004574   0.000515  -0.000148
     8  H    0.003964  -0.001811  -0.000064   0.003553   0.000035  -0.000107
     9  C    0.389033   0.397099  -0.036014  -0.045504  -0.002050   0.004410
    10  C   -0.033691  -0.036813   0.400130   0.395702  -0.040314  -0.038465
    11  C   -0.002090   0.004123  -0.035764  -0.045460   0.396565   0.400441
    12  C    0.000510  -0.000390   0.004247  -0.001262  -0.036899  -0.037632
    13  C   -0.005721   0.003965  -0.000418   0.000329  -0.006010   0.004153
    14  H    0.000057  -0.000054   0.000009  -0.000041  -0.000000  -0.000062
    15  N    0.006448   0.000088  -0.000034   0.000010   0.006723  -0.000000
    16  C    0.001507  -0.000046   0.000003  -0.000000   0.000089   0.000005
    17  H    0.000002  -0.000017  -0.000000   0.000000   0.000000   0.000000
    18  H   -0.000130   0.001889   0.000001   0.000002   0.000000  -0.000000
    19  H    0.505316  -0.023644  -0.002537   0.003763   0.001697  -0.000075
    20  H   -0.023644   0.546091  -0.002669  -0.002912  -0.000049  -0.000090
    21  H   -0.002537  -0.002669   0.525415  -0.024686  -0.002831  -0.002064
    22  H    0.003763  -0.002912  -0.024686   0.569471   0.004072  -0.003532
    23  H    0.001697  -0.000049  -0.002831   0.004072   0.510892  -0.024873
    24  H   -0.000075  -0.000090  -0.002064  -0.003532  -0.024873   0.540240
    25  H   -0.000028   0.000011  -0.000086  -0.000083  -0.002053  -0.002420
    26  H    0.000023  -0.000035  -0.000071   0.002452   0.003858  -0.002766
    27  H    0.000060   0.000000  -0.000000   0.000000  -0.000020  -0.000000
              25         26         27
     1  O    0.000000   0.000000   0.007076
     2  N   -0.000000  -0.000000  -0.000107
     3  O    0.000000   0.000000   0.000071
     4  C    0.000024   0.000004  -0.068319
     5  C   -0.000001  -0.000001   0.001976
     6  N   -0.000076  -0.000079  -0.000025
     7  C    0.005256  -0.004387  -0.000384
     8  H   -0.000021   0.001445   0.000008
     9  C   -0.000396   0.001108  -0.000039
    10  C    0.004116  -0.002447   0.000002
    11  C   -0.033646  -0.042602   0.000007
    12  C    0.394559   0.393745  -0.000023
    13  C   -0.034335  -0.045124   0.004643
    14  H   -0.002775  -0.000909  -0.000129
    15  N    0.001615   0.004242  -0.041426
    16  C   -0.000065  -0.000028   0.404678
    17  H   -0.000000   0.000000  -0.000064
    18  H    0.000003  -0.000001   0.000000
    19  H   -0.000028   0.000023   0.000060
    20  H    0.000011  -0.000035   0.000000
    21  H   -0.000086  -0.000071  -0.000000
    22  H   -0.000083   0.002452   0.000000
    23  H   -0.002053   0.003858  -0.000020
    24  H   -0.002420  -0.002766  -0.000000
    25  H    0.509749  -0.023250  -0.000018
    26  H   -0.023250   0.565599   0.000001
    27  H   -0.000018   0.000001   0.439511
 Mulliken charges:
               1
     1  O   -0.457143
     2  N    0.508369
     3  O   -0.485865
     4  C   -0.025106
     5  C    0.192672
     6  N   -0.771957
     7  C    0.031947
     8  H    0.177796
     9  C   -0.307977
    10  C   -0.320977
    11  C   -0.317243
    12  C   -0.311433
    13  C   -0.015997
    14  H    0.197241
    15  N   -0.521572
    16  C    0.126842
    17  H    0.292388
    18  H    0.397800
    19  H    0.191005
    20  H    0.157721
    21  H    0.173398
    22  H    0.148792
    23  H    0.190652
    24  H    0.162981
    25  H    0.183921
    26  H    0.149224
    27  H    0.252520
 Sum of Mulliken charges =  -0.00000
 Mulliken charges with hydrogens summed into heavy atoms:
               1
     1  O   -0.457143
     2  N    0.508369
     3  O   -0.485865
     4  C   -0.025106
     5  C    0.485060
     6  N   -0.374157
     7  C    0.209743
     9  C    0.040749
    10  C    0.001214
    11  C    0.036390
    12  C    0.021712
    13  C    0.181243
    15  N   -0.521572
    16  C    0.379362
 Electronic spatial extent (au):  <R**2>=           3102.0974
 Charge=             -0.0000 electrons
 Dipole moment (field-independent basis, Debye):
    X=              5.2831    Y=              4.4277    Z=              1.7698  Tot=              7.1168
 Quadrupole moment (field-independent basis, Debye-Ang):
   XX=           -104.3955   YY=            -79.7253   ZZ=            -83.2683
   XY=             -0.3520   XZ=             -3.9267   YZ=              1.3379
 Traceless Quadrupole moment (field-independent basis, Debye-Ang):
   XX=            -15.2658   YY=              9.4044   ZZ=              5.8614
   XY=             -0.3520   XZ=             -3.9267   YZ=              1.3379
 Octapole moment (field-independent basis, Debye-Ang**2):
  XXX=             92.3601  YYY=             32.6192  ZZZ=              3.4886  XYY=             -3.9914
  XXY=              6.4566  XXZ=             23.5916  XZZ=             -4.0040  YZZ=             -1.9529
  YYZ=              8.9078  XYZ=             -0.3519
 Hexadecapole moment (field-independent basis, Debye-Ang**3):
 XXXX=          -3443.3836 YYYY=           -616.4347 ZZZZ=           -340.2092 XXXY=              0.6999
 XXXZ=           -150.4051 YYYX=             15.9277 YYYZ=             27.2648 ZZZX=            -66.9283
 ZZZY=              9.3915 XXYY=           -642.3882 XXZZ=           -555.2481 YYZZ=           -171.5999
 XXYZ=              8.1484 YYXZ=            -24.6363 ZZXY=              9.9998
 N-N= 9.176493535342D+02 E-N=-3.381347301016D+03  KE= 6.588747258007D+02
 Calling FoFJK, ICntrl=  10002127 FMM=F ISym2X=0 I1Cent= 0 IOpClX= 0 NMat=1 NMatS=1 NMatT=0.
 -------------------------------------------------------------------
 Center     Atomic                   Forces (Hartrees/Bohr)
 Number     Number              X              Y              Z
 -------------------------------------------------------------------
      1        8          -0.000034527   -0.018872466    0.000526978
      2        7           0.039022191    0.007901219    0.008600815
      3        8          -0.003089425    0.016940985    0.000775969
      4        6          -0.003109806    0.002871192    0.012814780
      5        6           0.001951017   -0.013538123   -0.006786839
      6        7           0.016867790   -0.001833015   -0.010515738
      7        6          -0.003129454    0.006301805    0.006481312
      8        1          -0.012595586   -0.001917741   -0.006581016
      9        6          -0.004574292    0.001287279   -0.002174356
     10        6           0.002686500   -0.001414496    0.000645467
     11        6          -0.001286867   -0.004108155   -0.001681255
     12        6           0.000730816   -0.009512821   -0.002781314
     13        6           0.014434635    0.000808920   -0.003383718
     14        1           0.001071940    0.003118761   -0.011863156
     15        7          -0.000774770   -0.009735819    0.025702142
     16        6          -0.021259215    0.015848433   -0.019437008
     17        1           0.006620228   -0.008538052    0.000898476
     18        1          -0.018535998   -0.002724425   -0.000295132
     19        1           0.003392347    0.005701731    0.007193660
     20        1          -0.002861834   -0.007847628    0.002993980
     21        1          -0.003423702    0.002361527    0.009966244
     22        1          -0.004654293   -0.004036465   -0.006900942
     23        1           0.004632846    0.005901448    0.008640212
     24        1          -0.009663828    0.002252046   -0.001297172
     25        1          -0.001346611    0.010600914   -0.002528327
     26        1          -0.004978629   -0.004685907   -0.003866805
     27        1           0.003908530    0.006868854   -0.005147259
 -------------------------------------------------------------------
 Cartesian Forces:  Max     0.039022191 RMS     0.009386968

 GradGradGradGradGradGradGradGradGradGradGradGradGradGradGradGradGradGrad
 Berny optimization.
 FormGI is forming the generalized inverse of G from B-inverse, IUseBI=4.
 Internal  Forces:  Max     0.037654136 RMS     0.007047145
 Search for a local minimum.
 Step number   1 out of a maximum of   20
 All quantities printed in internal units (Hartrees-Bohrs-Radians)
 Mixed Optimization -- RFO/linear search
 Second derivative matrix not updated -- first step.
 ITU=  0
     Eigenvalues ---    0.00233   0.00779   0.01057   0.01147   0.01243
     Eigenvalues ---    0.01524   0.01545   0.01842   0.02055   0.02109
     Eigenvalues ---    0.02712   0.03685   0.04518   0.04697   0.04840
     Eigenvalues ---    0.05092   0.05139   0.05312   0.05875   0.06242
     Eigenvalues ---    0.07146   0.07658   0.07689   0.07804   0.07983
     Eigenvalues ---    0.08039   0.08045   0.10433   0.11639   0.12122
     Eigenvalues ---    0.12657   0.14235   0.15030   0.15904   0.15999
     Eigenvalues ---    0.20079   0.22265   0.23276   0.25000   0.25000
     Eigenvalues ---    0.25000   0.25409   0.26434   0.26650   0.27975
     Eigenvalues ---    0.28091   0.28539   0.29184   0.31422   0.32018
     Eigenvalues ---    0.32038   0.32235   0.32297   0.32383   0.32387
     Eigenvalues ---    0.32410   0.32508   0.32527   0.32588   0.33291
     Eigenvalues ---    0.33395   0.33661   0.35539   0.43883   0.44356
     Eigenvalues ---    0.50396   0.67177   0.90305   0.911971000.00000
     Eigenvalues --- 1000.000001000.000001000.000001000.000001000.00000
     Eigenvalues --- 1000.000001000.000001000.000001000.000001000.00000
     Eigenvalues --- 1000.000001000.000001000.000001000.000001000.00000
     Eigenvalues --- 1000.000001000.000001000.000001000.000001000.00000
     Eigenvalues --- 1000.000001000.000001000.000001000.000001000.00000
     Eigenvalues --- 1000.000001000.000001000.000001000.000001000.00000
     Eigenvalues --- 1000.000001000.000001000.000001000.000001000.00000
     Eigenvalues --- 1000.000001000.000001000.000001000.000001000.00000
     Eigenvalues --- 1000.000001000.000001000.000001000.000001000.00000
     Eigenvalues --- 1000.000001000.000001000.000001000.000001000.00000
     Eigenvalues --- 1000.000001000.000001000.000001000.000001000.00000
     Eigenvalues --- 1000.000001000.000001000.000001000.000001000.00000
     Eigenvalues --- 1000.000001000.000001000.000001000.000001000.00000
     Eigenvalues --- 1000.000001000.000001000.000001000.000001000.00000
     Eigenvalues --- 1000.000001000.000001000.000001000.000001000.00000
     Eigenvalues --- 1000.000001000.000001000.000001000.000001000.00000
     Eigenvalues --- 1000.000001000.000001000.000001000.000001000.00000
     Eigenvalues --- 1000.000001000.000001000.000001000.000001000.00000
     Eigenvalues --- 1000.00000
 RFO step:  Lambda=-2.56188558D-02 EMin= 2.32739789D-03
 Linear search not attempted -- first point.
 Iteration  1 RMS(Cart)=  0.06263549 RMS(Int)=  0.00168888
 Iteration  2 RMS(Cart)=  0.00217352 RMS(Int)=  0.00057537
 Iteration  3 RMS(Cart)=  0.00000150 RMS(Int)=  0.00057537
 Iteration  4 RMS(Cart)=  0.00000000 RMS(Int)=  0.00057537
 Iteration  1 RMS(Cart)=  0.00006202 RMS(Int)=  0.00005297
 Iteration  2 RMS(Cart)=  0.00003677 RMS(Int)=  0.00005842
 Iteration  3 RMS(Cart)=  0.00002403 RMS(Int)=  0.00006580
 Iteration  4 RMS(Cart)=  0.00001684 RMS(Int)=  0.00007158
 Iteration  5 RMS(Cart)=  0.00001243 RMS(Int)=  0.00007587
 Iteration  6 RMS(Cart)=  0.00000956 RMS(Int)=  0.00007910
 Iteration  7 RMS(Cart)=  0.00000758 RMS(Int)=  0.00008159
 Iteration  8 RMS(Cart)=  0.00000615 RMS(Int)=  0.00008357
 Iteration  9 RMS(Cart)=  0.00000506 RMS(Int)=  0.00008517
 Iteration 10 RMS(Cart)=  0.00000421 RMS(Int)=  0.00008649
 Iteration 11 RMS(Cart)=  0.00000353 RMS(Int)=  0.00008760
 Iteration 12 RMS(Cart)=  0.00000297 RMS(Int)=  0.00008853
 Iteration 13 RMS(Cart)=  0.00000250 RMS(Int)=  0.00008931
 Iteration 14 RMS(Cart)=  0.00000212 RMS(Int)=  0.00008998
 Iteration 15 RMS(Cart)=  0.00000179 RMS(Int)=  0.00009055
 Iteration 16 RMS(Cart)=  0.00000152 RMS(Int)=  0.00009104
 Iteration 17 RMS(Cart)=  0.00000129 RMS(Int)=  0.00009146
 Iteration 18 RMS(Cart)=  0.00000110 RMS(Int)=  0.00009181
 Iteration 19 RMS(Cart)=  0.00000093 RMS(Int)=  0.00009212
 Variable       Old X    -DE/DX   Delta X   Delta X   Delta X     New X
                                 (Linear)    (Quad)   (Total)
    R1        2.32386   0.01749   0.00000   0.01865   0.01865   2.34251
    R2        2.32793   0.01550   0.00000   0.01669   0.01669   2.34462
    R3        2.89620  -0.03765   0.00000  -0.11861  -0.11861   2.77759
    R4        2.64557  -0.03173   0.00000  -0.06810  -0.06782   2.57774
    R5        2.82100  -0.02625   0.00000  -0.07804  -0.07794   2.74306
    R6        2.58311  -0.02260   0.00000  -0.04120  -0.04093   2.54217
    R7        2.08362  -0.01077   0.00000  -0.02995  -0.02995   2.05367
    R8        2.81296  -0.01673   0.00000  -0.04126  -0.04131   2.77165
    R9        1.93295  -0.00688   0.00000  -0.01482  -0.01482   1.91813
   R10        2.11914  -0.01307   0.00000  -0.03845  -0.03845   2.08068
   R11        2.92715  -0.01303   0.00000  -0.04372  -0.04373   2.88342
   R12        2.89521  -0.00110   0.00000  -0.00011  -0.00019   2.89502
   R13        2.91114  -0.00417   0.00000  -0.01441  -0.01453   2.89660
   R14        2.09924  -0.00953   0.00000  -0.02717  -0.02717   2.07208
   R15        2.09890  -0.00845   0.00000  -0.02409  -0.02409   2.07482
   R16        2.90466  -0.00136   0.00000  -0.00659  -0.00646   2.89820
   R17        2.10141  -0.01054   0.00000  -0.03015  -0.03015   2.07126
   R18        2.10303  -0.00896   0.00000  -0.02571  -0.02571   2.07732
   R19        2.91799  -0.00940   0.00000  -0.02986  -0.02984   2.88815
   R20        2.10415  -0.01127   0.00000  -0.03239  -0.03239   2.07176
   R21        2.10101  -0.00997   0.00000  -0.02850  -0.02850   2.07251
   R22        2.93554  -0.01122   0.00000  -0.03662  -0.03649   2.89905
   R23        2.10149  -0.01084   0.00000  -0.03101  -0.03101   2.07048
   R24        2.09781  -0.00767   0.00000  -0.02183  -0.02183   2.07598
   R25        2.10774  -0.01140   0.00000  -0.03295  -0.03295   2.07479
   R26        2.76671  -0.00436   0.00000  -0.00808  -0.00858   2.75813
   R27        2.44399  -0.00051   0.00000  -0.00222  -0.00238   2.44161
   R28        2.07905  -0.00573   0.00000  -0.01583  -0.01583   2.06323
    A1        2.15366   0.01121   0.00000   0.04102   0.04065   2.19431
    A2        2.05692  -0.00509   0.00000  -0.01813  -0.01850   2.03843
    A3        2.07225  -0.00606   0.00000  -0.02165  -0.02202   2.05023
    A4        2.01631  -0.00999   0.00000  -0.03233  -0.03234   1.98397
    A5        2.02991  -0.00282   0.00000  -0.00624  -0.00623   2.02367
    A6        2.23696   0.01281   0.00000   0.03853   0.03849   2.27545
    A7        2.20383   0.00617   0.00000   0.02499   0.02520   2.22903
    A8        2.06412  -0.00397   0.00000  -0.01717  -0.01726   2.04685
    A9        2.01518  -0.00220   0.00000  -0.00779  -0.00790   2.00728
   A10        2.23784  -0.00712   0.00000  -0.00732  -0.00814   2.22970
   A11        2.09946  -0.01238   0.00000  -0.07470  -0.07625   2.02321
   A12        1.86352   0.01968   0.00000   0.10664   0.10728   1.97081
   A13        1.84165  -0.00232   0.00000  -0.01425  -0.01353   1.82812
   A14        2.01396  -0.00134   0.00000  -0.01520  -0.01547   1.99849
   A15        1.95695   0.00230   0.00000  -0.01405  -0.01561   1.94134
   A16        1.85079   0.00346   0.00000   0.03053   0.03035   1.88114
   A17        1.85040   0.00165   0.00000   0.03437   0.03385   1.88425
   A18        1.93649  -0.00328   0.00000  -0.01325  -0.01268   1.92381
   A19        1.90858   0.00024   0.00000  -0.00767  -0.00785   1.90073
   A20        1.92196  -0.00062   0.00000  -0.01396  -0.01392   1.90804
   A21        1.92241  -0.00193   0.00000  -0.00536  -0.00535   1.91706
   A22        1.91868  -0.00080   0.00000   0.00346   0.00325   1.92193
   A23        1.90720   0.00350   0.00000   0.02864   0.02877   1.93597
   A24        1.88487  -0.00037   0.00000  -0.00466  -0.00491   1.87996
   A25        1.93937  -0.00073   0.00000   0.00545   0.00535   1.94471
   A26        1.91878  -0.00084   0.00000  -0.00739  -0.00738   1.91140
   A27        1.90554   0.00030   0.00000  -0.00284  -0.00293   1.90261
   A28        1.91619   0.00052   0.00000   0.00659   0.00661   1.92281
   A29        1.89910   0.00195   0.00000   0.01173   0.01177   1.91088
   A30        1.88386  -0.00119   0.00000  -0.01397  -0.01406   1.86980
   A31        1.94423   0.00167   0.00000   0.00868   0.00864   1.95287
   A32        1.90219   0.00003   0.00000   0.00508   0.00523   1.90742
   A33        1.91767   0.00044   0.00000   0.00492   0.00481   1.92248
   A34        1.90624  -0.00143   0.00000  -0.01540  -0.01543   1.89081
   A35        1.91575  -0.00080   0.00000  -0.00007  -0.00011   1.91564
   A36        1.87642   0.00002   0.00000  -0.00377  -0.00383   1.87259
   A37        1.94598  -0.00437   0.00000  -0.02358  -0.02339   1.92258
   A38        1.90634   0.00261   0.00000   0.01485   0.01479   1.92113
   A39        1.91081   0.00204   0.00000   0.01644   0.01614   1.92695
   A40        1.90699   0.00092   0.00000  -0.00273  -0.00277   1.90422
   A41        1.91238  -0.00010   0.00000  -0.00215  -0.00197   1.91041
   A42        1.88014  -0.00098   0.00000  -0.00211  -0.00227   1.87787
   A43        1.84479   0.00617   0.00000   0.02090   0.02056   1.86535
   A44        1.93205  -0.00483   0.00000  -0.02221  -0.02264   1.90941
   A45        2.00109  -0.00024   0.00000   0.01487   0.01582   2.01692
   A46        1.88390   0.00201   0.00000   0.02649   0.02674   1.91064
   A47        1.89039  -0.00404   0.00000  -0.03607  -0.03599   1.85440
   A48        1.90699   0.00121   0.00000  -0.00249  -0.00272   1.90427
   A49        2.09918  -0.00348   0.00000   0.00165   0.00048   2.09967
   A50        2.27003  -0.00645   0.00000  -0.03526  -0.03659   2.23343
   A51        1.97629   0.00259   0.00000   0.01543   0.01487   1.99116
   A52        2.02726   0.00398   0.00000   0.02944   0.02899   2.05625
    D1       -2.99289   0.00054   0.00000   0.00906   0.00852  -2.98437
    D2        0.14413   0.00159   0.00000   0.00000  -0.00000   0.14413
    D3        0.17645  -0.00177   0.00000  -0.04012  -0.04038   0.13606
    D4       -2.96972  -0.00072   0.00000  -0.04918  -0.04890  -3.01862
    D5        3.12118   0.00120   0.00000  -0.00688  -0.00730   3.11389
    D6       -0.00839   0.00136   0.00000  -0.01013  -0.01117  -0.01956
    D7       -0.01520   0.00007   0.00000   0.00363   0.00294  -0.01226
    D8        3.13842   0.00022   0.00000   0.00037  -0.00094   3.13748
    D9        3.06142   0.00432   0.00000   0.09191   0.09129  -3.13048
   D10        0.07640   0.00282   0.00000   0.01064   0.01049   0.08690
   D11       -0.08543   0.00544   0.00000   0.08127   0.08080  -0.00462
   D12       -3.07044   0.00394   0.00000   0.00000   0.00000  -3.07043
   D13        0.29219  -0.00256   0.00000  -0.07318  -0.07361   0.21858
   D14        2.95021   0.00282   0.00000   0.02076   0.01756   2.96777
   D15       -2.86113  -0.00272   0.00000  -0.07007  -0.06987  -2.93100
   D16       -0.20311   0.00265   0.00000   0.02388   0.02130  -0.18181
   D17       -2.87237   0.00009   0.00000   0.04698   0.04770  -2.82467
   D18        1.37407  -0.00189   0.00000   0.02717   0.02775   1.40182
   D19       -0.86583   0.00185   0.00000   0.07262   0.07234  -0.79349
   D20        0.70191   0.00145   0.00000  -0.00064  -0.00230   0.69961
   D21       -1.33484  -0.00053   0.00000  -0.02046  -0.02224  -1.35708
   D22        2.70844   0.00320   0.00000   0.02499   0.02235   2.73079
   D23        2.94830   0.00278   0.00000   0.04777   0.04806   2.99636
   D24       -1.22485   0.00156   0.00000   0.03839   0.03861  -1.18624
   D25        0.85214  -0.00049   0.00000   0.02062   0.02089   0.87303
   D26        0.91672   0.00408   0.00000   0.05335   0.05336   0.97007
   D27        3.02675   0.00286   0.00000   0.04397   0.04390   3.07066
   D28       -1.17944   0.00081   0.00000   0.02620   0.02618  -1.15325
   D29       -1.08488   0.00183   0.00000   0.00246   0.00249  -1.08239
   D30        1.02515   0.00061   0.00000  -0.00692  -0.00696   1.01819
   D31        3.10215  -0.00143   0.00000  -0.02469  -0.02468   3.07746
   D32       -2.89311  -0.00106   0.00000  -0.02196  -0.02147  -2.91458
   D33       -0.85754   0.00237   0.00000   0.00993   0.01004  -0.84751
   D34        1.30938  -0.00011   0.00000   0.00000   0.00001   1.30939
   D35       -0.89192  -0.00172   0.00000  -0.02608  -0.02619  -0.91811
   D36        1.14365   0.00171   0.00000   0.00582   0.00531   1.14896
   D37       -2.97261  -0.00077   0.00000  -0.00412  -0.00471  -2.97733
   D38        1.10992   0.00166   0.00000   0.02241   0.02251   1.13243
   D39       -3.13770   0.00509   0.00000   0.05430   0.05401  -3.08368
   D40       -0.97077   0.00261   0.00000   0.04437   0.04399  -0.92678
   D41        0.95665   0.00111   0.00000   0.00000   0.00000   0.95665
   D42        3.08156   0.00071   0.00000   0.00693   0.00688   3.08843
   D43       -1.13810  -0.00105   0.00000  -0.01613  -0.01610  -1.15420
   D44       -1.15538   0.00222   0.00000   0.01993   0.02004  -1.13534
   D45        0.96953   0.00182   0.00000   0.02686   0.02691   0.99643
   D46        3.03305   0.00006   0.00000   0.00381   0.00393   3.03698
   D47        3.06211   0.00104   0.00000   0.00635   0.00634   3.06844
   D48       -1.09617   0.00064   0.00000   0.01328   0.01321  -1.08296
   D49        0.96736  -0.00112   0.00000  -0.00978  -0.00977   0.95758
   D50       -0.92192  -0.00088   0.00000   0.00000   0.00000  -0.92192
   D51        1.18256  -0.00158   0.00000  -0.01035  -0.01033   1.17224
   D52       -3.04875  -0.00129   0.00000  -0.00909  -0.00908  -3.05783
   D53       -3.04834   0.00031   0.00000   0.00124   0.00124  -3.04710
   D54       -0.94385  -0.00039   0.00000  -0.00912  -0.00909  -0.95294
   D55        1.10802  -0.00010   0.00000  -0.00786  -0.00784   1.10018
   D56        1.17664   0.00030   0.00000   0.00744   0.00745   1.18409
   D57       -3.00206  -0.00040   0.00000  -0.00292  -0.00288  -3.00494
   D58       -0.95019  -0.00011   0.00000  -0.00166  -0.00163  -0.95182
   D59        0.98924  -0.00149   0.00000  -0.00947  -0.00931   0.97993
   D60        3.09853  -0.00140   0.00000  -0.01810  -0.01808   3.08045
   D61       -1.12981   0.00012   0.00000  -0.00246  -0.00226  -1.13207
   D62       -1.11286  -0.00164   0.00000  -0.01116  -0.01106  -1.12393
   D63        0.99643  -0.00155   0.00000  -0.01980  -0.01983   0.97660
   D64        3.05127  -0.00003   0.00000  -0.00415  -0.00400   3.04726
   D65        3.11718  -0.00036   0.00000   0.00250   0.00255   3.11973
   D66       -1.05671  -0.00028   0.00000  -0.00614  -0.00621  -1.06293
   D67        0.99813   0.00125   0.00000   0.00951   0.00961   1.00774
   D68       -1.05688  -0.00009   0.00000  -0.00658  -0.00655  -1.06343
   D69       -3.12479   0.00131   0.00000  -0.00479  -0.00491  -3.12970
   D70        1.09559   0.00097   0.00000   0.00327   0.00383   1.09942
   D71        3.11739  -0.00117   0.00000  -0.00822  -0.00833   3.10907
   D72        1.04948   0.00023   0.00000  -0.00642  -0.00668   1.04280
   D73       -1.01332  -0.00011   0.00000   0.00164   0.00205  -1.01127
   D74        1.06126  -0.00046   0.00000  -0.00281  -0.00283   1.05844
   D75       -1.00665   0.00094   0.00000  -0.00102  -0.00118  -1.00783
   D76       -3.06945   0.00060   0.00000   0.00704   0.00755  -3.06190
   D77       -1.17217   0.00868   0.00000   0.00000   0.00001  -1.17216
   D78        3.05603   0.00385   0.00000  -0.01051  -0.01031   3.04572
   D79        1.00799   0.00305   0.00000  -0.02043  -0.02056   0.98743
   D80        0.53415  -0.00914   0.00000  -0.07510  -0.07374   0.46041
   D81       -2.76777  -0.00774   0.00000   0.00688   0.00836  -2.75941
         Item               Value     Threshold  Converged?
 Maximum Force            0.037654     0.000450     NO 
 RMS     Force            0.006996     0.000300     NO 
 Maximum Displacement     0.288258     0.001800     NO 
 RMS     Displacement     0.063315     0.001200     NO 
 Predicted change in Energy=-1.460389D-02
 GradGradGradGradGradGradGradGradGradGradGradGradGradGradGradGradGradGrad

                          Input orientation:                          
 ---------------------------------------------------------------------
 Center     Atomic      Atomic             Coordinates (Angstroms)
 Number     Number       Type             X           Y           Z
 ---------------------------------------------------------------------
      1          8           0       -3.509750   -1.312043   -0.521602
      2          7           0       -3.083825   -0.157156   -0.375164
      3          8           0       -3.764340    0.878692   -0.432620
      4          6           0       -1.651126   -0.011696   -0.080810
      5          6           0       -1.287986    1.258511    0.258931
      6          7           0       -0.066094    1.699370    0.608714
      7          6           0        1.214718    0.997874    0.472267
      8          1           0        1.898138    1.527178    1.154242
      9          6           0        1.819544    1.051226   -0.927563
     10          6           0        3.236146    0.467779   -0.879031
     11          6           0        3.240219   -0.944263   -0.280508
     12          6           0        2.536765   -0.990419    1.075536
     13          6           0        1.105035   -0.454610    0.946845
     14          1           0        0.614590   -0.481413    1.928779
     15          7           0        0.409155   -1.362467    0.040316
     16          6           0       -0.856704   -1.222722   -0.177513
     17          1           0       -2.067172    2.016081    0.259075
     18          1           0        0.040009    2.706661    0.674994
     19          1           0        1.195006    0.468511   -1.615093
     20          1           0        1.834777    2.088341   -1.287628
     21          1           0        3.660081    0.451087   -1.889652
     22          1           0        3.873681    1.125486   -0.271276
     23          1           0        2.720583   -1.627951   -0.962041
     24          1           0        4.269783   -1.307598   -0.176637
     25          1           0        2.502035   -2.020858    1.446271
     26          1           0        3.087097   -0.390505    1.813151
     27          1           0       -1.409385   -2.090073   -0.543984
 ---------------------------------------------------------------------
                    Distance matrix (angstroms):
                    1          2          3          4          5
     1  O    0.000000
     2  N    1.239605   0.000000
     3  O    2.207274   1.240719   0.000000
     4  C    2.310775   1.469840   2.319965   0.000000
     5  C    3.486146   2.373021   2.599007   1.364082   0.000000
     6  N    4.712217   3.677146   3.928730   2.432183   1.345260
     7  C    5.352018   4.530972   5.062020   3.088396   2.525267
     8  H    6.333631   5.476862   5.916276   4.060882   3.320414
     9  C    5.843904   5.080193   5.608431   3.727244   3.332789
    10  C    6.985888   6.370750   7.026730   4.975186   4.731594
    11  C    6.764278   6.373541   7.239486   4.983454   5.064371
    12  C    6.262159   5.864289   6.743296   4.453478   4.511458
    13  C    4.918106   4.402582   5.233683   2.974672   3.022343
    14  H    4.868726   4.369390   5.157628   3.064727   3.071730
    15  N    3.959306   3.718374   4.760727   2.466579   3.130113
    16  C    2.676757   2.476805   3.596578   1.451566   2.555975
    17  H    3.710377   2.481693   2.156960   2.097735   1.086757
    18  H    5.493871   4.366076   4.363640   3.289474   2.008436
    19  H    5.147895   4.498586   5.114842   3.268806   3.209567
    20  H    6.380703   5.483383   5.791753   4.244771   3.582194
    21  H    7.509105   6.938580   7.578114   5.629831   5.454513
    22  H    7.779413   7.075510   7.643710   5.643842   5.190532
    23  H    6.253865   6.016545   6.972645   4.743489   5.088326
    24  H    7.787179   7.445702   8.330218   6.061824   6.137055
    25  H    6.365257   6.163833   7.155772   4.859779   5.150563
    26  H    7.058236   6.551599   7.320966   5.116771   4.927089
    27  H    2.239947   2.562892   3.791014   2.143040   3.445639
                    6          7          8          9         10
     6  N    0.000000
     7  C    1.466695   0.000000
     8  H    2.045839   1.101051   0.000000
     9  C    2.517115   1.525839   2.136965   0.000000
    10  C    3.825570   2.488609   2.654578   1.532816   0.000000
    11  C    4.325646   2.905378   3.157167   2.533569   1.533659
    12  C    3.771971   2.462733   2.598525   2.948750   2.536889
    13  C    2.474975   1.531981   2.144646   2.508280   2.954024
    14  H    2.638506   2.160989   2.506360   3.458263   3.956933
    15  N    3.150203   2.531151   3.436269   2.958361   3.490971
    16  C    3.127593   3.105488   4.113961   3.591061   4.483452
    17  H    2.055935   3.442818   4.094390   4.176795   5.640718
    18  H    1.015031   2.083505   2.252444   2.911255   4.200343
    19  H    2.837377   2.153529   3.047029   1.096495   2.169801
    20  H    2.713065   2.161208   2.506321   1.097947   2.181056
    21  H    4.656653   3.443462   3.678002   2.161795   1.096063
    22  H    4.077444   2.763914   2.469053   2.157708   1.099271
    23  H    4.615615   3.349601   3.887146   2.826844   2.159810
    24  H    5.334648   3.881972   3.928345   3.483046   2.171112
    25  H    4.597486   3.423246   3.610890   3.941901   3.484145
    26  H    3.969995   2.689121   2.350594   3.346161   2.829613
    27  H    4.182465   4.177810   5.187309   4.521158   5.313738
                   11         12         13         14         15
    11  C    0.000000
    12  C    1.528343   0.000000
    13  C    2.511009   1.534114   0.000000
    14  H    3.462529   2.163762   1.097930   0.000000
    15  N    2.879713   2.395167   1.459537   2.093980   0.000000
    16  C    4.107666   3.624876   2.388011   2.674081   1.292043
    17  H    6.101080   5.558947   4.079244   4.027063   4.194595
    18  H    4.948088   4.479133   3.346912   3.473606   4.134838
    19  H    2.821337   3.341897   2.724660   3.714602   2.590448
    20  H    3.490880   3.944122   3.462945   4.293922   3.962816
    21  H    2.170859   3.483118   3.923551   4.972422   4.193122
    22  H    2.164537   2.842235   3.412612   4.247827   4.276674
    23  H    1.096329   2.142885   2.762349   3.755875   2.533358
    24  H    1.096725   2.161456   3.464886   4.298348   3.867109
    25  H    2.164657   1.095653   2.157352   2.482972   2.605827
    26  H    2.171060   1.098562   2.164063   2.476878   3.355448
    27  H    4.795947   4.405018   3.349570   3.577543   2.043992
                   16         17         18         19         20
    16  C    0.000000
    17  H    3.485066   0.000000
    18  H    4.119577   2.256125   0.000000
    19  H    3.022651   4.068081   3.404091   0.000000
    20  H    4.409032   4.197942   2.730458   1.772114   0.000000
    21  H    5.112182   6.314084   4.976941   2.480379   2.524830
    22  H    5.281990   6.030602   4.253538   3.068022   2.473296
    23  H    3.684654   6.139437   5.352964   2.673764   3.834252
    24  H    5.127190   7.168939   5.893263   3.831184   4.323883
    25  H    3.815078   6.211599   5.385710   4.156589   4.980457
    26  H    4.495431   5.896889   4.491391   4.008837   4.162669
    27  H    1.091812   4.235337   5.157064   3.804796   5.341978
                   21         22         23         24         25
    21  H    0.000000
    22  H    1.766233   0.000000
    23  H    2.462827   3.064019   0.000000
    24  H    2.529650   2.466932   1.766213   0.000000
    25  H    4.310448   3.838081   2.449920   2.503499   0.000000
    26  H    3.840226   2.694769   3.060604   2.489792   1.770579
    27  H    5.828189   6.190716   4.176716   5.744576   4.389203
                   26         27
    26  H    0.000000
    27  H    5.353780   0.000000
 Symmetry turned off by external request.
 Stoichiometry    C9H13N3O2
 Framework group  C1[X(C9H13N3O2)]
 Deg. of freedom    75
 Full point group                 C1      NOp   1
 Rotational constants (GHZ):           1.6282197           0.4250588           0.3778207
 Standard basis: 6-31G(d) (6D, 7F)
   236 basis functions,   444 primitive gaussians,   236 cartesian basis functions
    52 alpha electrons       52 beta electrons
       nuclear repulsion energy       932.1940722493 Hartrees.
 NAtoms=   27 NActive=   27 NUniq=   27 SFac= 1.00D+00 NAtFMM=   60 NAOKFM=F Big=F
 Integral buffers will be    131072 words long.
 Raffenetti 1 integral format.
 Two-electron integral symmetry is turned off.
 One-electron integrals computed using PRISM.
 NBasis=   236 RedAO= T EigKep=  1.01D-03  NBF=   236
 NBsUse=   236 1.00D-06 EigRej= -1.00D+00 NBFU=   236
 Initial guess from the checkpoint file:  "/home/alexey/tmp/Gau-1251112.chk"
 B after Tr=     0.056533    0.003343    0.012337
         Rot=    0.999994   -0.001307   -0.003088   -0.000024 Ang=  -0.38 deg.
 ExpMin= 1.61D-01 ExpMax= 5.48D+03 ExpMxC= 8.25D+02 IAcc=3 IRadAn=         5 AccDes= 0.00D+00
 Harris functional with IExCor=  205 and IRadAn=       5 diagonalized for initial guess.
 HarFok:  IExCor=  205 AccDes= 0.00D+00 IRadAn=         5 IDoV= 1 UseB2=F ITyADJ=14
 ICtDFT=  3500011 ScaDFX=  1.000000  1.000000  1.000000  1.000000
 FoFCou: FMM=F IPFlag=           0 FMFlag=      100000 FMFlg1=           0
         NFxFlg=           0 DoJE=T BraDBF=F KetDBF=T FulRan=T
         wScrn=  0.000000 ICntrl=       500 IOpCl=  0 I1Cent=   200000004 NGrid=           0
         NMat0=    1 NMatS0=      1 NMatT0=    0 NMatD0=    1 NMtDS0=    0 NMtDT0=    0
 Symmetry not used in FoFCou.
 Keep R1 ints in memory in canonical form, NReq=397720213.
 Requested convergence on RMS density matrix=1.00D-08 within 128 cycles.
 Requested convergence on MAX density matrix=1.00D-06.
 Requested convergence on             energy=1.00D-06.
 No special actions if energy rises.
 SCF Done:  E(RHF) =  -661.293059842     A.U. after   15 cycles
            NFock= 15  Conv=0.53D-08     -V/T= 2.0025
 ExpMin= 1.61D-01 ExpMax= 5.48D+03 ExpMxC= 8.25D+02 IAcc=3 IRadAn=         5 AccDes= 0.00D+00
 HarFok:  IExCor=  205 AccDes= 0.00D+00 IRadAn=         5 IDoV=-2 UseB2=F ITyADJ=14
 ICtDFT= 12500011 ScaDFX=  1.000000  1.000000  1.000000  1.000000
 Range of M.O.s used for correlation:    15   236
 NBasis=   236 NAE=    52 NBE=    52 NFC=    14 NFV=     0
 NROrb=    222 NOA=    38 NOB=    38 NVA=   184 NVB=   184
 Fully direct method using O(ONN) memory.
 JobTyp=1 Pass  1:  I=  15 to  52 NPSUse=  4 ParTrn=T ParDer=T DoDerP=T.
 Spin components of T(2) and E(2):
     alpha-alpha T2 =       0.9150931674D-01 E2=     -0.2726394877D+00
     alpha-beta  T2 =       0.4917437835D+00 E2=     -0.1488402853D+01
     beta-beta   T2 =       0.9150931674D-01 E2=     -0.2726394877D+00
 ANorm=    0.1294126121D+01
 E2 =    -0.2033681829D+01 EUMP2 =    -0.66332674167080D+03
          IDoAtm=111111111111111111111111111
          Differentiating once with respect to electric field.
                with respect to dipole field.
          Differentiating once with respect to nuclear coordinates.
 Keep R1 ints in memory in canonical form, NReq=397723379.
          There are     1 degrees of freedom in the 1st order CPHF.  IDoFFX=0 NUNeed=     1.
 LinEq1:  Iter=  0 NonCon=     1 RMS=4.64D-03 Max=1.12D-01 NDo=     1
 AX will form     1 AO Fock derivatives at one time.
[...]
    27  H    4.762929   4.390628   3.343003   3.569277   2.031357
                   16         17         18         19         20
    16  C    0.000000
    17  H    3.470395   0.000000
    18  H    4.120680   2.227894   0.000000
    19  H    3.009426   4.251226   3.566688   0.000000
    20  H    4.411444   4.421635   2.973266   1.769221   0.000000
    21  H    5.105635   6.478879   5.145379   2.500705   2.522039
    22  H    5.269495   6.093398   4.351830   3.070745   2.464651
    23  H    3.675450   6.196147   5.430633   2.699994   3.842416
    24  H    5.124194   7.182471   5.944062   3.846984   4.319096
    25  H    3.807549   6.080338   5.325741   4.167136   4.985719
    26  H    4.501733   5.785333   4.441177   4.028837   4.179837
    27  H    1.089502   4.249210   5.165451   3.769025   5.325120
                   21         22         23         24         25
    21  H    0.000000
    22  H    1.758909   0.000000
    23  H    2.470597   3.063295   0.000000
    24  H    2.517384   2.461618   1.764393   0.000000
    25  H    4.312001   3.839494   2.443613   2.519332   0.000000
    26  H    3.845588   2.702934   3.060322   2.495889   1.769202
    27  H    5.791039   6.155859   4.134831   5.714042   4.367097
                   26         27
    26  H    0.000000
    27  H    5.346624   0.000000
 Symmetry turned off by external request.
 Stoichiometry    C9H13N3O2
 Framework group  C1[X(C9H13N3O2)]
 Deg. of freedom    75
 Full point group                 C1      NOp   1
 Rotational constants (GHZ):           1.6577098           0.4210089           0.3735649

 **********************************************************************

            Population analysis using the SCF Density.

 **********************************************************************

 Alpha  occ. eigenvalues --  -20.59360 -20.59051 -15.84792 -15.64188 -15.55724
 Alpha  occ. eigenvalues --  -11.35089 -11.29585 -11.29551 -11.28739 -11.27087
 Alpha  occ. eigenvalues --  -11.23725 -11.23184 -11.22570 -11.22047  -1.57215
 Alpha  occ. eigenvalues --   -1.36810  -1.30944  -1.22785  -1.14703  -1.09787
 Alpha  occ. eigenvalues --   -1.02750  -1.01254  -0.94491  -0.89692  -0.85451
 Alpha  occ. eigenvalues --   -0.82479  -0.78701  -0.77383  -0.75214  -0.72081
 Alpha  occ. eigenvalues --   -0.69855  -0.69431  -0.67739  -0.64662  -0.63955
 Alpha  occ. eigenvalues --   -0.62205  -0.60292  -0.57782  -0.56687  -0.55145
 Alpha  occ. eigenvalues --   -0.54642  -0.50613  -0.50235  -0.48844  -0.48093
 Alpha  occ. eigenvalues --   -0.47436  -0.46267  -0.45759  -0.43754  -0.42086
 Alpha  occ. eigenvalues --   -0.39066  -0.33590
 Alpha virt. eigenvalues --    0.07362   0.11292   0.17186   0.21885   0.24421
 Alpha virt. eigenvalues --    0.26210   0.26783   0.28536   0.29324   0.29369
 Alpha virt. eigenvalues --    0.30964   0.31782   0.32164   0.32848   0.33984
 Alpha virt. eigenvalues --    0.34382   0.36119   0.37519   0.38693   0.40453
 Alpha virt. eigenvalues --    0.41159   0.42148   0.44561   0.46046   0.46651
 Alpha virt. eigenvalues --    0.47335   0.49072   0.54148   0.57883   0.60108
 Alpha virt. eigenvalues --    0.63781   0.69504   0.69935   0.72937   0.74203
 Alpha virt. eigenvalues --    0.74800   0.75679   0.76518   0.78461   0.79789
 Alpha virt. eigenvalues --    0.81881   0.83293   0.85535   0.85931   0.88743
 Alpha virt. eigenvalues --    0.89265   0.91514   0.91967   0.93010   0.94461
 Alpha virt. eigenvalues --    0.95399   0.98196   1.00300   1.02101   1.02373
 Alpha virt. eigenvalues --    1.03343   1.05948   1.07157   1.08466   1.09268
 Alpha virt. eigenvalues --    1.10534   1.11531   1.12012   1.12899   1.14036
 Alpha virt. eigenvalues --    1.14064   1.15050   1.15491   1.17119   1.18502
 Alpha virt. eigenvalues --    1.18946   1.21535   1.22456   1.23079   1.23958
 Alpha virt. eigenvalues --    1.25510   1.26725   1.27558   1.27893   1.29394
 Alpha virt. eigenvalues --    1.30235   1.33663   1.35041   1.37245   1.40040
 Alpha virt. eigenvalues --    1.43079   1.48163   1.50635   1.50833   1.54738
 Alpha virt. eigenvalues --    1.57064   1.58972   1.60382   1.62880   1.65622
 Alpha virt. eigenvalues --    1.67426   1.69163   1.71346   1.76102   1.77867
 Alpha virt. eigenvalues --    1.81080   1.83233   1.87271   1.90910   1.93233
 Alpha virt. eigenvalues --    1.94442   1.95670   1.99605   2.01692   2.02860
 Alpha virt. eigenvalues --    2.04741   2.05737   2.08672   2.10023   2.12633
 Alpha virt. eigenvalues --    2.12723   2.16021   2.17959   2.20150   2.21626
 Alpha virt. eigenvalues --    2.23256   2.23943   2.25298   2.28442   2.28980
 Alpha virt. eigenvalues --    2.31666   2.33394   2.35329   2.36667   2.39065
 Alpha virt. eigenvalues --    2.39660   2.42715   2.44612   2.45757   2.46275
 Alpha virt. eigenvalues --    2.49513   2.51945   2.54255   2.55436   2.60045
 Alpha virt. eigenvalues --    2.62486   2.66205   2.66816   2.70081   2.70484
 Alpha virt. eigenvalues --    2.71694   2.72826   2.76999   2.77836   2.83549
 Alpha virt. eigenvalues --    2.87896   2.89102   2.92397   2.93175   2.95999
 Alpha virt. eigenvalues --    2.99467   3.01342   3.04102   3.06170   3.08352
 Alpha virt. eigenvalues --    3.09617   3.15244   3.21079   3.24333   3.27470
 Alpha virt. eigenvalues --    3.32488   3.36545   3.39124   3.51490   3.66746
 Alpha virt. eigenvalues --    4.12803   4.26284   4.33954   4.38274   4.46094
 Alpha virt. eigenvalues --    4.55427   4.61415   4.62092   4.73857   4.79065
 Alpha virt. eigenvalues --    4.99721   5.00885   5.06852   5.10228
          Condensed to atoms (all electrons):
               1          2          3          4          5          6
     1  O    8.317300   0.303563  -0.082887  -0.081447   0.004037  -0.000018
     2  N    0.303563   5.734961   0.299019   0.254996  -0.052570   0.001116
     3  O   -0.082887   0.299019   8.349887  -0.090373   0.002522   0.000733
     4  C   -0.081447   0.254996  -0.090373   5.223097   0.554737  -0.050758
     5  C    0.004037  -0.052570   0.002522   0.554737   4.724787   0.323441
     6  N   -0.000018   0.001116   0.000733  -0.050758   0.323441   7.186992
     7  C    0.000003  -0.000160  -0.000001   0.003956  -0.031236   0.168722
     8  H   -0.000000   0.000002  -0.000000  -0.000182   0.002653  -0.048888
     9  C   -0.000000  -0.000005   0.000000   0.000777   0.000998  -0.060712
    10  C   -0.000000   0.000000   0.000000  -0.000031  -0.000064   0.003684
    11  C   -0.000000  -0.000000  -0.000000  -0.000038   0.000027  -0.000207
    12  C   -0.000000   0.000002  -0.000000  -0.000161  -0.000184   0.004278
    13  C   -0.000016   0.000010  -0.000001  -0.009314  -0.001553  -0.052393
    14  H   -0.000003  -0.000062   0.000000   0.002422   0.006184  -0.007051
    15  N    0.000473   0.002428  -0.000018  -0.062628  -0.008608   0.002198
    16  C   -0.000713  -0.025911   0.002615   0.331375  -0.052006   0.000032
    17  H    0.000244  -0.007150   0.017488  -0.023242   0.374512  -0.032926
    18  H    0.000001  -0.000053   0.000011   0.001603  -0.031213   0.338315
    19  H    0.000000  -0.000003  -0.000000  -0.001170   0.001153  -0.000700
    20  H    0.000000  -0.000000   0.000000  -0.000118   0.000164  -0.000191
    21  H   -0.000000   0.000000  -0.000000   0.000001   0.000001  -0.000076
    22  H   -0.000000   0.000000  -0.000000  -0.000000  -0.000003  -0.000114
    23  H    0.000000  -0.000000   0.000000   0.000042   0.000001  -0.000032
    24  H    0.000000   0.000000   0.000000   0.000000  -0.000000   0.000006
    25  H    0.000000  -0.000000   0.000000   0.000031  -0.000003  -0.000098
    26  H    0.000000  -0.000000   0.000000   0.000003   0.000000  -0.000065
    27  H    0.007586  -0.000955   0.000041  -0.062474   0.002462  -0.000025
               7          8          9         10         11         12
     1  O    0.000003  -0.000000  -0.000000  -0.000000  -0.000000  -0.000000
     2  N   -0.000160   0.000002  -0.000005   0.000000  -0.000000   0.000002
     3  O   -0.000001  -0.000000   0.000000   0.000000  -0.000000  -0.000000
     4  C    0.003956  -0.000182   0.000777  -0.000031  -0.000038  -0.000161
     5  C   -0.031236   0.002653   0.000998  -0.000064   0.000027  -0.000184
     6  N    0.168722  -0.048888  -0.060712   0.003684  -0.000207   0.004278
     7  C    5.035017   0.416120   0.350398  -0.054860  -0.009182  -0.062383
     8  H    0.416120   0.534110  -0.051880   0.000279  -0.000188  -0.002509
     9  C    0.350398  -0.051880   5.151479   0.326162  -0.050872  -0.004920
    10  C   -0.054860   0.000279   0.326162   5.119636   0.336749  -0.061318
    11  C   -0.009182  -0.000188  -0.050872   0.336749   5.121666   0.336316
    12  C   -0.062383  -0.002509  -0.004920  -0.061318   0.336316   5.122972
    13  C    0.331285  -0.036470  -0.061932  -0.000153  -0.050656   0.372464
    14  H   -0.048409  -0.000500   0.004381  -0.000390   0.004209  -0.036555
    15  N   -0.060431   0.003788  -0.013168   0.001523  -0.013604  -0.085198
    16  C    0.000480  -0.000200  -0.000411  -0.000077   0.000060   0.002403
    17  H    0.001555  -0.000073  -0.000043   0.000001   0.000000   0.000001
    18  H   -0.021473  -0.004644   0.001634  -0.000084   0.000003  -0.000122
    19  H   -0.037182   0.004295   0.391473  -0.032732  -0.002131   0.000619
    20  H   -0.041726  -0.001929   0.399111  -0.034919   0.003890  -0.000428
    21  H    0.004636  -0.000070  -0.036533   0.402522  -0.034846   0.004351
    22  H   -0.004995   0.003529  -0.046776   0.397466  -0.045215  -0.001043
    23  H    0.000666   0.000036  -0.001999  -0.039094   0.399158  -0.038216
    24  H   -0.000131  -0.000102   0.004376  -0.038338   0.402364  -0.038419
    25  H    0.005271  -0.000032  -0.000435   0.004198  -0.033150   0.397640
    26  H   -0.003888   0.001651   0.000990  -0.002280  -0.041464   0.395836
    27  H   -0.000316   0.000007  -0.000046   0.000004   0.000011  -0.000036
              13         14         15         16         17         18
     1  O   -0.000016  -0.000003   0.000473  -0.000713   0.000244   0.000001
     2  N    0.000010  -0.000062   0.002428  -0.025911  -0.007150  -0.000053
     3  O   -0.000001   0.000000  -0.000018   0.002615   0.017488   0.000011
     4  C   -0.009314   0.002422  -0.062628   0.331375  -0.023242   0.001603
     5  C   -0.001553   0.006184  -0.008608  -0.052006   0.374512  -0.031213
     6  N   -0.052393  -0.007051   0.002198   0.000032  -0.032926   0.338315
     7  C    0.331285  -0.048409  -0.060431   0.000480   0.001555  -0.021473
     8  H   -0.036470  -0.000500   0.003788  -0.000200  -0.000073  -0.004644
     9  C   -0.061932   0.004381  -0.013168  -0.000411  -0.000043   0.001634
    10  C   -0.000153  -0.000390   0.001523  -0.000077   0.000001  -0.000084
    11  C   -0.050656   0.004209  -0.013604   0.000060   0.000000   0.000003
    12  C    0.372464  -0.036555  -0.085198   0.002403   0.000001  -0.000122
    13  C    5.035555   0.406933   0.252732  -0.067859  -0.000018   0.002931
    14  H    0.406933   0.529381  -0.037419  -0.007586   0.000020  -0.000090
    15  N    0.252732  -0.037419   6.982415   0.577358  -0.000089  -0.000120
    16  C   -0.067859  -0.007586   0.577358   4.719980   0.001638  -0.000144
    17  H   -0.000018   0.000020  -0.000089   0.001638   0.374135  -0.002793
    18  H    0.002931  -0.000090  -0.000120  -0.000144  -0.002793   0.311359
    19  H   -0.007588   0.000124   0.007865   0.002264   0.000007  -0.000138
    20  H    0.004385  -0.000069   0.000135  -0.000033  -0.000001   0.000536
    21  H   -0.000434   0.000010  -0.000043   0.000004  -0.000000   0.000002
    22  H    0.000028  -0.000052   0.000026  -0.000001   0.000000   0.000000
    23  H   -0.007917   0.000003   0.008932   0.000172   0.000000   0.000000
    24  H    0.004711  -0.000059   0.000109   0.000006   0.000000  -0.000000
    25  H   -0.035351  -0.002882   0.001062  -0.000018  -0.000000   0.000003
    26  H   -0.047632  -0.000975   0.005052  -0.000036   0.000000   0.000000
    27  H    0.004555  -0.000136  -0.039594   0.401515  -0.000079   0.000001
              19         20         21         22         23         24
     1  O    0.000000   0.000000  -0.000000  -0.000000   0.000000   0.000000
     2  N   -0.000003  -0.000000   0.000000   0.000000  -0.000000   0.000000
     3  O   -0.000000   0.000000  -0.000000  -0.000000   0.000000   0.000000
     4  C   -0.001170  -0.000118   0.000001  -0.000000   0.000042   0.000000
     5  C    0.001153   0.000164   0.000001  -0.000003   0.000001  -0.000000
     6  N   -0.000700  -0.000191  -0.000076  -0.000114  -0.000032   0.000006
     7  C   -0.037182  -0.041726   0.004636  -0.004995   0.000666  -0.000131
     8  H    0.004295  -0.001929  -0.000070   0.003529   0.000036  -0.000102
     9  C    0.391473   0.399111  -0.036533  -0.046776  -0.001999   0.004376
    10  C   -0.032732  -0.034919   0.402522   0.397466  -0.039094  -0.038338
    11  C   -0.002131   0.003890  -0.034846  -0.045215   0.399158   0.402364
    12  C    0.000619  -0.000428   0.004351  -0.001043  -0.038216  -0.038419
    13  C   -0.007588   0.004385  -0.000434   0.000028  -0.007917   0.004711
    14  H    0.000124  -0.000069   0.000010  -0.000052   0.000003  -0.000059
    15  N    0.007865   0.000135  -0.000043   0.000026   0.008932   0.000109
    16  C    0.002264  -0.000033   0.000004  -0.000001   0.000172   0.000006
    17  H    0.000007  -0.000001  -0.000000   0.000000   0.000000   0.000000
    18  H   -0.000138   0.000536   0.000002   0.000000   0.000000  -0.000000
    19  H    0.505082  -0.024399  -0.002745   0.003964   0.001543  -0.000069
    20  H   -0.024399   0.536936  -0.002689  -0.002927  -0.000045  -0.000082
    21  H   -0.002745  -0.002689   0.523653  -0.027366  -0.002892  -0.002254
    22  H    0.003964  -0.002927  -0.027366   0.571263   0.004128  -0.003607
    23  H    0.001543  -0.000045  -0.002892   0.004128   0.499050  -0.025391
    24  H   -0.000069  -0.000082  -0.002254  -0.003607  -0.025391   0.537471
    25  H   -0.000030   0.000012  -0.000086  -0.000081  -0.002265  -0.002328
    26  H    0.000021  -0.000029  -0.000080   0.002374   0.004091  -0.002974
    27  H    0.000080   0.000000  -0.000000   0.000000  -0.000032  -0.000000
              25         26         27
     1  O    0.000000   0.000000   0.007586
     2  N   -0.000000  -0.000000  -0.000955
     3  O    0.000000   0.000000   0.000041
     4  C    0.000031   0.000003  -0.062474
     5  C   -0.000003   0.000000   0.002462
     6  N   -0.000098  -0.000065  -0.000025
     7  C    0.005271  -0.003888  -0.000316
     8  H   -0.000032   0.001651   0.000007
     9  C   -0.000435   0.000990  -0.000046
    10  C    0.004198  -0.002280   0.000004
    11  C   -0.033150  -0.041464   0.000011
    12  C    0.397640   0.395836  -0.000036
    13  C   -0.035351  -0.047632   0.004555
    14  H   -0.002882  -0.000975  -0.000136
    15  N    0.001062   0.005052  -0.039594
    16  C   -0.000018  -0.000036   0.401515
    17  H   -0.000000   0.000000  -0.000079
    18  H    0.000003   0.000000   0.000001
    19  H   -0.000030   0.000021   0.000080
    20  H    0.000012  -0.000029   0.000000
    21  H   -0.000086  -0.000080  -0.000000
    22  H   -0.000081   0.002374   0.000000
    23  H   -0.002265   0.004091  -0.000032
    24  H   -0.002328  -0.002974  -0.000000
    25  H    0.505159  -0.024039  -0.000019
    26  H   -0.024039   0.564918   0.000001
    27  H   -0.000019   0.000001   0.429065
 Mulliken charges:
               1
     1  O   -0.468122
     2  N    0.490773
     3  O   -0.499038
     4  C    0.008896
     5  C    0.179761
     6  N   -0.775263
     7  C    0.058264
     8  H    0.181195
     9  C   -0.302050
    10  C   -0.327882
    11  C   -0.322900
    12  C   -0.305390
    13  C   -0.036302
    14  H    0.188573
    15  N   -0.525174
    16  C    0.115094
    17  H    0.296813
    18  H    0.404475
    19  H    0.190398
    20  H    0.164415
    21  H    0.174936
    22  H    0.149403
    23  H    0.200060
    24  H    0.164714
    25  H    0.187441
    26  H    0.148525
    27  H    0.258384
 Sum of Mulliken charges =  -0.00000
 Mulliken charges with hydrogens summed into heavy atoms:
               1
     1  O   -0.468122
     2  N    0.490773
     3  O   -0.499038
     4  C    0.008896
     5  C    0.476575
     6  N   -0.370788
     7  C    0.239459
     9  C    0.052763
    10  C   -0.003543
    11  C    0.041873
    12  C    0.030576
    13  C    0.152271
    15  N   -0.525174
    16  C    0.373479
 Electronic spatial extent (au):  <R**2>=           2999.6660
 Charge=             -0.0000 electrons
 Dipole moment (field-independent basis, Debye):
    X=              5.2723    Y=              4.6018    Z=              1.9428  Tot=              7.2628
 Quadrupole moment (field-independent basis, Debye-Ang):
   XX=           -105.5302   YY=            -79.5574   ZZ=            -81.4150
   XY=             -0.9040   XZ=             -2.1872   YZ=              3.0370
 Traceless Quadrupole moment (field-independent basis, Debye-Ang):
   XX=            -16.6960   YY=              9.2768   ZZ=              7.4192
   XY=             -0.9040   XZ=             -2.1872   YZ=              3.0370
 Octapole moment (field-independent basis, Debye-Ang**2):
  XXX=             88.1035  YYY=             31.1219  ZZZ=              4.9006  XYY=             -5.4124
  XXY=              7.1964  XXZ=             13.8227  XZZ=             -9.6817  YZZ=              0.6327
  YYZ=             11.9151  XYZ=             -1.5587
 Hexadecapole moment (field-independent basis, Debye-Ang**3):
 XXXX=          -3347.9772 YYYY=           -609.1519 ZZZZ=           -310.3441 XXXY=             -9.7546
 XXXZ=            -70.0327 YYYX=              2.6764 YYYZ=             32.2604 ZZZX=            -26.5915
 ZZZY=              9.1252 XXYY=           -626.1375 XXZZ=           -523.3977 YYZZ=           -157.8183
 XXYZ=              4.2972 YYXZ=            -10.0259 ZZXY=              5.9478
 N-N= 9.310784513151D+02 E-N=-3.408878274088D+03  KE= 6.596223367624D+02
 Unable to Open any file for archive entry.
 1\1\GINC-LOTUS\FOpt\RMP2-FC\6-31G(d)\C9H13N3O2\ALEXEY\01-Jul-2023\0\\#
 MP2/6-31G* SCF=Tight Opt=(ModRedun, MaxCycle=20 ) NoSymm\\MolName:\\0,
 1\O,-3.5262797105,-1.3535381854,-0.3979716602\N,-3.1037821217,-0.18927
 78158,-0.2611589814\O,-3.8442424804,0.8135856643,-0.25444767\C,-1.6644
 851225,-0.0106049099,-0.1125809353\C,-1.2884270772,1.2428712665,0.3053
 340575\N,-0.0509525968,1.7416977228,0.4546269527\C,1.2208306962,1.0324
 366436,0.3891741035\H,1.8805336252,1.5600744,1.0930709956\C,1.88426087
 3,1.0494934966,-0.9855470414\C,3.2854682991,0.4396340074,-0.8608744533
 \C,3.2505505321,-0.9589083352,-0.2385998846\C,2.490110376,-0.972851382
 9,1.0891498906\C,1.0743450499,-0.4195430827,0.8817420651\H,0.513474636
 1,-0.4067504885,1.8281484464\N,0.4136873602,-1.3338658036,-0.043424228
 8\C,-0.8440949079,-1.1827150334,-0.3220112662\H,-2.0889188537,1.961767
 4148,0.4566317817\H,-0.0125829043,2.6962015343,0.7927068135\H,1.268427
 3364,0.4722223971,-1.6840237405\H,1.9391156017,2.0776797312,-1.3633575
 195\H,3.7628992012,0.404132167,-1.8468148401\H,3.9033880251,1.10246093
 ,-0.2385977174\H,2.7513032,-1.6520676077,-0.923470875\H,4.2728858212,-
 1.3268212804,-0.0915556703\H,2.4143200727,-1.9954721908,1.4723089385\H
 ,3.0183082912,-0.3747970169,1.8447159929\H,-1.3591632223,-2.0540242419
 ,-0.725173554\\Version=ES64L-G16RevC.02\HF=-661.2952064\MP2=-663.33071
 26\RMSD=9.466e-09\RMSF=2.439e-03\Dipole=1.942315,1.6347777,0.6841371\P
 G=C01 [X(C9H13N3O2)]\\@
 The archive entry for this job was punched.


 EVERYTHING'S GOT A MORAL, IF ONLY YOU CAN FIND IT.

                                    -- LEWIS CARROL, ALICE IN WONDERLAND
 Job cpu time:       0 days  1 hours 40 minutes 53.4 seconds.
 Elapsed time:       0 days  0 hours 29 minutes 55.8 seconds.
 File lengths (MBytes):  RWF=     36 Int=      0 D2E=      0 Chk=      7 Scr=      1
 Normal termination of Gaussian 16 at Sat Jul  1 02:36:53 2023.
