 Entering Gaussian System, Link 0=g16
 Initial command:
 /home/alexey/programs//g16/l1.exe "/home/alexey/tmp/Gau-1447767.inp" -scrdir="/home/alexey/tmp/"
 Entering Link 1 = /home/alexey/programs//g16/l1.exe PID=   1447769.
  
 Copyright (c) 1988-2021, Gaussian, Inc.  All Rights Reserved.
  
 This is part of the Gaussian(R) 16 program.  It is based on
 the Gaussian(R) 09 system (copyright 2009, Gaussian, Inc.),
 the Gaussian(R) 03 system (copyright 2003, Gaussian, Inc.),
 the Gaussian(R) 98 system (copyright 1998, Gaussian, Inc.),
 the Gaussian(R) 94 system (copyright 1995, Gaussian, Inc.),
 the Gaussian 92(TM) system (copyright 1992, Gaussian, Inc.),
 the Gaussian 90(TM) system (copyright 1990, Gaussian, Inc.),
 the Gaussian 88(TM) system (copyright 1988, Gaussian, Inc.),
 the Gaussian 86(TM) system (copyright 1986, Carnegie Mellon
 University), and the Gaussian 82(TM) system (copyright 1983,
 Carnegie Mellon University). Gaussian is a federally registered
 trademark of Gaussian, Inc.
  
 This software contains proprietary and confidential information,
 including trade secrets, belonging to Gaussian, Inc.
  
 This software is provided under written license and may be
 used, copied, transmitted, or stored only in accord with that
 written license.
  
 The following legend is applicable only to US Government
 contracts under FAR:
  
                    RESTRICTED RIGHTS LEGEND
  
 Use, reproduction and disclosure by the US Government is
 subject to restrictions as set forth in subparagraphs (a)
 and (c) of the Commercial Computer Software - Restricted
 Rights clause in FAR 52.227-19.
  
 Gaussian, Inc.
 340 Quinnipiac St., Bldg. 40, Wallingford CT 06492
  
  
 ---------------------------------------------------------------
 Warning -- This program may not be used in any manner that
 competes with the business of Gaussian, Inc. or will provide
 assistance to any competitor of Gaussian, Inc.  The licensee
 of this program is prohibited from giving any competitor of
 Gaussian, Inc. access to this program.  By using this program,
 the user acknowledges that Gaussian, Inc. is engaged in the
 business of creating and licensing software in the field of
 computational chemistry and represents and warrants to the
 licensee that it is not a competitor of Gaussian, Inc. and that
 it will not use this program in any manner prohibited above.
 ---------------------------------------------------------------
  

 Cite this work as:
 Gaussian 16, Revision C.02,
 M. J. Frisch, G. W. Trucks, H. B. Schlegel, G. E. Scuseria, 
 M. A. Robb, J. R. Cheeseman, G. Scalmani, V. Barone, 
 G. A. Petersson, H. Nakatsuji, X. Li, M. Caricato, A. V. Marenich, 
 J. Bloino, B. G. Janesko, R. Gomperts, B. Mennucci, H. P. Hratchian, 
 J. V. Ortiz, A. F. Izmaylov, J. L. Sonnenberg, D. Williams-Young, 
 F. Ding, F. Lipparini, F. Egidi, J. Goings, B. Peng, A. Petrone, 
 T. Henderson, D. Ranasinghe, V. G. Zakrzewski, J. Gao, N. Rega, 
 G. Zheng, W. Liang, M. Hada, M. Ehara, K. Toyota, R. Fukuda, 
 J. Hasegawa, M. Ishida, T. Nakajima, Y. Honda, O. Kitao, H. Nakai, 
 T. Vreven, K. Throssell, J. A. Montgomery, Jr., J. E. Peralta, 
 F. Ogliaro, M. J. Bearpark, J. J. Heyd, E. N. Brothers, K. N. Kudin, 
 V. N. Staroverov, T. A. Keith, R. Kobayashi, J. Normand, 
 K. Raghavachari, A. P. Rendell, J. C. Burant, S. S. Iyengar, 
 J. Tomasi, M. Cossi, J. M. Millam, M. Klene, C. Adamo, R. Cammi, 
 J. W. Ochterski, R. L. Martin, K. Morokuma, O. Farkas, 
 J. B. Foresman, and D. J. Fox, Gaussian, Inc., Wallingford CT, 2019.
 
 ******************************************
 Gaussian 16:  ES64L-G16RevC.02  7-Dec-2021
                 2-Jul-2023 
 ******************************************
 %mem=8GB
 %NPROCS=4
 Will use up to    4 processors via shared memory.
 %NoSave
 ---------------------------------------------------------
 #MP2/6-31G* SCF=Tight Opt=(ModRedun, MaxCycle=20 ) NoSymm
 ---------------------------------------------------------
 1/6=20,18=120,19=15,38=1/1,3;
 2/9=110,12=2,15=1,17=6,18=5,40=1/2;
 3/5=1,6=6,7=1,11=9,25=1,30=1,71=1/1,2,3;
 4//1;
 5/5=2,32=2,38=5/2;
 8/6=4,10=2/1;
 9/15=2,16=-3/6;
 10/5=1,31=1/2;
 6/7=2,8=2,9=2,10=2/1;
 7/12=2,30=1/1,2,3,16;
 1/6=20,18=20,19=15/3(2);
 2/9=110,15=1/2;
 99//99;
 2/9=110,15=1/2;
 3/5=1,6=6,7=1,11=9,25=1,30=1,71=1/1,2,3;
 4/5=5,16=3,69=1/1;
 5/5=2,32=2,38=5/2;
 8/6=4,10=2/1;
 9/15=2,16=-3/6;
 10/5=1,31=1/2;
 7/12=2,30=1/1,2,3,16;
 1/6=20,18=20,19=15/3(-8);
 2/9=110,15=1/2;
 6/7=2,8=2,9=2,10=2/1;
 99/9=10/99;
 --------
 MolName:
 --------
 Symbolic Z-matrix:
 Charge =  0 Multiplicity = 1
 8                    0    -3.59536  -1.27201  -0.71224 
 7                    0    -3.15092  -0.13539  -0.56162 
 8                    0    -3.79215   0.88375  -0.82195 
 6                    0    -1.71068   0.0098   -0.0593 
 6                    0    -1.32176   1.30877   0.28898 
 7                    0    -0.08375   1.6802    0.73154 
 6                    0     1.19919   0.95853   0.51565 
 1                    0     1.94729   1.47355   1.17373 
 6                    0     1.77458   1.03174  -0.9205 
 6                    0     3.21575   0.48797  -0.92184 
 6                    0     3.27299  -0.9287   -0.32817 
 6                    0     2.60357  -0.9844    1.06233 
 6                    0     1.13176  -0.49035   1.00806 
 1                    0     0.71721  -0.53505   2.04276 
 7                    0     0.37318  -1.39892   0.1453 
 6                    0    -0.90598  -1.24626   0.02316 
 1                    0    -2.06028   2.12177   0.1921 
 1                    0     0.14593   2.66893   0.85787 
 1                    0     1.14516   0.43525  -1.61492 
 1                    0     1.7783    2.0834   -1.27779 
 1                    0     3.61628   0.47798  -1.95918 
 1                    0     3.86059   1.15923  -0.31189 
 1                    0     2.74816  -1.63056  -1.01512 
 1                    0     4.33018  -1.26389  -0.25055 
 1                    0     2.6257   -2.03098   1.43766 
 1                    0     3.1797   -0.35787   1.77505 
 1                    0    -1.47864  -2.14649  -0.24413 
 
 The following ModRedundant input section has been read:
 D       2       4      16      27 F                                           
 D       1       2       4      16 F                                           
 D       7      13      15      16 F                                           
 D       7       9      10      11 F                                           
 D       9      10      11      12 F                                           
 D       6       7      13      15 F                                           
 

 GradGradGradGradGradGradGradGradGradGradGradGradGradGradGradGradGradGrad
 Berny optimization.
 Initialization pass.
                           ----------------------------
                           !    Initial Parameters    !
                           ! (Angstroms and Degrees)  !
 --------------------------                            --------------------------
 ! Name  Definition              Value          Derivative Info.                !
 --------------------------------------------------------------------------------
 ! R1    R(1,2)                  1.2297         estimate D2E/DX2                !
 ! R2    R(2,3)                  1.2319         estimate D2E/DX2                !
 ! R3    R(2,4)                  1.5322         estimate D2E/DX2                !
 ! R4    R(4,5)                  1.4            estimate D2E/DX2                !
 ! R5    R(4,16)                 1.494          estimate D2E/DX2                !
 ! R6    R(5,6)                  1.3662         estimate D2E/DX2                !
 ! R7    R(5,17)                 1.1026         estimate D2E/DX2                !
 ! R8    R(6,7)                  1.4877         estimate D2E/DX2                !
 ! R9    R(6,18)                 1.0229         estimate D2E/DX2                !
 ! R10   R(7,8)                  1.1216         estimate D2E/DX2                !
 ! R11   R(7,9)                  1.5489         estimate D2E/DX2                !
 ! R12   R(7,13)                 1.5318         estimate D2E/DX2                !
 ! R13   R(9,10)                 1.5403         estimate D2E/DX2                !
 ! R14   R(9,19)                 1.1109         estimate D2E/DX2                !
 ! R15   R(9,20)                 1.1107         estimate D2E/DX2                !
 ! R16   R(10,11)                1.5371         estimate D2E/DX2                !
 ! R17   R(10,21)                1.112          estimate D2E/DX2                !
 ! R18   R(10,22)                1.1129         estimate D2E/DX2                !
 ! R19   R(11,12)                1.5443         estimate D2E/DX2                !
 ! R20   R(11,23)                1.1135         estimate D2E/DX2                !
 ! R21   R(11,24)                1.1118         estimate D2E/DX2                !
 ! R22   R(12,13)                1.5535         estimate D2E/DX2                !
 ! R23   R(12,25)                1.1121         estimate D2E/DX2                !
 ! R24   R(12,26)                1.1102         estimate D2E/DX2                !
 ! R25   R(13,14)                1.1156         estimate D2E/DX2                !
 ! R26   R(13,15)                1.4647         estimate D2E/DX2                !
 ! R27   R(15,16)                1.294          estimate D2E/DX2                !
 ! R28   R(16,27)                1.0999         estimate D2E/DX2                !
 ! A1    A(1,2,3)              123.4126         estimate D2E/DX2                !
 ! A2    A(1,2,4)              117.8704         estimate D2E/DX2                !
 ! A3    A(3,2,4)              118.6958         estimate D2E/DX2                !
 ! A4    A(2,4,5)              115.5065         estimate D2E/DX2                !
 ! A5    A(2,4,16)             116.4052         estimate D2E/DX2                !
 ! A6    A(5,4,16)             128.0774         estimate D2E/DX2                !
 ! A7    A(4,5,6)              125.7741         estimate D2E/DX2                !
 ! A8    A(4,5,17)             118.4386         estimate D2E/DX2                !
 ! A9    A(6,5,17)             115.7818         estimate D2E/DX2                !
 ! A10   A(5,6,7)              127.0526         estimate D2E/DX2                !
 ! A11   A(5,6,18)             120.4159         estimate D2E/DX2                !
 ! A12   A(7,6,18)             107.048          estimate D2E/DX2                !
 ! A13   A(6,7,8)              105.5035         estimate D2E/DX2                !
 ! A14   A(6,7,9)              115.5933         estimate D2E/DX2                !
 ! A15   A(6,7,13)             111.9764         estimate D2E/DX2                !
 ! A16   A(8,7,9)              105.9353         estimate D2E/DX2                !
 ! A17   A(8,7,13)             105.9672         estimate D2E/DX2                !
 ! A18   A(9,7,13)             111.0473         estimate D2E/DX2                !
 ! A19   A(7,9,10)             109.3717         estimate D2E/DX2                !
 ! A20   A(7,9,19)             110.1046         estimate D2E/DX2                !
 ! A21   A(7,9,20)             110.1372         estimate D2E/DX2                !
 ! A22   A(10,9,19)            109.8768         estimate D2E/DX2                !
 ! A23   A(10,9,20)            109.3197         estimate D2E/DX2                !
 ! A24   A(19,9,20)            108.0114         estimate D2E/DX2                !
 ! A25   A(9,10,11)            111.0919         estimate D2E/DX2                !
 ! A26   A(9,10,21)            109.9362         estimate D2E/DX2                !
 ! A27   A(9,10,22)            109.1915         estimate D2E/DX2                !
 ! A28   A(11,10,21)           109.7913         estimate D2E/DX2                !
 ! A29   A(11,10,22)           108.8239         estimate D2E/DX2                !
 ! A30   A(21,10,22)           107.9386         estimate D2E/DX2                !
 ! A31   A(10,11,12)           111.3998         estimate D2E/DX2                !
 ! A32   A(10,11,23)           108.9715         estimate D2E/DX2                !
 ! A33   A(10,11,24)           109.8919         estimate D2E/DX2                !
 ! A34   A(12,11,23)           109.1742         estimate D2E/DX2                !
 ! A35   A(12,11,24)           109.7837         estimate D2E/DX2                !
 ! A36   A(23,11,24)           107.531          estimate D2E/DX2                !
 ! A37   A(11,12,13)           111.5786         estimate D2E/DX2                !
 ! A38   A(11,12,25)           109.2216         estimate D2E/DX2                !
 ! A39   A(11,12,26)           109.4363         estimate D2E/DX2                !
 ! A40   A(13,12,25)           109.2656         estimate D2E/DX2                !
 ! A41   A(13,12,26)           109.55           estimate D2E/DX2                !
 ! A42   A(25,12,26)           107.7054         estimate D2E/DX2                !
 ! A43   A(7,13,12)            105.6849         estimate D2E/DX2                !
 ! A44   A(7,13,14)            110.636          estimate D2E/DX2                !
 ! A45   A(7,13,15)            114.8471         estimate D2E/DX2                !
 ! A46   A(12,13,14)           107.8744         estimate D2E/DX2                !
 ! A47   A(12,13,15)           108.2997         estimate D2E/DX2                !
 ! A48   A(14,13,15)           109.21           estimate D2E/DX2                !
 ! A49   A(13,15,16)           119.6293         estimate D2E/DX2                !
 ! A50   A(4,16,15)            129.5561         estimate D2E/DX2                !
 ! A51   A(4,16,27)            113.2203         estimate D2E/DX2                !
 ! A52   A(15,16,27)           116.1707         estimate D2E/DX2                !
 ! D1    D(1,2,4,5)           -170.6384         estimate D2E/DX2                !
 ! D2    D(1,2,4,16)             8.2579         Frozen                          !
 ! D3    D(3,2,4,5)             10.98           estimate D2E/DX2                !
 ! D4    D(3,2,4,16)          -170.1237         estimate D2E/DX2                !
 ! D5    D(2,4,5,6)           -178.5051         estimate D2E/DX2                !
 ! D6    D(2,4,5,17)             0.604          estimate D2E/DX2                !
 ! D7    D(16,4,5,6)             2.7507         estimate D2E/DX2                !
 ! D8    D(16,4,5,17)         -178.1402         estimate D2E/DX2                !
 ! D9    D(2,4,16,15)          164.589          estimate D2E/DX2                !
 ! D10   D(2,4,16,27)           -3.0531         Frozen                          !
 ! D11   D(5,4,16,15)          -16.6764         estimate D2E/DX2                !
 ! D12   D(5,4,16,27)          175.6814         estimate D2E/DX2                !
 ! D13   D(4,5,6,7)             22.3496         estimate D2E/DX2                !
 ! D14   D(4,5,6,18)           172.7159         estimate D2E/DX2                !
 ! D15   D(17,5,6,7)          -156.7804         estimate D2E/DX2                !
 ! D16   D(17,5,6,18)           -6.4141         estimate D2E/DX2                !
 ! D17   D(5,6,7,8)           -170.3948         estimate D2E/DX2                !
 ! D18   D(5,6,7,9)             72.9399         estimate D2E/DX2                !
 ! D19   D(5,6,7,13)           -55.5738         estimate D2E/DX2                !
 ! D20   D(18,6,7,8)            36.0926         estimate D2E/DX2                !
 ! D21   D(18,6,7,9)           -80.5728         estimate D2E/DX2                !
 ! D22   D(18,6,7,13)          150.9135         estimate D2E/DX2                !
 ! D23   D(6,7,9,10)           168.8997         estimate D2E/DX2                !
 ! D24   D(6,7,9,19)           -70.2707         estimate D2E/DX2                !
 ! D25   D(6,7,9,20)            48.7372         estimate D2E/DX2                !
 ! D26   D(8,7,9,10)            52.4776         estimate D2E/DX2                !
 ! D27   D(8,7,9,19)           173.3073         estimate D2E/DX2                !
 ! D28   D(8,7,9,20)           -67.6849         estimate D2E/DX2                !
 ! D29   D(13,7,9,10)          -62.1302         estimate D2E/DX2                !
 ! D30   D(13,7,9,19)           58.6995         estimate D2E/DX2                !
 ! D31   D(13,7,9,20)          177.7073         estimate D2E/DX2                !
 ! D32   D(6,7,13,12)         -165.6751         estimate D2E/DX2                !
 ! D33   D(6,7,13,14)          -49.1616         estimate D2E/DX2                !
 ! D34   D(6,7,13,15)           75.0217         Frozen                          !
 ! D35   D(8,7,13,12)          -51.1385         estimate D2E/DX2                !
 ! D36   D(8,7,13,14)           65.3749         estimate D2E/DX2                !
 ! D37   D(8,7,13,15)         -170.4417         estimate D2E/DX2                !
 ! D38   D(9,7,13,12)           63.4494         estimate D2E/DX2                !
 ! D39   D(9,7,13,14)          179.9628         estimate D2E/DX2                !
 ! D40   D(9,7,13,15)          -55.8538         estimate D2E/DX2                !
 ! D41   D(7,9,10,11)           54.8118         Frozen                          !
 ! D42   D(7,9,10,21)          176.5436         estimate D2E/DX2                !
 ! D43   D(7,9,10,22)          -65.2169         estimate D2E/DX2                !
 ! D44   D(19,9,10,11)         -66.1563         estimate D2E/DX2                !
 ! D45   D(19,9,10,21)          55.5755         estimate D2E/DX2                !
 ! D46   D(19,9,10,22)         173.815          estimate D2E/DX2                !
 ! D47   D(20,9,10,11)         175.4738         estimate D2E/DX2                !
 ! D48   D(20,9,10,21)         -62.7945         estimate D2E/DX2                !
 ! D49   D(20,9,10,22)          55.4451         estimate D2E/DX2                !
 ! D50   D(9,10,11,12)         -52.8221         Frozen                          !
 ! D51   D(9,10,11,23)          67.6917         estimate D2E/DX2                !
 ! D52   D(9,10,11,24)        -174.7195         estimate D2E/DX2                !
 ! D53   D(21,10,11,12)       -174.6383         estimate D2E/DX2                !
 ! D54   D(21,10,11,23)        -54.1246         estimate D2E/DX2                !
 ! D55   D(21,10,11,24)         63.4643         estimate D2E/DX2                !
 ! D56   D(22,10,11,12)         67.4247         estimate D2E/DX2                !
 ! D57   D(22,10,11,23)       -172.0616         estimate D2E/DX2                !
 ! D58   D(22,10,11,24)        -54.4727         estimate D2E/DX2                !
 ! D59   D(10,11,12,13)         56.6418         estimate D2E/DX2                !
 ! D60   D(10,11,12,25)        177.5495         estimate D2E/DX2                !
 ! D61   D(10,11,12,26)        -64.768          estimate D2E/DX2                !
 ! D62   D(23,11,12,13)        -63.7528         estimate D2E/DX2                !
 ! D63   D(23,11,12,25)         57.1549         estimate D2E/DX2                !
 ! D64   D(23,11,12,26)        174.8375         estimate D2E/DX2                !
 ! D65   D(24,11,12,13)        178.6019         estimate D2E/DX2                !
 ! D66   D(24,11,12,25)        -60.4904         estimate D2E/DX2                !
 ! D67   D(24,11,12,26)         57.1921         estimate D2E/DX2                !
 ! D68   D(11,12,13,7)         -60.4095         estimate D2E/DX2                !
 ! D69   D(11,12,13,14)       -178.7809         estimate D2E/DX2                !
 ! D70   D(11,12,13,15)         63.1336         estimate D2E/DX2                !
 ! D71   D(25,12,13,7)         178.7085         estimate D2E/DX2                !
 ! D72   D(25,12,13,14)         60.3371         estimate D2E/DX2                !
 ! D73   D(25,12,13,15)        -57.7484         estimate D2E/DX2                !
 ! D74   D(26,12,13,7)          60.9342         estimate D2E/DX2                !
 ! D75   D(26,12,13,14)        -57.4372         estimate D2E/DX2                !
 ! D76   D(26,12,13,15)       -175.5227         estimate D2E/DX2                !
 ! D77   D(7,13,15,16)         -67.1611         Frozen                          !
 ! D78   D(12,13,15,16)        175.0033         estimate D2E/DX2                !
 ! D79   D(14,13,15,16)         57.7727         estimate D2E/DX2                !
 ! D80   D(13,15,16,4)          38.4448         estimate D2E/DX2                !
 ! D81   D(13,15,16,27)       -154.2141         estimate D2E/DX2                !
 --------------------------------------------------------------------------------
 Trust Radius=3.00D-01 FncErr=1.00D-07 GrdErr=1.00D-07 EigMax=2.50D+02 EigMin=1.00D-04
 Number of steps in this run=     20 maximum allowed number of steps=    162.
 GradGradGradGradGradGradGradGradGradGradGradGradGradGradGradGradGradGrad

                          Input orientation:                          
 ---------------------------------------------------------------------
 Center     Atomic      Atomic             Coordinates (Angstroms)
 Number     Number       Type             X           Y           Z
 ---------------------------------------------------------------------
      1          8           0       -3.595360   -1.272010   -0.712240
      2          7           0       -3.150920   -0.135390   -0.561620
      3          8           0       -3.792150    0.883750   -0.821950
      4          6           0       -1.710680    0.009800   -0.059300
      5          6           0       -1.321760    1.308770    0.288980
      6          7           0       -0.083750    1.680200    0.731540
      7          6           0        1.199190    0.958530    0.515650
      8          1           0        1.947290    1.473550    1.173730
      9          6           0        1.774580    1.031740   -0.920500
     10          6           0        3.215750    0.487970   -0.921840
     11          6           0        3.272990   -0.928700   -0.328170
     12          6           0        2.603570   -0.984400    1.062330
     13          6           0        1.131760   -0.490350    1.008060
     14          1           0        0.717210   -0.535050    2.042760
     15          7           0        0.373180   -1.398920    0.145300
     16          6           0       -0.905980   -1.246260    0.023160
     17          1           0       -2.060280    2.121770    0.192100
     18          1           0        0.145930    2.668930    0.857870
     19          1           0        1.145160    0.435250   -1.614920
     20          1           0        1.778300    2.083400   -1.277790
     21          1           0        3.616280    0.477980   -1.959180
     22          1           0        3.860590    1.159230   -0.311890
     23          1           0        2.748160   -1.630560   -1.015120
     24          1           0        4.330180   -1.263890   -0.250550
     25          1           0        2.625700   -2.030980    1.437660
     26          1           0        3.179700   -0.357870    1.775050
     27          1           0       -1.478640   -2.146490   -0.244130
 ---------------------------------------------------------------------
                    Distance matrix (angstroms):
                    1          2          3          4          5
     1  O    0.000000
     2  N    1.229682   0.000000
     3  O    2.167502   1.231907   0.000000
     4  C    2.370946   1.532220   2.382843   0.000000
     5  C    3.582195   2.480916   2.741830   1.399957   0.000000
     6  N    4.809517   3.791591   4.098767   2.462228   1.366195
     7  C    5.428695   4.613093   5.168002   3.114161   2.555237
     8  H    6.466525   5.620665   6.105061   4.128398   3.390667
     9  C    5.846956   5.074597   5.569569   3.732702   3.335702
    10  C    7.037946   6.407248   7.019778   5.024175   4.767473
    11  C    6.887641   6.476917   7.310609   5.078390   5.147706
    12  C    6.454344   6.039221   6.924286   4.567192   4.611390
    13  C    5.090785   4.575067   5.429731   3.077153   3.126287
    14  H    5.170241   4.680273   5.527557   3.257325   3.260800
    15  N    4.062117   3.809925   4.847281   2.523653   3.197663
    16  C    2.788233   2.572111   3.685259   1.493997   2.602251
    17  H    3.833020   2.617701   2.358043   2.155421   1.102618
    18  H    5.656280   4.555039   4.638657   3.370337   2.080333
    19  H    5.118798   4.459975   5.020656   3.279754   3.236289
    20  H    6.360412   5.452810   5.716368   4.237631   3.558819
    21  H    7.524964   6.937175   7.506183   5.674966   5.488959
    22  H    7.852541   7.134401   7.674665   5.694211   5.219211
    23  H    6.360860   6.102486   7.009617   4.846197   5.186963
    24  H    7.938980   7.572129   8.420873   6.176638   6.233306
    25  H    6.625684   6.399978   7.402046   5.020943   5.296776
    26  H    7.274868   6.751761   7.542726   5.236014   5.024862
    27  H    2.337594   2.634738   3.855977   2.176601   3.499663
                    6          7          8          9         10
     6  N    0.000000
     7  C    1.487734   0.000000
     8  H    2.088866   1.121592   0.000000
     9  C    2.569655   1.548858   2.147283   0.000000
    10  C    3.878373   2.520777   2.640411   1.540344   0.000000
    11  C    4.381444   2.928193   3.127937   2.537600   1.537099
    12  C    3.798842   2.458886   2.546494   2.946805   2.545500
    13  C    2.503041   1.531753   2.132941   2.539551   3.004104
    14  H    2.695954   2.189783   2.510535   3.514793   4.009754
    15  N    3.167561   2.525277   3.433158   3.001326   3.574821
    16  C    3.121223   3.087942   4.106376   3.642139   4.570474
    17  H    2.095865   3.475911   4.176650   4.139106   5.634417
    18  H    1.022888   2.037631   2.184857   2.914703   4.165063
    19  H    2.926772   2.194555   3.081890   1.110941   2.184143
    20  H    2.768972   2.194796   2.531882   1.110702   2.176777
    21  H    4.730278   3.492569   3.686708   2.185718   1.112024
    22  H    4.113146   2.794307   2.442659   2.176717   1.112856
    23  H    4.693790   3.383187   3.881747   2.836310   2.171523
    24  H    5.395827   3.915266   3.898758   3.499977   2.182109
    25  H    4.648933   3.438343   3.579334   3.957976   3.501501
    26  H    3.986571   2.690988   2.287907   3.342360   2.826652
    27  H    4.188222   4.170035   5.181893   4.598050   5.425585
                   11         12         13         14         15
    11  C    0.000000
    12  C    1.544253   0.000000
    13  C    2.561743   1.553466   0.000000
    14  H    3.508316   2.172904   1.115551   0.000000
    15  N    2.975597   2.446919   1.464684   2.113051   0.000000
    16  C    4.205718   3.669521   2.386171   2.686885   1.294015
    17  H    6.166021   5.670722   4.204531   4.265921   4.280091
    18  H    4.912040   4.407791   3.312924   3.463497   4.136037
    19  H    2.836150   3.363039   2.781535   3.808313   2.656785
    20  H    3.494084   3.945710   3.502472   4.359845   4.015732
    21  H    2.181007   3.506232   3.989363   5.044439   4.297591
    22  H    2.169099   2.839671   3.451072   4.277359   4.349159
    23  H    1.113532   2.180419   2.829503   3.830865   2.653443
    24  H    1.111768   2.186996   3.523117   4.340971   3.979043
    25  H    2.179945   1.112067   2.188596   2.499257   2.672740
    26  H    2.181303   1.110151   2.190863   2.483328   3.408288
    27  H    4.905921   4.440915   3.335411   3.556454   2.034639
                   16         17         18         19         20
    16  C    0.000000
    17  H    3.564348   0.000000
    18  H    4.139078   2.368543   0.000000
    19  H    3.117364   4.047779   3.478861   0.000000
    20  H    4.470399   4.110565   2.751094   1.797476   0.000000
    21  H    5.230058   6.289148   4.977887   2.495351   2.533740
    22  H    5.349657   6.019733   4.176869   3.097676   2.474467
    23  H    3.818174   6.217592   5.363330   2.682711   3.847483
    24  H    5.243339   7.245455   5.848386   3.859137   4.332628
    25  H    3.884502   6.383977   5.345519   4.194345   5.001987
    26  H    4.533336   6.009304   4.382522   4.032405   4.152536
    27  H    1.099908   4.329740   5.200183   3.927948   5.437654
                   21         22         23         24         25
    21  H    0.000000
    22  H    1.799265   0.000000
    23  H    2.467959   3.084633   0.000000
    24  H    2.542279   2.468965   1.794938   0.000000
    25  H    4.337586   3.842306   2.488265   2.518677   0.000000
    26  H    3.851457   2.668431   3.096936   2.499506   1.794448
    27  H    5.982261   6.280108   4.327407   5.875493   4.437045
                   26         27
    26  H    0.000000
    27  H    5.382971   0.000000
 Symmetry turned off by external request.
 Stoichiometry    C9H13N3O2
 Framework group  C1[X(C9H13N3O2)]
 Deg. of freedom    75
 Full point group                 C1      NOp   1
 Rotational constants (GHZ):           1.5584971           0.4090161           0.3686856
 Standard basis: 6-31G(d) (6D, 7F)
   236 basis functions,   444 primitive gaussians,   236 cartesian basis functions
    52 alpha electrons       52 beta electrons
       nuclear repulsion energy       918.9068070257 Hartrees.
 NAtoms=   27 NActive=   27 NUniq=   27 SFac= 1.00D+00 NAtFMM=   60 NAOKFM=F Big=F
 Integral buffers will be    131072 words long.
 Raffenetti 1 integral format.
 Two-electron integral symmetry is turned off.
 One-electron integrals computed using PRISM.
 NBasis=   236 RedAO= T EigKep=  1.30D-03  NBF=   236
 NBsUse=   236 1.00D-06 EigRej= -1.00D+00 NBFU=   236
 ExpMin= 1.61D-01 ExpMax= 5.48D+03 ExpMxC= 8.25D+02 IAcc=3 IRadAn=         5 AccDes= 0.00D+00
 Harris functional with IExCor=  205 and IRadAn=       5 diagonalized for initial guess.
 HarFok:  IExCor=  205 AccDes= 0.00D+00 IRadAn=         5 IDoV= 1 UseB2=F ITyADJ=14
 ICtDFT=  3500011 ScaDFX=  1.000000  1.000000  1.000000  1.000000
 FoFCou: FMM=F IPFlag=           0 FMFlag=      100000 FMFlg1=           0
         NFxFlg=           0 DoJE=T BraDBF=F KetDBF=T FulRan=T
         wScrn=  0.000000 ICntrl=       500 IOpCl=  0 I1Cent=   200000004 NGrid=           0
         NMat0=    1 NMatS0=      1 NMatT0=    0 NMatD0=    1 NMtDS0=    0 NMtDT0=    0
 Symmetry not used in FoFCou.
 Keep R1 ints in memory in canonical form, NReq=397720213.
 Requested convergence on RMS density matrix=1.00D-08 within 128 cycles.
 Requested convergence on MAX density matrix=1.00D-06.
 Requested convergence on             energy=1.00D-06.
 No special actions if energy rises.
 SCF Done:  E(RHF) =  -661.268507846     A.U. after   16 cycles
            NFock= 16  Conv=0.76D-08     -V/T= 2.0036
 ExpMin= 1.61D-01 ExpMax= 5.48D+03 ExpMxC= 8.25D+02 IAcc=3 IRadAn=         5 AccDes= 0.00D+00
 HarFok:  IExCor=  205 AccDes= 0.00D+00 IRadAn=         5 IDoV=-2 UseB2=F ITyADJ=14
 ICtDFT= 12500011 ScaDFX=  1.000000  1.000000  1.000000  1.000000
 Range of M.O.s used for correlation:    15   236
 NBasis=   236 NAE=    52 NBE=    52 NFC=    14 NFV=     0
 NROrb=    222 NOA=    38 NOB=    38 NVA=   184 NVB=   184
 Fully direct method using O(ONN) memory.
 JobTyp=1 Pass  1:  I=  15 to  52 NPSUse=  4 ParTrn=T ParDer=T DoDerP=T.
 Spin components of T(2) and E(2):
     alpha-alpha T2 =       0.9222981505D-01 E2=     -0.2721005239D+00
     alpha-beta  T2 =       0.5003147525D+00 E2=     -0.1494342082D+01
     beta-beta   T2 =       0.9222981505D-01 E2=     -0.2721005239D+00
 ANorm=    0.1297988591D+01
 E2 =    -0.2038543129D+01 EUMP2 =    -0.66330705097537D+03
          IDoAtm=111111111111111111111111111
          Differentiating once with respect to electric field.
                with respect to dipole field.
          Differentiating once with respect to nuclear coordinates.
 Keep R1 ints in memory in canonical form, NReq=397723379.
          There are     1 degrees of freedom in the 1st order CPHF.  IDoFFX=0 NUNeed=     1.
 LinEq1:  Iter=  0 NonCon=     1 RMS=4.70D-03 Max=1.34D-01 NDo=     1
 AX will form     1 AO Fock derivatives at one time.
 LinEq1:  Iter=  1 NonCon=     1 RMS=1.60D-03 Max=4.67D-02 NDo=     1
 LinEq1:  Iter=  2 NonCon=     1 RMS=6.64D-04 Max=2.19D-02 NDo=     1
 LinEq1:  Iter=  3 NonCon=     1 RMS=3.04D-04 Max=1.01D-02 NDo=     1
 LinEq1:  Iter=  4 NonCon=     1 RMS=9.80D-05 Max=2.86D-03 NDo=     1
 LinEq1:  Iter=  5 NonCon=     1 RMS=4.08D-05 Max=1.80D-03 NDo=     1
 LinEq1:  Iter=  6 NonCon=     1 RMS=1.68D-05 Max=5.08D-04 NDo=     1
 LinEq1:  Iter=  7 NonCon=     1 RMS=6.45D-06 Max=9.09D-05 NDo=     1
 LinEq1:  Iter=  8 NonCon=     1 RMS=2.56D-06 Max=5.64D-05 NDo=     1
 LinEq1:  Iter=  9 NonCon=     1 RMS=9.88D-07 Max=3.07D-05 NDo=     1
 LinEq1:  Iter= 10 NonCon=     1 RMS=4.60D-07 Max=1.26D-05 NDo=     1
 LinEq1:  Iter= 11 NonCon=     1 RMS=1.81D-07 Max=4.89D-06 NDo=     1
 LinEq1:  Iter= 12 NonCon=     1 RMS=6.56D-08 Max=1.29D-06 NDo=     1
 LinEq1:  Iter= 13 NonCon=     1 RMS=2.13D-08 Max=4.91D-07 NDo=     1
 LinEq1:  Iter= 14 NonCon=     1 RMS=6.99D-09 Max=1.86D-07 NDo=     1
 LinEq1:  Iter= 15 NonCon=     1 RMS=2.50D-09 Max=6.75D-08 NDo=     1
 LinEq1:  Iter= 16 NonCon=     1 RMS=8.52D-10 Max=1.33D-08 NDo=     1
 LinEq1:  Iter= 17 NonCon=     1 RMS=2.88D-10 Max=5.87D-09 NDo=     1
 LinEq1:  Iter= 18 NonCon=     1 RMS=9.94D-11 Max=1.34D-09 NDo=     1
 LinEq1:  Iter= 19 NonCon=     0 RMS=3.39D-11 Max=7.09D-10 NDo=     1
 Linear equations converged to 1.000D-10 1.000D-09 after    19 iterations.
 End of Minotr F.D. properties file   721 does not exist.
 End of Minotr F.D. properties file   722 does not exist.
 End of Minotr F.D. properties file   788 does not exist.

 **********************************************************************

            Population analysis using the SCF Density.

 **********************************************************************

 Alpha  occ. eigenvalues --  -20.59788 -20.59483 -15.85359 -15.63658 -15.55812
 Alpha  occ. eigenvalues --  -11.35926 -11.30646 -11.30243 -11.29863 -11.27504
 Alpha  occ. eigenvalues --  -11.24598 -11.23864 -11.23178 -11.22835  -1.58519
 Alpha  occ. eigenvalues --   -1.37990  -1.29060  -1.22323  -1.13217  -1.08410
 Alpha  occ. eigenvalues --   -1.01590  -1.00669  -0.93691  -0.88886  -0.84807
 Alpha  occ. eigenvalues --   -0.81497  -0.78000  -0.76927  -0.74306  -0.71274
 Alpha  occ. eigenvalues --   -0.70277  -0.69851  -0.67350  -0.63827  -0.63497
 Alpha  occ. eigenvalues --   -0.61930  -0.59630  -0.57381  -0.56413  -0.54757
 Alpha  occ. eigenvalues --   -0.54262  -0.50533  -0.49607  -0.48649  -0.47830
 Alpha  occ. eigenvalues --   -0.47786  -0.46514  -0.45086  -0.44078  -0.42288
 Alpha  occ. eigenvalues --   -0.38440  -0.33386
 Alpha virt. eigenvalues --    0.07047   0.11147   0.17170   0.21702   0.23746
 Alpha virt. eigenvalues --    0.24316   0.25995   0.27926   0.28569   0.28913
 Alpha virt. eigenvalues --    0.30633   0.31605   0.31837   0.32470   0.33118
 Alpha virt. eigenvalues --    0.34014   0.34716   0.35942   0.37598   0.39259
 Alpha virt. eigenvalues --    0.40209   0.41172   0.43901   0.45024   0.45339
 Alpha virt. eigenvalues --    0.47243   0.49865   0.53423   0.57588   0.59139
 Alpha virt. eigenvalues --    0.62928   0.68042   0.69647   0.72660   0.74005
 Alpha virt. eigenvalues --    0.74965   0.75685   0.76548   0.77890   0.78572
 Alpha virt. eigenvalues --    0.81196   0.81831   0.84195   0.84971   0.87776
 Alpha virt. eigenvalues --    0.88242   0.90852   0.92423   0.92875   0.93528
 Alpha virt. eigenvalues --    0.95374   0.97596   0.99010   1.01206   1.01948
 Alpha virt. eigenvalues --    1.03262   1.04983   1.05493   1.07034   1.08471
 Alpha virt. eigenvalues --    1.09920   1.10824   1.11722   1.12602   1.12855
 Alpha virt. eigenvalues --    1.13410   1.14625   1.14704   1.15638   1.16657
 Alpha virt. eigenvalues --    1.17528   1.19309   1.21219   1.22241   1.22708
 Alpha virt. eigenvalues --    1.23315   1.24502   1.26541   1.27165   1.29291
 Alpha virt. eigenvalues --    1.29580   1.31203   1.34678   1.36442   1.39081
 Alpha virt. eigenvalues --    1.41723   1.46590   1.51557   1.52736   1.52863
 Alpha virt. eigenvalues --    1.54897   1.59033   1.61310   1.63249   1.66158
 Alpha virt. eigenvalues --    1.66996   1.67931   1.71610   1.74375   1.75571
 Alpha virt. eigenvalues --    1.80555   1.82282   1.83609   1.86267   1.91571
 Alpha virt. eigenvalues --    1.93252   1.96024   1.98321   1.99597   2.01210
 Alpha virt. eigenvalues --    2.01962   2.03808   2.05338   2.09585   2.11286
 Alpha virt. eigenvalues --    2.11808   2.13079   2.16401   2.18169   2.19446
 Alpha virt. eigenvalues --    2.20636   2.22426   2.24536   2.24803   2.26398
 Alpha virt. eigenvalues --    2.28787   2.31864   2.32897   2.35156   2.37385
 Alpha virt. eigenvalues --    2.39395   2.42177   2.43008   2.44392   2.45934
 Alpha virt. eigenvalues --    2.48408   2.50956   2.52832   2.56342   2.58214
 Alpha virt. eigenvalues --    2.60352   2.62673   2.67747   2.67965   2.68535
 Alpha virt. eigenvalues --    2.69458   2.71365   2.73903   2.74827   2.81739
 Alpha virt. eigenvalues --    2.84192   2.85947   2.89574   2.92011   2.93518
 Alpha virt. eigenvalues --    2.97725   2.98073   3.02077   3.05372   3.07028
 Alpha virt. eigenvalues --    3.09089   3.14634   3.19239   3.22664   3.27324
 Alpha virt. eigenvalues --    3.29957   3.31308   3.37925   3.41788   3.59178
 Alpha virt. eigenvalues --    4.10187   4.22773   4.32291   4.35559   4.44105
 Alpha virt. eigenvalues --    4.51400   4.59461   4.60018   4.70258   4.78309
 Alpha virt. eigenvalues --    4.95420   4.99274   5.04912   5.08652
          Condensed to atoms (all electrons):
               1          2          3          4          5          6
     1  O    8.304110   0.307810  -0.090163  -0.075124   0.003494  -0.000012
     2  N    0.307810   5.678305   0.313089   0.264386  -0.048405   0.000728
     3  O   -0.090163   0.313089   8.326788  -0.087609   0.007899   0.000479
     4  C   -0.075124   0.264386  -0.087609   5.263907   0.561484  -0.054225
     5  C    0.003494  -0.048405   0.007899   0.561484   4.692142   0.318895
     6  N   -0.000012   0.000728   0.000479  -0.054225   0.318895   7.143506
     7  C    0.000001  -0.000109   0.000002   0.007046  -0.030607   0.209464
     8  H   -0.000000   0.000001  -0.000000  -0.000257   0.003068  -0.044307
     9  C    0.000000  -0.000008  -0.000000   0.000604   0.000003  -0.058162
    10  C   -0.000000   0.000000   0.000000  -0.000024  -0.000002   0.003308
    11  C   -0.000000   0.000000  -0.000000  -0.000016   0.000004  -0.000145
    12  C    0.000000   0.000001  -0.000000  -0.000298  -0.000089   0.003977
    13  C   -0.000006   0.000036  -0.000000  -0.007244  -0.001718  -0.055688
    14  H    0.000000  -0.000018   0.000000   0.001326   0.001877  -0.004510
    15  N    0.000386   0.001389  -0.000006  -0.067573  -0.005141   0.002091
    16  C   -0.000954  -0.020419   0.002072   0.306316  -0.043917   0.002335
    17  H    0.000156  -0.004453   0.012427  -0.025050   0.375421  -0.032295
    18  H    0.000000  -0.000032   0.000008   0.001959  -0.026794   0.333308
    19  H   -0.000000  -0.000008  -0.000000  -0.000893   0.001497  -0.000794
    20  H    0.000000   0.000000   0.000000  -0.000027  -0.000082  -0.000013
    21  H   -0.000000  -0.000000  -0.000000   0.000002   0.000001  -0.000063
    22  H   -0.000000   0.000000  -0.000000  -0.000001  -0.000001  -0.000087
    23  H    0.000000  -0.000000   0.000000   0.000024  -0.000001  -0.000023
    24  H    0.000000   0.000000   0.000000  -0.000000  -0.000000   0.000005
    25  H    0.000000  -0.000000   0.000000   0.000026  -0.000001  -0.000078
    26  H    0.000000  -0.000000   0.000000   0.000004  -0.000002  -0.000082
    27  H    0.007280  -0.000195   0.000087  -0.068867   0.002006  -0.000030
               7          8          9         10         11         12
     1  O    0.000001  -0.000000   0.000000  -0.000000  -0.000000   0.000000
     2  N   -0.000109   0.000001  -0.000008   0.000000   0.000000   0.000001
     3  O    0.000002  -0.000000  -0.000000   0.000000  -0.000000  -0.000000
     4  C    0.007046  -0.000257   0.000604  -0.000024  -0.000016  -0.000298
     5  C   -0.030607   0.003068   0.000003  -0.000002   0.000004  -0.000089
     6  N    0.209464  -0.044307  -0.058162   0.003308  -0.000145   0.003977
     7  C    5.070156   0.411486   0.342961  -0.048639  -0.008599  -0.064397
     8  H    0.411486   0.544690  -0.055428   0.000057  -0.000117  -0.003568
     9  C    0.342961  -0.055428   5.168539   0.321245  -0.054074  -0.005036
    10  C   -0.048639   0.000057   0.321245   5.125794   0.332324  -0.060883
    11  C   -0.008599  -0.000117  -0.054074   0.332324   5.125275   0.330326
    12  C   -0.064397  -0.003568  -0.005036  -0.060883   0.330326   5.145870
    13  C    0.303930  -0.037523  -0.056422  -0.000670  -0.046351   0.364208
    14  H   -0.043949  -0.000648   0.003720  -0.000384   0.003962  -0.041612
    15  N   -0.068460   0.004083  -0.009949   0.000989  -0.006494  -0.076290
    16  C    0.000342  -0.000271   0.000267  -0.000092  -0.000042   0.003310
    17  H    0.001534  -0.000064  -0.000004   0.000001  -0.000000   0.000002
    18  H   -0.030637  -0.004897   0.001327  -0.000108   0.000009  -0.000161
    19  H   -0.035536   0.003957   0.389986  -0.034166  -0.002069   0.000489
    20  H   -0.042070  -0.001831   0.397161  -0.036623   0.004125  -0.000396
    21  H    0.004103  -0.000057  -0.036105   0.400190  -0.035762   0.004255
    22  H   -0.004656   0.003574  -0.045418   0.395594  -0.045381  -0.001315
    23  H    0.000529   0.000037  -0.002078  -0.040463   0.396555  -0.037192
    24  H   -0.000152  -0.000109   0.004411  -0.038441   0.400521  -0.037473
    25  H    0.005337  -0.000027  -0.000409   0.004127  -0.033666   0.394430
    26  H   -0.004360   0.001451   0.001114  -0.002459  -0.042704   0.393336
    27  H   -0.000385   0.000008  -0.000034   0.000001   0.000006  -0.000024
              13         14         15         16         17         18
     1  O   -0.000006   0.000000   0.000386  -0.000954   0.000156   0.000000
     2  N    0.000036  -0.000018   0.001389  -0.020419  -0.004453  -0.000032
     3  O   -0.000000   0.000000  -0.000006   0.002072   0.012427   0.000008
     4  C   -0.007244   0.001326  -0.067573   0.306316  -0.025050   0.001959
     5  C   -0.001718   0.001877  -0.005141  -0.043917   0.375421  -0.026794
     6  N   -0.055688  -0.004510   0.002091   0.002335  -0.032295   0.333308
     7  C    0.303930  -0.043949  -0.068460   0.000342   0.001534  -0.030637
     8  H   -0.037523  -0.000648   0.004083  -0.000271  -0.000064  -0.004897
     9  C   -0.056422   0.003720  -0.009949   0.000267  -0.000004   0.001327
    10  C   -0.000670  -0.000384   0.000989  -0.000092   0.000001  -0.000108
    11  C   -0.046351   0.003962  -0.006494  -0.000042  -0.000000   0.000009
    12  C    0.364208  -0.041612  -0.076290   0.003310   0.000002  -0.000161
    13  C    5.017804   0.413204   0.259828  -0.064632  -0.000106   0.004112
    14  H    0.413204   0.516244  -0.032325  -0.010800  -0.000009  -0.000033
    15  N    0.259828  -0.032325   6.972897   0.567082  -0.000080  -0.000133
    16  C   -0.064632  -0.010800   0.567082   4.728445   0.001323  -0.000165
    17  H   -0.000106  -0.000009  -0.000080   0.001323   0.383100  -0.002764
    18  H    0.004112  -0.000033  -0.000133  -0.000165  -0.002764   0.325533
    19  H   -0.005537   0.000053   0.006198   0.001039  -0.000007  -0.000128
    20  H    0.003987  -0.000055   0.000084  -0.000052  -0.000029   0.001606
    21  H   -0.000428   0.000009  -0.000033   0.000003  -0.000000   0.000001
    22  H    0.000348  -0.000040   0.000012   0.000000   0.000000   0.000001
    23  H   -0.005941  -0.000005   0.006538   0.000061   0.000000   0.000000
    24  H    0.004142  -0.000063  -0.000018   0.000005   0.000000  -0.000000
    25  H   -0.034424  -0.002852   0.001832  -0.000072  -0.000000   0.000003
    26  H   -0.045075  -0.000929   0.004219  -0.000037   0.000000  -0.000001
    27  H    0.004600  -0.000108  -0.041940   0.405012  -0.000065   0.000000
              19         20         21         22         23         24
     1  O   -0.000000   0.000000  -0.000000  -0.000000   0.000000   0.000000
     2  N   -0.000008   0.000000  -0.000000   0.000000  -0.000000   0.000000
     3  O   -0.000000   0.000000  -0.000000  -0.000000   0.000000   0.000000
     4  C   -0.000893  -0.000027   0.000002  -0.000001   0.000024  -0.000000
     5  C    0.001497  -0.000082   0.000001  -0.000001  -0.000001  -0.000000
     6  N   -0.000794  -0.000013  -0.000063  -0.000087  -0.000023   0.000005
     7  C   -0.035536  -0.042070   0.004103  -0.004656   0.000529  -0.000152
     8  H    0.003957  -0.001831  -0.000057   0.003574   0.000037  -0.000109
     9  C    0.389986   0.397161  -0.036105  -0.045418  -0.002078   0.004411
    10  C   -0.034166  -0.036623   0.400190   0.395594  -0.040463  -0.038441
    11  C   -0.002069   0.004125  -0.035762  -0.045381   0.396555   0.400521
    12  C    0.000489  -0.000396   0.004255  -0.001315  -0.037192  -0.037473
    13  C   -0.005537   0.003987  -0.000428   0.000348  -0.005941   0.004142
    14  H    0.000053  -0.000055   0.000009  -0.000040  -0.000005  -0.000063
    15  N    0.006198   0.000084  -0.000033   0.000012   0.006538  -0.000018
    16  C    0.001039  -0.000052   0.000003   0.000000   0.000061   0.000005
    17  H   -0.000007  -0.000029  -0.000000   0.000000   0.000000   0.000000
    18  H   -0.000128   0.001606   0.000001   0.000001   0.000000  -0.000000
    19  H    0.505075  -0.023578  -0.002517   0.003773   0.001735  -0.000077
    20  H   -0.023578   0.544688  -0.002679  -0.002902  -0.000050  -0.000090
    21  H   -0.002517  -0.002679   0.525317  -0.024709  -0.002851  -0.002058
    22  H    0.003773  -0.002902  -0.024709   0.569535   0.004084  -0.003498
    23  H    0.001735  -0.000050  -0.002851   0.004084   0.512356  -0.024840
    24  H   -0.000077  -0.000090  -0.002058  -0.003498  -0.024840   0.539742
    25  H   -0.000028   0.000011  -0.000086  -0.000083  -0.002056  -0.002431
    26  H    0.000025  -0.000035  -0.000071   0.002452   0.003886  -0.002782
    27  H    0.000058   0.000000  -0.000000   0.000000  -0.000018  -0.000000
              25         26         27
     1  O    0.000000   0.000000   0.007280
     2  N   -0.000000  -0.000000  -0.000195
     3  O    0.000000   0.000000   0.000087
     4  C    0.000026   0.000004  -0.068867
     5  C   -0.000001  -0.000002   0.002006
     6  N   -0.000078  -0.000082  -0.000030
     7  C    0.005337  -0.004360  -0.000385
     8  H   -0.000027   0.001451   0.000008
     9  C   -0.000409   0.001114  -0.000034
    10  C    0.004127  -0.002459   0.000001
    11  C   -0.033666  -0.042704   0.000006
    12  C    0.394430   0.393336  -0.000024
    13  C   -0.034424  -0.045075   0.004600
    14  H   -0.002852  -0.000929  -0.000108
    15  N    0.001832   0.004219  -0.041940
    16  C   -0.000072  -0.000037   0.405012
    17  H   -0.000000   0.000000  -0.000065
    18  H    0.000003  -0.000001   0.000000
    19  H   -0.000028   0.000025   0.000058
    20  H    0.000011  -0.000035   0.000000
    21  H   -0.000086  -0.000071  -0.000000
    22  H   -0.000083   0.002452   0.000000
    23  H   -0.002056   0.003886  -0.000018
    24  H   -0.002431  -0.002782  -0.000000
    25  H    0.509928  -0.023311  -0.000020
    26  H   -0.023311   0.566987   0.000001
    27  H   -0.000020   0.000001   0.439128
 Mulliken charges:
               1
     1  O   -0.456978
     2  N    0.507903
     3  O   -0.485071
     4  C   -0.019875
     5  C    0.188971
     6  N   -0.767579
     7  C    0.025666
     8  H    0.176693
     9  C   -0.308213
    10  C   -0.320677
    11  C   -0.317688
    12  C   -0.311467
    13  C   -0.014434
    14  H    0.197945
    15  N   -0.519186
    16  C    0.123842
    17  H    0.290961
    18  H    0.397983
    19  H    0.191450
    20  H    0.158850
    21  H    0.173540
    22  H    0.148719
    23  H    0.189714
    24  H    0.163207
    25  H    0.183853
    26  H    0.148370
    27  H    0.253499
 Sum of Mulliken charges =  -0.00000
 Mulliken charges with hydrogens summed into heavy atoms:
               1
     1  O   -0.456978
     2  N    0.507903
     3  O   -0.485071
     4  C   -0.019875
     5  C    0.479932
     6  N   -0.369595
     7  C    0.202359
     9  C    0.042087
    10  C    0.001583
    11  C    0.035233
    12  C    0.020756
    13  C    0.183512
    15  N   -0.519186
    16  C    0.377341
 Electronic spatial extent (au):  <R**2>=           3070.7597
 Charge=             -0.0000 electrons
 Dipole moment (field-independent basis, Debye):
    X=              5.1254    Y=              4.3832    Z=              2.2125  Tot=              7.0977
 Quadrupole moment (field-independent basis, Debye-Ang):
   XX=           -103.1560   YY=            -79.8052   ZZ=            -83.8156
   XY=             -0.0703   XZ=             -5.5394   YZ=              1.6705
 Traceless Quadrupole moment (field-independent basis, Debye-Ang):
   XX=            -14.2304   YY=              9.1204   ZZ=              5.1100
   XY=             -0.0703   XZ=             -5.5394   YZ=              1.6705
 Octapole moment (field-independent basis, Debye-Ang**2):
  XXX=             82.2613  YYY=             31.7180  ZZZ=              7.2260  XYY=             -5.3800
  XXY=              5.5125  XXZ=             30.5294  XZZ=             -1.7155  YZZ=             -1.5943
  YYZ=             11.7582  XYZ=             -0.0172
 Hexadecapole moment (field-independent basis, Debye-Ang**3):
 XXXX=          -3330.5040 YYYY=           -617.3873 ZZZZ=           -370.2941 XXXY=              8.0683
 XXXZ=           -198.8025 YYYX=             24.0306 YYYZ=             32.2883 ZZZX=            -95.3645
 ZZZY=             12.3859 XXYY=           -628.5548 XXZZ=           -560.7765 YYZZ=           -176.2399
 XXYZ=             10.3489 YYXZ=            -36.5159 ZZXY=             12.6391
 N-N= 9.189068070257D+02 E-N=-3.383895096834D+03  KE= 6.588902526000D+02
 Calling FoFJK, ICntrl=  10002127 FMM=F ISym2X=0 I1Cent= 0 IOpClX= 0 NMat=1 NMatS=1 NMatT=0.
 -------------------------------------------------------------------
 Center     Atomic                   Forces (Hartrees/Bohr)
 Number     Number              X              Y              Z
 -------------------------------------------------------------------
      1        8          -0.000949783   -0.018723914    0.000988939
      2        7           0.037312039    0.006339355    0.013896131
      3        8          -0.002193822    0.016984525   -0.000171030
      4        6          -0.003449067    0.004707965    0.014939747
      5        6           0.000892163   -0.012826154   -0.009500497
      6        7           0.017813547   -0.000761492   -0.010675090
      7        6          -0.001763637    0.007315132    0.008432469
      8        1          -0.013049278   -0.002242596   -0.006095914
      9        6          -0.005184616    0.001388789   -0.002178828
     10        6           0.002648640   -0.001534071    0.000632605
     11        6          -0.001621315   -0.003943951   -0.001442982
     12        6           0.000912133   -0.009562078   -0.002603577
     13        6           0.018027912    0.002177252   -0.007026906
     14        1           0.000796522    0.002600488   -0.012840385
     15        7          -0.001043608   -0.011979232    0.035077585
     16        6          -0.021303572    0.015491041   -0.028695625
     17        1           0.005748712   -0.008820917    0.002534589
     18        1          -0.018425446   -0.002960068   -0.001999100
     19        1           0.003481228    0.005726421    0.006961099
     20        1          -0.002746197   -0.007989593    0.003157136
     21        1          -0.003129635    0.002353490    0.010053993
     22        1          -0.004836028   -0.004090689   -0.006729360
     23        1           0.004895881    0.005809395    0.008321388
     24        1          -0.009749891    0.002111107   -0.001022155
     25        1          -0.001522627    0.010575435   -0.002535194
     26        1          -0.005076705   -0.004664235   -0.003698133
     27        1           0.003516448    0.006518596   -0.007780904
 -------------------------------------------------------------------
 Cartesian Forces:  Max     0.037312039 RMS     0.010263948

 GradGradGradGradGradGradGradGradGradGradGradGradGradGradGradGradGradGrad
 Berny optimization.
 FormGI is forming the generalized inverse of G from B-inverse, IUseBI=4.
 Internal  Forces:  Max     0.037377002 RMS     0.007074182
 Search for a local minimum.
 Step number   1 out of a maximum of   20
 All quantities printed in internal units (Hartrees-Bohrs-Radians)
 Mixed Optimization -- RFO/linear search
 Second derivative matrix not updated -- first step.
 ITU=  0
     Eigenvalues ---    0.00233   0.00778   0.01136   0.01209   0.01358
     Eigenvalues ---    0.01545   0.01583   0.01865   0.02082   0.02114
     Eigenvalues ---    0.02712   0.03684   0.04519   0.04696   0.04841
     Eigenvalues ---    0.05097   0.05137   0.05316   0.05867   0.06238
     Eigenvalues ---    0.07111   0.07650   0.07691   0.07809   0.07979
     Eigenvalues ---    0.08045   0.08053   0.10431   0.11539   0.12002
     Eigenvalues ---    0.12509   0.13999   0.14873   0.15816   0.15999
     Eigenvalues ---    0.20082   0.22205   0.23095   0.24994   0.25000
     Eigenvalues ---    0.25000   0.25444   0.26501   0.26662   0.27972
     Eigenvalues ---    0.28102   0.28535   0.29219   0.31403   0.31961
     Eigenvalues ---    0.32019   0.32229   0.32300   0.32382   0.32387
     Eigenvalues ---    0.32414   0.32501   0.32526   0.32584   0.33222
     Eigenvalues ---    0.33394   0.33692   0.35478   0.43881   0.44368
     Eigenvalues ---    0.50570   0.66925   0.90297   0.912191000.00000
     Eigenvalues --- 1000.000001000.000001000.000001000.000001000.00000
     Eigenvalues --- 1000.000001000.000001000.000001000.000001000.00000
     Eigenvalues --- 1000.000001000.000001000.000001000.000001000.00000
     Eigenvalues --- 1000.000001000.000001000.000001000.000001000.00000
     Eigenvalues --- 1000.000001000.000001000.000001000.000001000.00000
     Eigenvalues --- 1000.000001000.000001000.000001000.000001000.00000
     Eigenvalues --- 1000.000001000.000001000.000001000.000001000.00000
     Eigenvalues --- 1000.000001000.000001000.000001000.000001000.00000
     Eigenvalues --- 1000.000001000.000001000.000001000.000001000.00000
     Eigenvalues --- 1000.000001000.000001000.000001000.000001000.00000
     Eigenvalues --- 1000.000001000.000001000.000001000.000001000.00000
     Eigenvalues --- 1000.000001000.000001000.000001000.000001000.00000
     Eigenvalues --- 1000.000001000.000001000.000001000.000001000.00000
     Eigenvalues --- 1000.000001000.000001000.000001000.000001000.00000
     Eigenvalues --- 1000.000001000.000001000.000001000.000001000.00000
     Eigenvalues --- 1000.000001000.000001000.000001000.000001000.00000
     Eigenvalues --- 1000.000001000.000001000.000001000.000001000.00000
     Eigenvalues --- 1000.000001000.000001000.000001000.000001000.00000
     Eigenvalues --- 1000.00000
 RFO step:  Lambda=-2.85924274D-02 EMin= 2.32842625D-03
 Linear search not attempted -- first point.
 Iteration  1 RMS(Cart)=  0.06524759 RMS(Int)=  0.00215348
 Iteration  2 RMS(Cart)=  0.00272415 RMS(Int)=  0.00096189
 Iteration  3 RMS(Cart)=  0.00000685 RMS(Int)=  0.00096188
 Iteration  4 RMS(Cart)=  0.00000002 RMS(Int)=  0.00096188
 Iteration  1 RMS(Cart)=  0.00021332 RMS(Int)=  0.00013856
 Iteration  2 RMS(Cart)=  0.00012951 RMS(Int)=  0.00015237
 Iteration  3 RMS(Cart)=  0.00008209 RMS(Int)=  0.00017259
 Iteration  4 RMS(Cart)=  0.00005503 RMS(Int)=  0.00018928
 Iteration  5 RMS(Cart)=  0.00003921 RMS(Int)=  0.00020215
 Iteration  6 RMS(Cart)=  0.00002952 RMS(Int)=  0.00021220
 Iteration  7 RMS(Cart)=  0.00002316 RMS(Int)=  0.00022025
 Iteration  8 RMS(Cart)=  0.00001867 RMS(Int)=  0.00022685
 Iteration  9 RMS(Cart)=  0.00001530 RMS(Int)=  0.00023234
 Iteration 10 RMS(Cart)=  0.00001268 RMS(Int)=  0.00023697
 Iteration 11 RMS(Cart)=  0.00001056 RMS(Int)=  0.00024089
 Iteration 12 RMS(Cart)=  0.00000884 RMS(Int)=  0.00024422
 Iteration 13 RMS(Cart)=  0.00000741 RMS(Int)=  0.00024705
 Iteration 14 RMS(Cart)=  0.00000623 RMS(Int)=  0.00024945
 Iteration 15 RMS(Cart)=  0.00000524 RMS(Int)=  0.00025149
 Iteration 16 RMS(Cart)=  0.00000441 RMS(Int)=  0.00025323
 Iteration 17 RMS(Cart)=  0.00000372 RMS(Int)=  0.00025470
 Iteration 18 RMS(Cart)=  0.00000313 RMS(Int)=  0.00025596
 Iteration 19 RMS(Cart)=  0.00000264 RMS(Int)=  0.00025702
 Iteration 20 RMS(Cart)=  0.00000223 RMS(Int)=  0.00025792
 Iteration 21 RMS(Cart)=  0.00000188 RMS(Int)=  0.00025868
 Iteration 22 RMS(Cart)=  0.00000159 RMS(Int)=  0.00025932
 Iteration 23 RMS(Cart)=  0.00000135 RMS(Int)=  0.00025987
 Iteration 24 RMS(Cart)=  0.00000114 RMS(Int)=  0.00026033
 Iteration 25 RMS(Cart)=  0.00000097 RMS(Int)=  0.00026073
 Variable       Old X    -DE/DX   Delta X   Delta X   Delta X     New X
                                 (Linear)    (Quad)   (Total)
    R1        2.32376   0.01753   0.00000   0.01863   0.01863   2.34240
    R2        2.32797   0.01523   0.00000   0.01635   0.01635   2.34431
    R3        2.89548  -0.03738   0.00000  -0.11652  -0.11652   2.77896
    R4        2.64554  -0.03123   0.00000  -0.06654  -0.06625   2.57928
    R5        2.82325  -0.02534   0.00000  -0.07409  -0.07431   2.74893
    R6        2.58173  -0.02029   0.00000  -0.03698  -0.03637   2.54537
    R7        2.08365  -0.01058   0.00000  -0.02918  -0.02918   2.05447
    R8        2.81141  -0.01532   0.00000  -0.03720  -0.03698   2.77443
    R9        1.93298  -0.00725   0.00000  -0.01550  -0.01550   1.91748
   R10        2.11950  -0.01331   0.00000  -0.03885  -0.03885   2.08065
   R11        2.92692  -0.01324   0.00000  -0.04355  -0.04364   2.88328
   R12        2.89459  -0.00074   0.00000   0.00092   0.00089   2.89549
   R13        2.91083  -0.00403   0.00000  -0.01427  -0.01443   2.89640
   R14        2.09937  -0.00940   0.00000  -0.02658  -0.02658   2.07279
   R15        2.09892  -0.00859   0.00000  -0.02427  -0.02427   2.07465
   R16        2.90470  -0.00123   0.00000  -0.00672  -0.00638   2.89832
   R17        2.10142  -0.01053   0.00000  -0.02987  -0.02987   2.07155
   R18        2.10299  -0.00896   0.00000  -0.02548  -0.02548   2.07751
   R19        2.91821  -0.00950   0.00000  -0.03030  -0.03020   2.88802
   R20        2.10427  -0.01110   0.00000  -0.03164  -0.03164   2.07263
   R21        2.10094  -0.00998   0.00000  -0.02829  -0.02829   2.07265
   R22        2.93562  -0.01149   0.00000  -0.03666  -0.03649   2.89913
   R23        2.10150  -0.01084   0.00000  -0.03076  -0.03076   2.07075
   R24        2.09788  -0.00764   0.00000  -0.02156  -0.02156   2.07632
   R25        2.10809  -0.01231   0.00000  -0.03529  -0.03529   2.07279
   R26        2.76785  -0.00366   0.00000  -0.00628  -0.00704   2.76081
   R27        2.44533   0.00121   0.00000   0.00026  -0.00025   2.44508
   R28        2.07852  -0.00528   0.00000  -0.01443  -0.01443   2.06409
    A1        2.15396   0.01117   0.00000   0.03994   0.03993   2.19389
    A2        2.05723  -0.00422   0.00000  -0.01529  -0.01530   2.04193
    A3        2.07163  -0.00690   0.00000  -0.02489  -0.02490   2.04674
    A4        2.01597  -0.01014   0.00000  -0.03519  -0.03538   1.98059
    A5        2.03165  -0.00312   0.00000  -0.01024  -0.01070   2.02095
    A6        2.23537   0.01327   0.00000   0.04703   0.04430   2.27968
    A7        2.19517   0.00530   0.00000   0.02561   0.02507   2.22025
    A8        2.06714  -0.00375   0.00000  -0.01863  -0.01842   2.04873
    A9        2.02077  -0.00155   0.00000  -0.00678  -0.00656   2.01421
   A10        2.21749  -0.00634   0.00000   0.00292   0.00248   2.21997
   A11        2.10165  -0.01262   0.00000  -0.07643  -0.07846   2.02319
   A12        1.86834   0.01917   0.00000   0.10019   0.10114   1.96948
   A13        1.84138  -0.00211   0.00000  -0.01172  -0.01065   1.83074
   A14        2.01748  -0.00196   0.00000  -0.01872  -0.01843   1.99906
   A15        1.95436   0.00286   0.00000  -0.01346  -0.01654   1.93782
   A16        1.84892   0.00377   0.00000   0.03137   0.03098   1.87990
   A17        1.84948   0.00170   0.00000   0.03678   0.03651   1.88599
   A18        1.93814  -0.00371   0.00000  -0.01509  -0.01419   1.92395
   A19        1.90890   0.00017   0.00000  -0.00810  -0.00842   1.90048
   A20        1.92169  -0.00051   0.00000  -0.01318  -0.01308   1.90861
   A21        1.92226  -0.00201   0.00000  -0.00544  -0.00541   1.91685
   A22        1.91771  -0.00089   0.00000   0.00286   0.00254   1.92026
   A23        1.90799   0.00368   0.00000   0.02906   0.02937   1.93736
   A24        1.88515  -0.00041   0.00000  -0.00476  -0.00501   1.88014
   A25        1.93892  -0.00068   0.00000   0.00512   0.00488   1.94380
   A26        1.91875  -0.00091   0.00000  -0.00731  -0.00724   1.91151
   A27        1.90575   0.00036   0.00000  -0.00261  -0.00266   1.90309
   A28        1.91622   0.00047   0.00000   0.00635   0.00639   1.92261
   A29        1.89934   0.00197   0.00000   0.01140   0.01150   1.91084
   A30        1.88388  -0.00118   0.00000  -0.01335  -0.01345   1.87044
   A31        1.94429   0.00191   0.00000   0.00997   0.01004   1.95433
   A32        1.90191  -0.00016   0.00000   0.00417   0.00430   1.90621
   A33        1.91798   0.00050   0.00000   0.00493   0.00478   1.92276
   A34        1.90545  -0.00138   0.00000  -0.01486  -0.01493   1.89052
   A35        1.91609  -0.00095   0.00000  -0.00053  -0.00060   1.91548
   A36        1.87677   0.00000   0.00000  -0.00431  -0.00436   1.87241
   A37        1.94741  -0.00495   0.00000  -0.02586  -0.02556   1.92185
   A38        1.90628   0.00268   0.00000   0.01353   0.01348   1.91976
   A39        1.91002   0.00231   0.00000   0.01831   0.01792   1.92794
   A40        1.90704   0.00118   0.00000  -0.00222  -0.00231   1.90474
   A41        1.91201  -0.00005   0.00000  -0.00125  -0.00108   1.91093
   A42        1.87981  -0.00104   0.00000  -0.00169  -0.00184   1.87797
   A43        1.84455   0.00677   0.00000   0.02108   0.02050   1.86505
   A44        1.93096  -0.00509   0.00000  -0.01845  -0.01867   1.91229
   A45        2.00446  -0.00070   0.00000   0.01100   0.01147   2.01593
   A46        1.88276   0.00206   0.00000   0.02603   0.02619   1.90895
   A47        1.89019  -0.00365   0.00000  -0.03652  -0.03590   1.85429
   A48        1.90607   0.00097   0.00000  -0.00157  -0.00183   1.90424
   A49        2.08792  -0.00172   0.00000   0.01582   0.01383   2.10175
   A50        2.26118  -0.00582   0.00000  -0.02988  -0.03402   2.22716
   A51        1.97607   0.00194   0.00000   0.01209   0.01245   1.98851
   A52        2.02756   0.00437   0.00000   0.03308   0.03351   2.06107
    D1       -2.97820   0.00061   0.00000  -0.08127  -0.07934  -3.05754
    D2        0.14413   0.00151   0.00000   0.00000   0.00000   0.14413
    D3        0.19164  -0.00143   0.00000  -0.07257  -0.07160   0.12003
    D4       -2.96922  -0.00054   0.00000   0.00870   0.00774  -2.96148
    D5       -3.11550   0.00101   0.00000   0.03356   0.03223  -3.08327
    D6        0.01054   0.00160   0.00000   0.04945   0.04780   0.05834
    D7        0.04801   0.00026   0.00000  -0.05800  -0.06096  -0.01295
    D8       -3.10913   0.00084   0.00000  -0.04210  -0.04540   3.12865
    D9        2.87262   0.00727   0.00000   0.09362   0.09044   2.96306
   D10       -0.05329   0.00375   0.00000   0.00000   0.00000  -0.05329
   D11       -0.29106   0.00795   0.00000   0.18562   0.18514  -0.10592
   D12        3.06622   0.00444   0.00000   0.09200   0.09470  -3.12226
   D13        0.39007  -0.00296   0.00000  -0.06662  -0.06840   0.32167
   D14        3.01446   0.00265   0.00000   0.02664   0.02295   3.03741
   D15       -2.73633  -0.00352   0.00000  -0.08204  -0.08360  -2.81994
   D16       -0.11195   0.00210   0.00000   0.01122   0.00775  -0.10420
   D17       -2.97395   0.00013   0.00000   0.05980   0.06114  -2.91281
   D18        1.27304  -0.00204   0.00000   0.03919   0.04014   1.31318
   D19       -0.96995   0.00234   0.00000   0.09006   0.09012  -0.87982
   D20        0.62993   0.00183   0.00000   0.01577   0.01382   0.64375
   D21       -1.40626  -0.00034   0.00000  -0.00484  -0.00718  -1.41344
   D22        2.63394   0.00404   0.00000   0.04603   0.04280   2.67674
   D23        2.94786   0.00306   0.00000   0.05048   0.05146   2.99931
   D24       -1.22645   0.00174   0.00000   0.04058   0.04132  -1.18514
   D25        0.85062  -0.00033   0.00000   0.02313   0.02394   0.87457
   D26        0.91591   0.00421   0.00000   0.05421   0.05436   0.97026
   D27        3.02478   0.00289   0.00000   0.04431   0.04422   3.06900
   D28       -1.18132   0.00082   0.00000   0.02686   0.02684  -1.15448
   D29       -1.08438   0.00194   0.00000   0.00089   0.00073  -1.08364
   D30        1.02450   0.00062   0.00000  -0.00901  -0.00941   1.01509
   D31        3.10158  -0.00145   0.00000  -0.02646  -0.02678   3.07480
   D32       -2.89158  -0.00146   0.00000  -0.02460  -0.02395  -2.91552
   D33       -0.85803   0.00222   0.00000   0.00869   0.00895  -0.84908
   D34        1.30938  -0.00117   0.00000   0.00000   0.00001   1.30939
   D35       -0.89254  -0.00157   0.00000  -0.02411  -0.02427  -0.91680
   D36        1.14101   0.00211   0.00000   0.00918   0.00863   1.14964
   D37       -2.97477  -0.00128   0.00000   0.00048  -0.00031  -2.97508
   D38        1.10740   0.00200   0.00000   0.02584   0.02595   1.13335
   D39        3.14094   0.00567   0.00000   0.05913   0.05884  -3.08340
   D40       -0.97483   0.00229   0.00000   0.05043   0.04990  -0.92493
   D41        0.95665   0.00122   0.00000   0.00000   0.00000   0.95665
   D42        3.08127   0.00074   0.00000   0.00646   0.00637   3.08764
   D43       -1.13825  -0.00102   0.00000  -0.01565  -0.01565  -1.15390
   D44       -1.15465   0.00231   0.00000   0.01960   0.01977  -1.13488
   D45        0.96997   0.00183   0.00000   0.02606   0.02614   0.99611
   D46        3.03364   0.00007   0.00000   0.00395   0.00412   3.03776
   D47        3.06259   0.00113   0.00000   0.00626   0.00629   3.06888
   D48       -1.09597   0.00064   0.00000   0.01272   0.01266  -1.08331
   D49        0.96770  -0.00112   0.00000  -0.00939  -0.00936   0.95834
   D50       -0.92192  -0.00101   0.00000   0.00000   0.00000  -0.92191
   D51        1.18144  -0.00163   0.00000  -0.00948  -0.00944   1.17200
   D52       -3.04943  -0.00144   0.00000  -0.00940  -0.00940  -3.05883
   D53       -3.04801   0.00028   0.00000   0.00152   0.00154  -3.04647
   D54       -0.94465  -0.00034   0.00000  -0.00796  -0.00790  -0.95255
   D55        1.10766  -0.00015   0.00000  -0.00788  -0.00786   1.09980
   D56        1.17678   0.00027   0.00000   0.00729   0.00730   1.18409
   D57       -3.00304  -0.00035   0.00000  -0.00218  -0.00214  -3.00518
   D58       -0.95073  -0.00015   0.00000  -0.00211  -0.00210  -0.95283
   D59        0.98859  -0.00166   0.00000  -0.00902  -0.00891   0.97968
   D60        3.09882  -0.00157   0.00000  -0.01936  -0.01932   3.07951
   D61       -1.13041   0.00006   0.00000  -0.00294  -0.00272  -1.13313
   D62       -1.11270  -0.00176   0.00000  -0.01075  -0.01069  -1.12338
   D63        0.99754  -0.00167   0.00000  -0.02109  -0.02110   0.97644
   D64        3.05149  -0.00003   0.00000  -0.00466  -0.00450   3.04699
   D65        3.11719  -0.00041   0.00000   0.00352   0.00354   3.12073
   D66       -1.05576  -0.00032   0.00000  -0.00682  -0.00687  -1.06262
   D67        0.99819   0.00132   0.00000   0.00960   0.00973   1.00792
   D68       -1.05435  -0.00020   0.00000  -0.00875  -0.00842  -1.06277
   D69       -3.12032   0.00118   0.00000  -0.01110  -0.01107  -3.13139
   D70        1.10189   0.00088   0.00000  -0.00368  -0.00320   1.09869
   D71        3.11905  -0.00117   0.00000  -0.00758  -0.00750   3.11155
   D72        1.05308   0.00022   0.00000  -0.00992  -0.01015   1.04293
   D73       -1.00790  -0.00008   0.00000  -0.00250  -0.00227  -1.01017
   D74        1.06350  -0.00057   0.00000  -0.00351  -0.00330   1.06020
   D75       -1.00247   0.00081   0.00000  -0.00585  -0.00595  -1.00842
   D76       -3.06345   0.00052   0.00000   0.00157   0.00192  -3.06153
   D77       -1.17218   0.01069   0.00000   0.00000   0.00001  -1.17217
   D78        3.05438   0.00511   0.00000  -0.00794  -0.00763   3.04675
   D79        1.00832   0.00417   0.00000  -0.01762  -0.01780   0.99052
   D80        0.67099  -0.01320   0.00000  -0.13664  -0.13378   0.53721
   D81       -2.69154  -0.00990   0.00000  -0.04316  -0.04263  -2.73417
         Item               Value     Threshold  Converged?
 Maximum Force            0.037377     0.000450     NO 
 RMS     Force            0.006973     0.000300     NO 
 Maximum Displacement     0.298576     0.001800     NO 
 RMS     Displacement     0.065989     0.001200     NO 
 Predicted change in Energy=-1.734392D-02
 GradGradGradGradGradGradGradGradGradGradGradGradGradGradGradGradGradGrad

                          Input orientation:                          
 ---------------------------------------------------------------------
 Center     Atomic      Atomic             Coordinates (Angstroms)
 Number     Number       Type             X           Y           Z
 ---------------------------------------------------------------------
      1          8           0       -3.465148   -1.273718   -0.715120
      2          7           0       -3.037949   -0.131609   -0.492514
      3          8           0       -3.668048    0.923175   -0.663951
      4          6           0       -1.646924   -0.017789   -0.029218
      5          6           0       -1.283715    1.257835    0.292979
      6          7           0       -0.067483    1.684239    0.684429
      7          6           0        1.215352    0.992942    0.505669
      8          1           0        1.920360    1.531613    1.157646
      9          6           0        1.768262    1.040790   -0.915584
     10          6           0        3.189429    0.466786   -0.914724
     11          6           0        3.223197   -0.941098   -0.307245
     12          6           0        2.569666   -0.983964    1.073581
     13          6           0        1.131006   -0.457290    0.992939
     14          1           0        0.677384   -0.483581    1.991273
     15          7           0        0.408542   -1.374839    0.115128
     16          6           0       -0.866652   -1.245068   -0.061409
     17          1           0       -2.050084    2.026531    0.231803
     18          1           0        0.037420    2.687787    0.791536
     19          1           0        1.124139    0.447852   -1.576392
     20          1           0        1.761972    2.075334   -1.282962
     21          1           0        3.576360    0.445132   -1.940157
     22          1           0        3.844629    1.132244   -0.334638
     23          1           0        2.682690   -1.631602   -0.966031
     24          1           0        4.257809   -1.298679   -0.238859
     25          1           0        2.554813   -2.013228    1.449284
     26          1           0        3.142485   -0.377513    1.788655
     27          1           0       -1.433511   -2.122283   -0.381128
 ---------------------------------------------------------------------
                    Distance matrix (angstroms):
                    1          2          3          4          5
     1  O    0.000000
     2  N    1.239542   0.000000
     3  O    2.206836   1.240558   0.000000
     4  C    2.313820   1.470562   2.318025   0.000000
     5  C    3.490512   2.371686   2.590898   1.364898   0.000000
     6  N    4.717242   3.675074   3.919364   2.429161   1.346950
     7  C    5.341831   4.511270   5.021999   3.082256   2.522051
     8  H    6.354591   5.483992   5.909206   4.066301   3.329970
     9  C    5.725881   4.965196   5.443401   3.683711   3.289726
    10  C    6.881322   6.270293   6.877221   4.940571   4.700354
    11  C    6.709021   6.315976   7.147867   4.964662   5.050528
    12  C    6.300983   5.884259   6.750205   4.464223   4.525875
    13  C    4.970780   4.437660   5.261357   2.992467   3.043431
    14  H    5.010933   4.482944   5.283176   3.114763   3.124522
    15  N    3.962955   3.713913   4.744093   2.467258   3.134699
    16  C    2.679616   2.477938   3.593348   1.454674   2.562042
    17  H    3.713585   2.481549   2.153503   2.099980   1.087179
    18  H    5.498319   4.365280   4.354628   3.291016   2.009656
    19  H    4.976660   4.339763   4.901381   3.207702   3.154105
    20  H    6.233890   5.341784   5.585317   4.192089   3.525352
    21  H    7.351054   6.795395   7.371477   5.581100   5.409965
    22  H    7.704950   6.999438   7.522796   5.618986   5.168132
    23  H    6.163355   5.932951   6.852008   4.714612   5.066194
    24  H    7.737669   7.392867   8.242363   6.045701   6.125937
    25  H    6.439833   6.212090   7.198071   4.880813   5.174089
    26  H    7.122702   6.592569   7.354619   5.135416   4.950016
    27  H    2.226918   2.559182   3.787870   2.144361   3.449936
                    6          7          8          9         10
     6  N    0.000000
     7  C    1.468166   0.000000
     8  H    2.049084   1.101034   0.000000
     9  C    2.518735   1.525765   2.135960   0.000000
    10  C    3.827134   2.488240   2.653133   1.532709   0.000000
    11  C    4.324856   2.903925   3.155565   2.532744   1.533724
    12  C    3.771644   2.462691   2.599383   2.949348   2.538137
    13  C    2.473398   1.532227   2.146146   2.508545   2.954692
    14  H    2.638581   2.162533   2.510165   3.458835   3.957068
    15  N    3.147803   2.531769   3.438009   2.957443   3.490775
    16  C    3.126625   3.108859   4.118676   3.591313   4.484460
    17  H    2.062218   3.436042   4.106891   4.107061   5.585681
    18  H    1.014685   2.083685   2.239696   2.936438   4.216554
    19  H    2.839000   2.154164   3.046879   1.096876   2.168775
    20  H    2.714864   2.160918   2.505452   1.097856   2.181893
    21  H    4.658479   3.443330   3.676842   2.161892   1.096219
    22  H    4.080173   2.763805   2.467635   2.158045   1.099373
    23  H    4.613271   3.347718   3.885497   2.824961   2.159317
    24  H    5.334642   3.881030   3.927398   3.482660   2.171428
    25  H    4.597032   3.423686   3.612961   3.941864   3.484500
    26  H    3.971653   2.690361   2.352982   3.348579   2.832544
    27  H    4.182230   4.184198   5.192999   4.532331   5.325371
                   11         12         13         14         15
    11  C    0.000000
    12  C    1.528273   0.000000
    13  C    2.510342   1.534155   0.000000
    14  H    3.460299   2.161775   1.096874   0.000000
    15  N    2.879030   2.396220   1.460960   2.094406   0.000000
    16  C    4.108491   3.628313   2.392254   2.679069   1.293880
    17  H    6.074940   5.577971   4.107071   4.103106   4.198545
    18  H    4.952302   4.469180   3.335866   3.450579   4.135237
    19  H    2.818858   3.340957   2.724113   3.714214   2.587570
    20  H    3.490854   3.945246   3.462951   4.294763   3.961076
    21  H    2.170888   3.484015   3.923924   4.972194   4.191845
    22  H    2.164642   2.843756   3.413624   4.248787   4.277201
    23  H    1.096788   2.142948   2.761213   3.752979   2.531123
    24  H    1.096797   2.161335   3.464414   4.296198   3.866260
    25  H    2.163699   1.095792   2.157875   2.481595   2.606529
    26  H    2.171851   1.098743   2.164619   2.475687   3.357052
    27  H    4.804746   4.408784   3.352165   3.573445   2.048927
                   16         17         18         19         20
    16  C    0.000000
    17  H    3.491397   0.000000
    18  H    4.124586   2.260140   0.000000
    19  H    3.020662   3.979635   3.435891   0.000000
    20  H    4.407599   4.102276   2.766355   1.772465   0.000000
    21  H    5.111441   6.234991   5.001574   2.479057   2.526157
    22  H    5.284168   5.989011   4.264132   3.067802   2.475115
    23  H    3.683148   6.100484   5.361307   2.669410   3.832694
    24  H    5.127813   7.146193   5.896211   3.828741   4.324734
    25  H    3.818205   6.245558   5.373029   4.154330   4.980975
    26  H    4.499841   5.930092   4.475683   4.009799   4.166186
    27  H    1.092271   4.238928   5.164838   3.817829   5.352047
                   21         22         23         24         25
    21  H    0.000000
    22  H    1.766856   0.000000
    23  H    2.461786   3.063920   0.000000
    24  H    2.529756   2.467647   1.766527   0.000000
    25  H    4.309919   3.839271   2.448620   2.502119   0.000000
    26  H    3.843049   2.698286   3.061445   2.490644   1.770902
    27  H    5.841318   6.201037   4.186405   5.752364   4.389651
                   26         27
    26  H    0.000000
    27  H    5.356484   0.000000
 Symmetry turned off by external request.
 Stoichiometry    C9H13N3O2
 Framework group  C1[X(C9H13N3O2)]
 Deg. of freedom    75
 Full point group                 C1      NOp   1
 Rotational constants (GHZ):           1.5854870           0.4294709           0.3842078
 Standard basis: 6-31G(d) (6D, 7F)
   236 basis functions,   444 primitive gaussians,   236 cartesian basis functions
    52 alpha electrons       52 beta electrons
       nuclear repulsion energy       932.9446886872 Hartrees.
 NAtoms=   27 NActive=   27 NUniq=   27 SFac= 1.00D+00 NAtFMM=   60 NAOKFM=F Big=F
 Integral buffers will be    131072 words long.
 Raffenetti 1 integral format.
 Two-electron integral symmetry is turned off.
 One-electron integrals computed using PRISM.
 NBasis=   236 RedAO= T EigKep=  1.03D-03  NBF=   236
 NBsUse=   236 1.00D-06 EigRej= -1.00D+00 NBFU=   236
 Initial guess from the checkpoint file:  "/home/alexey/tmp/Gau-1447769.chk"
 B after Tr=     0.054444    0.004690    0.015768
         Rot=    0.999993   -0.002619   -0.002627    0.000032 Ang=  -0.43 deg.
 ExpMin= 1.61D-01 ExpMax= 5.48D+03 ExpMxC= 8.25D+02 IAcc=3 IRadAn=         5 AccDes= 0.00D+00
 Harris functional with IExCor=  205 and IRadAn=       5 diagonalized for initial guess.
 HarFok:  IExCor=  205 AccDes= 0.00D+00 IRadAn=         5 IDoV= 1 UseB2=F ITyADJ=14
 ICtDFT=  3500011 ScaDFX=  1.000000  1.000000  1.000000  1.000000
 FoFCou: FMM=F IPFlag=           0 FMFlag=      100000 FMFlg1=           0
         NFxFlg=           0 DoJE=T BraDBF=F KetDBF=T FulRan=T
         wScrn=  0.000000 ICntrl=       500 IOpCl=  0 I1Cent=   200000004 NGrid=           0
         NMat0=    1 NMatS0=      1 NMatT0=    0 NMatD0=    1 NMtDS0=    0 NMtDT0=    0
 Symmetry not used in FoFCou.
 Keep R1 ints in memory in canonical form, NReq=397720213.
 Requested convergence on RMS density matrix=1.00D-08 within 128 cycles.
 Requested convergence on MAX density matrix=1.00D-06.
 Requested convergence on             energy=1.00D-06.
 No special actions if energy rises.
 SCF Done:  E(RHF) =  -661.289114741     A.U. after   15 cycles
            NFock= 15  Conv=0.66D-08     -V/T= 2.0025
 ExpMin= 1.61D-01 ExpMax= 5.48D+03 ExpMxC= 8.25D+02 IAcc=3 IRadAn=         5 AccDes= 0.00D+00
 HarFok:  IExCor=  205 AccDes= 0.00D+00 IRadAn=         5 IDoV=-2 UseB2=F ITyADJ=14
 ICtDFT= 12500011 ScaDFX=  1.000000  1.000000  1.000000  1.000000
 Range of M.O.s used for correlation:    15   236
 NBasis=   236 NAE=    52 NBE=    52 NFC=    14 NFV=     0
 NROrb=    222 NOA=    38 NOB=    38 NVA=   184 NVB=   184
 Fully direct method using O(ONN) memory.
 JobTyp=1 Pass  1:  I=  15 to  52 NPSUse=  4 ParTrn=T ParDer=T DoDerP=T.
 Spin components of T(2) and E(2):
     alpha-alpha T2 =       0.9159915768D-01 E2=     -0.2727204065D+00
     alpha-beta  T2 =       0.4923019495D+00 E2=     -0.1488904717D+01
     beta-beta   T2 =       0.9159915768D-01 E2=     -0.2727204065D+00
 ANorm=    0.1294411165D+01
 E2 =    -0.2034345530D+01 EUMP2 =    -0.66332346027079D+03
          IDoAtm=111111111111111111111111111
          Differentiating once with respect to electric field.
                with respect to dipole field.
[...]
    26  H    2.176116   1.098846   2.168686   2.501534   3.360304
    27  H    4.751525   4.398703   3.344547   3.594734   2.027353
                   16         17         18         19         20
    16  C    0.000000
    17  H    3.457457   0.000000
    18  H    4.096350   2.226032   0.000000
    19  H    2.994305   4.230840   3.500302   0.000000
    20  H    4.387645   4.388466   2.879164   1.769295   0.000000
    21  H    5.098472   6.459106   5.084814   2.500166   2.520990
    22  H    5.256747   6.080751   4.318734   3.070655   2.462630
    23  H    3.685963   6.200701   5.414540   2.701241   3.841979
    24  H    5.129872   7.186932   5.937793   3.847924   4.317630
    25  H    3.816642   6.107235   5.368080   4.167727   4.984698
    26  H    4.499380   5.807783   4.488757   4.032764   4.182030
    27  H    1.088955   4.227708   5.127889   3.706304   5.263717
                   21         22         23         24         25
    21  H    0.000000
    22  H    1.758979   0.000000
    23  H    2.469919   3.062812   0.000000
    24  H    2.517480   2.460892   1.764598   0.000000
    25  H    4.311858   3.839943   2.443172   2.519740   0.000000
    26  H    3.847058   2.704912   3.060412   2.493697   1.768530
    27  H    5.746982   6.123444   4.123640   5.710428   4.394791
                   26         27
    26  H    0.000000
    27  H    5.355593   0.000000
 Symmetry turned off by external request.
 Stoichiometry    C9H13N3O2
 Framework group  C1[X(C9H13N3O2)]
 Deg. of freedom    75
 Full point group                 C1      NOp   1
 Rotational constants (GHZ):           1.6594635           0.4190593           0.3748967

 **********************************************************************

            Population analysis using the SCF Density.

 **********************************************************************

 Alpha  occ. eigenvalues --  -20.59267 -20.58921 -15.84810 -15.64431 -15.55767
 Alpha  occ. eigenvalues --  -11.35170 -11.29604 -11.29462 -11.28681 -11.27052
 Alpha  occ. eigenvalues --  -11.23801 -11.23228 -11.22622 -11.22066  -1.57175
 Alpha  occ. eigenvalues --   -1.36739  -1.31160  -1.22842  -1.14714  -1.09780
 Alpha  occ. eigenvalues --   -1.02802  -1.01302  -0.94383  -0.89624  -0.85599
 Alpha  occ. eigenvalues --   -0.82422  -0.78760  -0.77350  -0.75225  -0.72147
 Alpha  occ. eigenvalues --   -0.69642  -0.69531  -0.67883  -0.64630  -0.63887
 Alpha  occ. eigenvalues --   -0.62408  -0.60081  -0.57779  -0.56835  -0.55124
 Alpha  occ. eigenvalues --   -0.54699  -0.50637  -0.50221  -0.48695  -0.48082
 Alpha  occ. eigenvalues --   -0.47337  -0.46352  -0.45781  -0.43759  -0.41883
 Alpha  occ. eigenvalues --   -0.39529  -0.33618
 Alpha virt. eigenvalues --    0.07560   0.11448   0.17194   0.21970   0.24370
 Alpha virt. eigenvalues --    0.25793   0.26759   0.28183   0.29178   0.29404
 Alpha virt. eigenvalues --    0.30879   0.31782   0.32214   0.32815   0.33833
 Alpha virt. eigenvalues --    0.34384   0.36033   0.37317   0.38682   0.40337
 Alpha virt. eigenvalues --    0.41285   0.42739   0.44778   0.46031   0.46806
 Alpha virt. eigenvalues --    0.47407   0.49251   0.54213   0.57612   0.59637
 Alpha virt. eigenvalues --    0.63978   0.69565   0.69749   0.72907   0.74227
 Alpha virt. eigenvalues --    0.74989   0.75793   0.76540   0.78538   0.79417
 Alpha virt. eigenvalues --    0.81122   0.84609   0.85191   0.85652   0.88147
 Alpha virt. eigenvalues --    0.89069   0.90345   0.91723   0.92619   0.94375
 Alpha virt. eigenvalues --    0.96085   0.98137   0.99608   1.01263   1.02165
 Alpha virt. eigenvalues --    1.03343   1.05798   1.07026   1.07805   1.08808
 Alpha virt. eigenvalues --    1.10481   1.11870   1.12125   1.13048   1.14023
 Alpha virt. eigenvalues --    1.14549   1.14951   1.16050   1.17145   1.18653
 Alpha virt. eigenvalues --    1.18968   1.21198   1.22527   1.23616   1.23885
 Alpha virt. eigenvalues --    1.25420   1.26263   1.27005   1.28322   1.28918
 Alpha virt. eigenvalues --    1.30378   1.32949   1.35249   1.37678   1.38834
 Alpha virt. eigenvalues --    1.40519   1.41553   1.47343   1.51224   1.54847
 Alpha virt. eigenvalues --    1.58613   1.59331   1.60402   1.62824   1.66987
 Alpha virt. eigenvalues --    1.69371   1.70678   1.72552   1.75185   1.76409
 Alpha virt. eigenvalues --    1.81395   1.83920   1.87725   1.91327   1.93939
 Alpha virt. eigenvalues --    1.95686   1.95922   2.00198   2.01162   2.02492
 Alpha virt. eigenvalues --    2.04288   2.05089   2.08708   2.10542   2.12668
 Alpha virt. eigenvalues --    2.12946   2.15510   2.18043   2.19913   2.22066
 Alpha virt. eigenvalues --    2.23976   2.24533   2.26015   2.28175   2.29251
 Alpha virt. eigenvalues --    2.31296   2.33125   2.34340   2.36141   2.39517
 Alpha virt. eigenvalues --    2.40108   2.42767   2.42858   2.44586   2.47511
 Alpha virt. eigenvalues --    2.49431   2.51804   2.53274   2.55050   2.61156
 Alpha virt. eigenvalues --    2.62259   2.65044   2.67461   2.69724   2.70567
 Alpha virt. eigenvalues --    2.71770   2.72658   2.75760   2.78151   2.85279
 Alpha virt. eigenvalues --    2.88167   2.89332   2.92592   2.93052   2.96023
 Alpha virt. eigenvalues --    2.99362   3.01393   3.04855   3.06287   3.07745
 Alpha virt. eigenvalues --    3.09808   3.15333   3.20774   3.25032   3.27295
 Alpha virt. eigenvalues --    3.34049   3.37799   3.38746   3.50555   3.65263
 Alpha virt. eigenvalues --    4.13886   4.26648   4.31539   4.39147   4.47251
 Alpha virt. eigenvalues --    4.56159   4.61969   4.62332   4.73512   4.80051
 Alpha virt. eigenvalues --    4.99365   5.00986   5.04885   5.11335
          Condensed to atoms (all electrons):
               1          2          3          4          5          6
     1  O    8.314039   0.304425  -0.081755  -0.080837   0.004346  -0.000015
     2  N    0.304425   5.722803   0.295676   0.266626  -0.051662   0.001040
     3  O   -0.081755   0.295676   8.354033  -0.088397  -0.000318   0.000849
     4  C   -0.080837   0.266626  -0.088397   5.232072   0.534340  -0.048104
     5  C    0.004346  -0.051662  -0.000318   0.534340   4.735442   0.323600
     6  N   -0.000015   0.001040   0.000849  -0.048104   0.323600   7.188019
     7  C    0.000002  -0.000123   0.000001   0.006244  -0.029964   0.168159
     8  H   -0.000000   0.000001   0.000000  -0.000381   0.003263  -0.050109
     9  C   -0.000000  -0.000002  -0.000000   0.001224   0.000002  -0.061296
    10  C   -0.000000   0.000000   0.000000  -0.000051  -0.000034   0.003761
    11  C   -0.000000  -0.000000  -0.000000  -0.000014   0.000018  -0.000187
    12  C    0.000000   0.000002  -0.000000  -0.000187  -0.000168   0.003985
    13  C   -0.000014  -0.000013  -0.000002  -0.011350  -0.000710  -0.050443
    14  H   -0.000001  -0.000093   0.000001   0.002382   0.005506  -0.006958
    15  N    0.000549   0.002032  -0.000017  -0.066058  -0.004510   0.001495
    16  C   -0.001664  -0.027901   0.002860   0.330677  -0.054903  -0.001408
    17  H    0.000271  -0.008106   0.018496  -0.023178   0.375913  -0.034462
    18  H    0.000001  -0.000052   0.000012   0.001561  -0.031784   0.338053
    19  H    0.000001  -0.000012   0.000000  -0.001475   0.001436  -0.000503
    20  H    0.000000  -0.000000   0.000000  -0.000088   0.000135  -0.000393
    21  H   -0.000000   0.000000  -0.000000   0.000001   0.000001  -0.000078
    22  H    0.000000   0.000000  -0.000000  -0.000000  -0.000003  -0.000115
    23  H    0.000000  -0.000000   0.000000   0.000040  -0.000001  -0.000031
    24  H    0.000000  -0.000000   0.000000   0.000000  -0.000000   0.000006
    25  H    0.000000  -0.000000   0.000000   0.000021   0.000000  -0.000093
    26  H    0.000000  -0.000000   0.000000   0.000007  -0.000004  -0.000059
    27  H    0.008467  -0.001403   0.000078  -0.060707   0.002590  -0.000029
               7          8          9         10         11         12
     1  O    0.000002  -0.000000  -0.000000  -0.000000  -0.000000   0.000000
     2  N   -0.000123   0.000001  -0.000002   0.000000  -0.000000   0.000002
     3  O    0.000001   0.000000  -0.000000   0.000000  -0.000000  -0.000000
     4  C    0.006244  -0.000381   0.001224  -0.000051  -0.000014  -0.000187
     5  C   -0.029964   0.003263   0.000002  -0.000034   0.000018  -0.000168
     6  N    0.168159  -0.050109  -0.061296   0.003761  -0.000187   0.003985
     7  C    5.027858   0.417111   0.351365  -0.054801  -0.009263  -0.061304
     8  H    0.417111   0.535921  -0.053963   0.000664  -0.000266  -0.002396
     9  C    0.351365  -0.053963   5.157105   0.325365  -0.050679  -0.005313
    10  C   -0.054801   0.000664   0.325365   5.118668   0.337089  -0.061107
    11  C   -0.009263  -0.000266  -0.050679   0.337089   5.120538   0.336209
    12  C   -0.061304  -0.002396  -0.005313  -0.061107   0.336209   5.119441
    13  C    0.333629  -0.036916  -0.061167  -0.000208  -0.050706   0.372427
    14  H   -0.047532  -0.000672   0.004421  -0.000402   0.004205  -0.036237
    15  N   -0.058656   0.003822  -0.014128   0.001512  -0.013240  -0.083513
    16  C   -0.002358  -0.000023  -0.001118  -0.000038  -0.000021   0.002651
    17  H    0.001579  -0.000046  -0.000072   0.000001   0.000000   0.000000
    18  H   -0.021221  -0.004466   0.001363  -0.000085   0.000004  -0.000116
    19  H   -0.037264   0.004317   0.390633  -0.032007  -0.002163   0.000641
    20  H   -0.042634  -0.002044   0.399338  -0.035082   0.003921  -0.000423
    21  H    0.004627  -0.000075  -0.036435   0.402447  -0.034847   0.004349
    22  H   -0.004926   0.003546  -0.046927   0.397707  -0.045272  -0.001014
    23  H    0.000619   0.000031  -0.001953  -0.039051   0.399201  -0.037932
    24  H   -0.000128  -0.000103   0.004397  -0.038436   0.402361  -0.038556
    25  H    0.005250  -0.000031  -0.000419   0.004191  -0.033267   0.398083
    26  H   -0.003937   0.001638   0.001014  -0.002261  -0.041450   0.396360
    27  H   -0.000317   0.000008  -0.000062   0.000005   0.000009  -0.000035
              13         14         15         16         17         18
     1  O   -0.000014  -0.000001   0.000549  -0.001664   0.000271   0.000001
     2  N   -0.000013  -0.000093   0.002032  -0.027901  -0.008106  -0.000052
     3  O   -0.000002   0.000001  -0.000017   0.002860   0.018496   0.000012
     4  C   -0.011350   0.002382  -0.066058   0.330677  -0.023178   0.001561
     5  C   -0.000710   0.005506  -0.004510  -0.054903   0.375913  -0.031784
     6  N   -0.050443  -0.006958   0.001495  -0.001408  -0.034462   0.338053
     7  C    0.333629  -0.047532  -0.058656  -0.002358   0.001579  -0.021221
     8  H   -0.036916  -0.000672   0.003822  -0.000023  -0.000046  -0.004466
     9  C   -0.061167   0.004421  -0.014128  -0.001118  -0.000072   0.001363
    10  C   -0.000208  -0.000402   0.001512  -0.000038   0.000001  -0.000085
    11  C   -0.050706   0.004205  -0.013240  -0.000021   0.000000   0.000004
    12  C    0.372427  -0.036237  -0.083513   0.002651   0.000000  -0.000116
    13  C    5.036805   0.405387   0.249808  -0.068375  -0.000018   0.003057
    14  H    0.405387   0.527286  -0.037777  -0.005736   0.000062  -0.000122
    15  N    0.249808  -0.037777   6.979673   0.576488  -0.000072  -0.000142
    16  C   -0.068375  -0.005736   0.576488   4.745624   0.002098  -0.000187
    17  H   -0.000018   0.000062  -0.000072   0.002098   0.375736  -0.002868
    18  H    0.003057  -0.000122  -0.000142  -0.000187  -0.002868   0.310198
    19  H   -0.007315   0.000118   0.007734   0.003099   0.000017  -0.000155
    20  H    0.004389  -0.000066   0.000129  -0.000030   0.000001   0.000851
    21  H   -0.000436   0.000010  -0.000043   0.000003  -0.000000   0.000001
    22  H    0.000039  -0.000053   0.000021  -0.000001   0.000000   0.000001
    23  H   -0.007716   0.000004   0.008796   0.000102   0.000000   0.000000
    24  H    0.004707  -0.000058   0.000123   0.000007   0.000000  -0.000000
    25  H   -0.035471  -0.002864   0.000681  -0.000016  -0.000000   0.000002
    26  H   -0.047534  -0.000983   0.004968  -0.000054   0.000000   0.000000
    27  H    0.004655  -0.000192  -0.040567   0.402042  -0.000074   0.000001
              19         20         21         22         23         24
     1  O    0.000001   0.000000  -0.000000   0.000000   0.000000   0.000000
     2  N   -0.000012  -0.000000   0.000000   0.000000  -0.000000  -0.000000
     3  O    0.000000   0.000000  -0.000000  -0.000000   0.000000   0.000000
     4  C   -0.001475  -0.000088   0.000001  -0.000000   0.000040   0.000000
     5  C    0.001436   0.000135   0.000001  -0.000003  -0.000001  -0.000000
     6  N   -0.000503  -0.000393  -0.000078  -0.000115  -0.000031   0.000006
     7  C   -0.037264  -0.042634   0.004627  -0.004926   0.000619  -0.000128
     8  H    0.004317  -0.002044  -0.000075   0.003546   0.000031  -0.000103
     9  C    0.390633   0.399338  -0.036435  -0.046927  -0.001953   0.004397
    10  C   -0.032007  -0.035082   0.402447   0.397707  -0.039051  -0.038436
    11  C   -0.002163   0.003921  -0.034847  -0.045272   0.399201   0.402361
    12  C    0.000641  -0.000423   0.004349  -0.001014  -0.037932  -0.038556
    13  C   -0.007315   0.004389  -0.000436   0.000039  -0.007716   0.004707
    14  H    0.000118  -0.000066   0.000010  -0.000053   0.000004  -0.000058
    15  N    0.007734   0.000129  -0.000043   0.000021   0.008796   0.000123
    16  C    0.003099  -0.000030   0.000003  -0.000001   0.000102   0.000007
    17  H    0.000017   0.000001  -0.000000   0.000000   0.000000   0.000000
    18  H   -0.000155   0.000851   0.000001   0.000001   0.000000  -0.000000
    19  H    0.503543  -0.024700  -0.002774   0.003948   0.001508  -0.000067
    20  H   -0.024700   0.541048  -0.002695  -0.002966  -0.000045  -0.000083
    21  H   -0.002774  -0.002695   0.523535  -0.027356  -0.002876  -0.002245
    22  H    0.003948  -0.002966  -0.027356   0.571058   0.004123  -0.003635
    23  H    0.001508  -0.000045  -0.002876   0.004123   0.498366  -0.025421
    24  H   -0.000067  -0.000083  -0.002245  -0.003635  -0.025421   0.537875
    25  H   -0.000030   0.000012  -0.000086  -0.000081  -0.002306  -0.002313
    26  H    0.000020  -0.000030  -0.000080   0.002366   0.004073  -0.003012
    27  H    0.000094   0.000000  -0.000000   0.000000  -0.000036  -0.000000
              25         26         27
     1  O    0.000000   0.000000   0.008467
     2  N   -0.000000  -0.000000  -0.001403
     3  O    0.000000   0.000000   0.000078
     4  C    0.000021   0.000007  -0.060707
     5  C    0.000000  -0.000004   0.002590
     6  N   -0.000093  -0.000059  -0.000029
     7  C    0.005250  -0.003937  -0.000317
     8  H   -0.000031   0.001638   0.000008
     9  C   -0.000419   0.001014  -0.000062
    10  C    0.004191  -0.002261   0.000005
    11  C   -0.033267  -0.041450   0.000009
    12  C    0.398083   0.396360  -0.000035
    13  C   -0.035471  -0.047534   0.004655
    14  H   -0.002864  -0.000983  -0.000192
    15  N    0.000681   0.004968  -0.040567
    16  C   -0.000016  -0.000054   0.402042
    17  H   -0.000000   0.000000  -0.000074
    18  H    0.000002   0.000000   0.000001
    19  H   -0.000030   0.000020   0.000094
    20  H    0.000012  -0.000030   0.000000
    21  H   -0.000086  -0.000080  -0.000000
    22  H   -0.000081   0.002366   0.000000
    23  H   -0.002306   0.004073  -0.000036
    24  H   -0.002313  -0.003012  -0.000000
    25  H    0.505886  -0.024118  -0.000015
    26  H   -0.024118   0.563612   0.000001
    27  H   -0.000015   0.000001   0.424594
 Mulliken charges:
               1
     1  O   -0.467813
     2  N    0.496761
     3  O   -0.501518
     4  C    0.005633
     5  C    0.187469
     6  N   -0.774683
     7  C    0.057983
     8  H    0.181166
     9  C   -0.302694
    10  C   -0.327848
    11  C   -0.322182
    12  C   -0.305844
    13  C   -0.036508
    14  H    0.190366
    15  N   -0.519108
    16  C    0.098180
    17  H    0.294724
    18  H    0.406091
    19  H    0.191356
    20  H    0.161454
    21  H    0.175052
    22  H    0.149540
    23  H    0.200504
    24  H    0.164580
    25  H    0.186982
    26  H    0.149462
    27  H    0.260891
 Sum of Mulliken charges =  -0.00000
 Mulliken charges with hydrogens summed into heavy atoms:
               1
     1  O   -0.467813
     2  N    0.496761
     3  O   -0.501518
     4  C    0.005633
     5  C    0.482193
     6  N   -0.368592
     7  C    0.239150
     9  C    0.050116
    10  C   -0.003255
    11  C    0.042902
    12  C    0.030600
    13  C    0.153859
    15  N   -0.519108
    16  C    0.359071
 Electronic spatial extent (au):  <R**2>=           2999.9630
 Charge=             -0.0000 electrons
 Dipole moment (field-independent basis, Debye):
    X=              5.3606    Y=              4.6568    Z=              1.7818  Tot=              7.3210
 Quadrupole moment (field-independent basis, Debye-Ang):
   XX=           -105.6870   YY=            -78.6206   ZZ=            -82.3860
   XY=             -0.6347   XZ=             -2.5183   YZ=              1.3267
 Traceless Quadrupole moment (field-independent basis, Debye-Ang):
   XX=            -16.7891   YY=             10.2773   ZZ=              6.5119
   XY=             -0.6347   XZ=             -2.5183   YZ=              1.3267
 Octapole moment (field-independent basis, Debye-Ang**2):
  XXX=             88.7581  YYY=             32.4262  ZZZ=              2.1573  XYY=             -6.9450
  XXY=              5.2261  XXZ=             15.2941  XZZ=             -7.1344  YZZ=              0.7550
  YYZ=             10.0509  XYZ=              2.3030
 Hexadecapole moment (field-independent basis, Debye-Ang**3):
 XXXX=          -3347.8884 YYYY=           -589.8876 ZZZZ=           -323.3258 XXXY=              5.6226
 XXXZ=            -81.2365 YYYX=             10.8519 YYYZ=             20.8332 ZZZX=            -30.0945
 ZZZY=              0.7664 XXYY=           -618.2948 XXZZ=           -533.7183 YYZZ=           -160.8322
 XXYZ=            -10.7910 YYXZ=            -12.2784 ZZXY=              4.4736
 N-N= 9.312357390831D+02 E-N=-3.409180923402D+03  KE= 6.596232361078D+02
 Unable to Open any file for archive entry.
 1\1\GINC-LOTUS\FOpt\RMP2-FC\6-31G(d)\C9H13N3O2\ALEXEY\02-Jul-2023\0\\#
 MP2/6-31G* SCF=Tight Opt=(ModRedun, MaxCycle=20 ) NoSymm\\MolName:\\0,
 1\O,-3.5006445495,-1.2753462527,-0.7027156404\N,-3.105872178,-0.176899
 6737,-0.26749011\O,-3.8592384393,0.8019111932,-0.1005941455\C,-1.69259
 05295,-0.0605318741,0.084556977\C,-1.2943545313,1.2341376334,0.3318897
 831\N,-0.0556239784,1.7283623009,0.4613207232\C,1.2155210247,1.0214751
 652,0.3916804377\H,1.8813426734,1.5606179316,1.0820472446\C,1.86686451
 84,1.0306459065,-0.9894199492\C,3.2738404191,0.4328565373,-0.872127982
 8\C,3.2552585904,-0.9600197286,-0.2366927894\C,2.5070737689,-0.9675074
 805,1.0980807419\C,1.08634996,-0.4234602779,0.903940784\H,0.5384045263
 ,-0.4049108234,1.8586654811\N,0.4175054044,-1.33607586,-0.0176642416\C
 ,-0.8428032335,-1.1770712438,-0.2786002354\H,-2.0872249192,1.970441631
 ,0.4275062095\H,-0.0047422431,2.7195835451,0.6668178025\H,1.2496864107
 ,0.4439871121,-1.6784292241\H,1.9125316845,2.0563368726,-1.3761582732\
 H,3.7425592637,0.3919033609,-1.8620105289\H,3.8922097623,1.106073476,-
 0.261519248\H,2.7558437114,-1.6629746437,-0.9110265295\H,4.2818373303,
 -1.3180539318,-0.0948285535\H,2.4408120919,-1.9876542386,1.4898959201\
 H,3.0395258038,-0.3617524826,1.8444166843\H,-1.3480723425,-2.026074154
 4,-0.7365513377\\Version=ES64L-G16RevC.02\HF=-661.2961204\MP2=-663.331
 4746\RMSD=5.870e-09\RMSF=2.334e-03\Dipole=1.9691032,1.6515099,0.635388
 2\PG=C01 [X(C9H13N3O2)]\\@
 The archive entry for this job was punched.


 NATURE REVEALS EVERY SECRET ONCE.
                    - RALPH WALDO EMERSON
 Job cpu time:       0 days  1 hours 21 minutes  6.6 seconds.
 Elapsed time:       0 days  0 hours 24 minutes 21.0 seconds.
 File lengths (MBytes):  RWF=     36 Int=      0 D2E=      0 Chk=      7 Scr=      1
 Normal termination of Gaussian 16 at Sun Jul  2 05:16:12 2023.
