 Entering Gaussian System, Link 0=g16
 Initial command:
 /home/alexey/programs//g16/l1.exe "/home/alexey/tmp/Gau-1435701.inp" -scrdir="/home/alexey/tmp/"
 Entering Link 1 = /home/alexey/programs//g16/l1.exe PID=   1435703.
  
 Copyright (c) 1988-2021, Gaussian, Inc.  All Rights Reserved.
  
 This is part of the Gaussian(R) 16 program.  It is based on
 the Gaussian(R) 09 system (copyright 2009, Gaussian, Inc.),
 the Gaussian(R) 03 system (copyright 2003, Gaussian, Inc.),
 the Gaussian(R) 98 system (copyright 1998, Gaussian, Inc.),
 the Gaussian(R) 94 system (copyright 1995, Gaussian, Inc.),
 the Gaussian 92(TM) system (copyright 1992, Gaussian, Inc.),
 the Gaussian 90(TM) system (copyright 1990, Gaussian, Inc.),
 the Gaussian 88(TM) system (copyright 1988, Gaussian, Inc.),
 the Gaussian 86(TM) system (copyright 1986, Carnegie Mellon
 University), and the Gaussian 82(TM) system (copyright 1983,
 Carnegie Mellon University). Gaussian is a federally registered
 trademark of Gaussian, Inc.
  
 This software contains proprietary and confidential information,
 including trade secrets, belonging to Gaussian, Inc.
  
 This software is provided under written license and may be
 used, copied, transmitted, or stored only in accord with that
 written license.
  
 The following legend is applicable only to US Government
 contracts under FAR:
  
                    RESTRICTED RIGHTS LEGEND
  
 Use, reproduction and disclosure by the US Government is
 subject to restrictions as set forth in subparagraphs (a)
 and (c) of the Commercial Computer Software - Restricted
 Rights clause in FAR 52.227-19.
  
 Gaussian, Inc.
 340 Quinnipiac St., Bldg. 40, Wallingford CT 06492
  
  
 ---------------------------------------------------------------
 Warning -- This program may not be used in any manner that
 competes with the business of Gaussian, Inc. or will provide
 assistance to any competitor of Gaussian, Inc.  The licensee
 of this program is prohibited from giving any competitor of
 Gaussian, Inc. access to this program.  By using this program,
 the user acknowledges that Gaussian, Inc. is engaged in the
 business of creating and licensing software in the field of
 computational chemistry and represents and warrants to the
 licensee that it is not a competitor of Gaussian, Inc. and that
 it will not use this program in any manner prohibited above.
 ---------------------------------------------------------------
  

 Cite this work as:
 Gaussian 16, Revision C.02,
 M. J. Frisch, G. W. Trucks, H. B. Schlegel, G. E. Scuseria, 
 M. A. Robb, J. R. Cheeseman, G. Scalmani, V. Barone, 
 G. A. Petersson, H. Nakatsuji, X. Li, M. Caricato, A. V. Marenich, 
 J. Bloino, B. G. Janesko, R. Gomperts, B. Mennucci, H. P. Hratchian, 
 J. V. Ortiz, A. F. Izmaylov, J. L. Sonnenberg, D. Williams-Young, 
 F. Ding, F. Lipparini, F. Egidi, J. Goings, B. Peng, A. Petrone, 
 T. Henderson, D. Ranasinghe, V. G. Zakrzewski, J. Gao, N. Rega, 
 G. Zheng, W. Liang, M. Hada, M. Ehara, K. Toyota, R. Fukuda, 
 J. Hasegawa, M. Ishida, T. Nakajima, Y. Honda, O. Kitao, H. Nakai, 
 T. Vreven, K. Throssell, J. A. Montgomery, Jr., J. E. Peralta, 
 F. Ogliaro, M. J. Bearpark, J. J. Heyd, E. N. Brothers, K. N. Kudin, 
 V. N. Staroverov, T. A. Keith, R. Kobayashi, J. Normand, 
 K. Raghavachari, A. P. Rendell, J. C. Burant, S. S. Iyengar, 
 J. Tomasi, M. Cossi, J. M. Millam, M. Klene, C. Adamo, R. Cammi, 
 J. W. Ochterski, R. L. Martin, K. Morokuma, O. Farkas, 
 J. B. Foresman, and D. J. Fox, Gaussian, Inc., Wallingford CT, 2019.
 
 ******************************************
 Gaussian 16:  ES64L-G16RevC.02  7-Dec-2021
                 2-Jul-2023 
 ******************************************
 %mem=8GB
 %NPROCS=4
 Will use up to    4 processors via shared memory.
 %NoSave
 ---------------------------------------------------------
 #MP2/6-31G* SCF=Tight Opt=(ModRedun, MaxCycle=20 ) NoSymm
 ---------------------------------------------------------
 1/6=20,18=120,19=15,38=1/1,3;
 2/9=110,12=2,15=1,17=6,18=5,40=1/2;
 3/5=1,6=6,7=1,11=9,25=1,30=1,71=1/1,2,3;
 4//1;
 5/5=2,32=2,38=5/2;
 8/6=4,10=2/1;
 9/15=2,16=-3/6;
 10/5=1,31=1/2;
 6/7=2,8=2,9=2,10=2/1;
 7/12=2,30=1/1,2,3,16;
 1/6=20,18=20,19=15/3(2);
 2/9=110,15=1/2;
 99//99;
 2/9=110,15=1/2;
 3/5=1,6=6,7=1,11=9,25=1,30=1,71=1/1,2,3;
 4/5=5,16=3,69=1/1;
 5/5=2,32=2,38=5/2;
 8/6=4,10=2/1;
 9/15=2,16=-3/6;
 10/5=1,31=1/2;
 7/12=2,30=1/1,2,3,16;
 1/6=20,18=20,19=15/3(-8);
 2/9=110,15=1/2;
 6/7=2,8=2,9=2,10=2/1;
 99/9=10/99;
 --------
 MolName:
 --------
 Symbolic Z-matrix:
 Charge =  0 Multiplicity = 1
 8                    0    -3.6339   -1.42042  -0.25763 
 7                    0    -3.2624   -0.26182  -0.07856 
 8                    0    -4.03443   0.68808   0.05786 
 6                    0    -1.75715   0.00319  -0.03502 
 6                    0    -1.36644   1.31077   0.27664 
 7                    0    -0.08001   1.76027   0.42292 
 6                    0     1.20073   0.99275   0.37647 
 1                    0     1.87262   1.49106   1.12277 
 6                    0     1.94817   1.04748  -0.97936 
 6                    0     3.36373   0.464    -0.80786 
 6                    0     3.31203  -0.95281  -0.21449 
 6                    0     2.47947  -0.98959   1.08524 
 6                    0     1.03861  -0.45683   0.85526 
 1                    0     0.49999  -0.49783   1.83097 
 7                    0     0.37327  -1.3283   -0.11568 
 6                    0    -0.87211  -1.13465  -0.40209 
 1                    0    -2.15403   2.05845   0.46761 
 1                    0     0.15273   2.7461    0.28072 
 1                    0     1.39049   0.47055  -1.74748 
 1                    0     2.02756   2.09813  -1.33073 
 1                    0     3.88655   0.44234  -1.78906 
 1                    0     3.94777   1.11829  -0.12271 
 1                    0     2.85734  -1.64222  -0.9613 
 1                    0     4.34332  -1.31464  -0.01025 
 1                    0     2.4278   -2.03635   1.45716 
 1                    0     2.9814   -0.37806   1.86405 
 1                    0    -1.38207  -1.91496  -0.98747 
 
 The following ModRedundant input section has been read:
 D       2       4      16      27 F                                           
 D       1       2       4      16 F                                           
 D       7      13      15      16 F                                           
 D       7       9      10      11 F                                           
 D       9      10      11      12 F                                           
 D       6       7      13      15 F                                           
 

 GradGradGradGradGradGradGradGradGradGradGradGradGradGradGradGradGradGrad
 Berny optimization.
 Initialization pass.
                           ----------------------------
                           !    Initial Parameters    !
                           ! (Angstroms and Degrees)  !
 --------------------------                            --------------------------
 ! Name  Definition              Value          Derivative Info.                !
 --------------------------------------------------------------------------------
 ! R1    R(1,2)                  1.2298         estimate D2E/DX2                !
 ! R2    R(2,3)                  1.2316         estimate D2E/DX2                !
 ! R3    R(2,4)                  1.529          estimate D2E/DX2                !
 ! R4    R(4,5)                  1.3998         estimate D2E/DX2                !
 ! R5    R(4,16)                 1.4875         estimate D2E/DX2                !
 ! R6    R(5,6)                  1.3705         estimate D2E/DX2                !
 ! R7    R(5,17)                 1.1026         estimate D2E/DX2                !
 ! R8    R(6,7)                  1.4938         estimate D2E/DX2                !
 ! R9    R(6,18)                 1.0229         estimate D2E/DX2                !
 ! R10   R(7,8)                  1.121          estimate D2E/DX2                !
 ! R11   R(7,9)                  1.5492         estimate D2E/DX2                !
 ! R12   R(7,13)                 1.5352         estimate D2E/DX2                !
 ! R13   R(9,10)                 1.5407         estimate D2E/DX2                !
 ! R14   R(9,19)                 1.1108         estimate D2E/DX2                !
 ! R15   R(9,20)                 1.1107         estimate D2E/DX2                !
 ! R16   R(10,11)                1.5369         estimate D2E/DX2                !
 ! R17   R(10,21)                1.112          estimate D2E/DX2                !
 ! R18   R(10,22)                1.1129         estimate D2E/DX2                !
 ! R19   R(11,12)                1.544          estimate D2E/DX2                !
 ! R20   R(11,23)                1.1134         estimate D2E/DX2                !
 ! R21   R(11,24)                1.1118         estimate D2E/DX2                !
 ! R22   R(12,13)                1.5533         estimate D2E/DX2                !
 ! R23   R(12,25)                1.1121         estimate D2E/DX2                !
 ! R24   R(12,26)                1.1102         estimate D2E/DX2                !
 ! R25   R(13,14)                1.1153         estimate D2E/DX2                !
 ! R26   R(13,15)                1.4645         estimate D2E/DX2                !
 ! R27   R(15,16)                1.2925         estimate D2E/DX2                !
 ! R28   R(16,27)                1.1007         estimate D2E/DX2                !
 ! A1    A(1,2,3)              123.5981         estimate D2E/DX2                !
 ! A2    A(1,2,4)              117.6982         estimate D2E/DX2                !
 ! A3    A(3,2,4)              118.7022         estimate D2E/DX2                !
 ! A4    A(2,4,5)              116.296          estimate D2E/DX2                !
 ! A5    A(2,4,16)             116.4952         estimate D2E/DX2                !
 ! A6    A(5,4,16)             127.1128         estimate D2E/DX2                !
 ! A7    A(4,5,6)              126.3066         estimate D2E/DX2                !
 ! A8    A(4,5,17)             118.2027         estimate D2E/DX2                !
 ! A9    A(6,5,17)             115.4403         estimate D2E/DX2                !
 ! A10   A(5,6,7)              129.2653         estimate D2E/DX2                !
 ! A11   A(5,6,18)             120.9866         estimate D2E/DX2                !
 ! A12   A(7,6,18)             107.2048         estimate D2E/DX2                !
 ! A13   A(6,7,8)              105.3531         estimate D2E/DX2                !
 ! A14   A(6,7,9)              115.0061         estimate D2E/DX2                !
 ! A15   A(6,7,13)             112.6378         estimate D2E/DX2                !
 ! A16   A(8,7,9)              106.1268         estimate D2E/DX2                !
 ! A17   A(8,7,13)             105.9853         estimate D2E/DX2                !
 ! A18   A(9,7,13)             110.9322         estimate D2E/DX2                !
 ! A19   A(7,9,10)             109.4203         estimate D2E/DX2                !
 ! A20   A(7,9,19)             110.1588         estimate D2E/DX2                !
 ! A21   A(7,9,20)             110.1682         estimate D2E/DX2                !
 ! A22   A(10,9,19)            109.9719         estimate D2E/DX2                !
 ! A23   A(10,9,20)            109.1345         estimate D2E/DX2                !
 ! A24   A(19,9,20)            107.965          estimate D2E/DX2                !
 ! A25   A(9,10,11)            111.1734         estimate D2E/DX2                !
 ! A26   A(9,10,21)            109.946          estimate D2E/DX2                !
 ! A27   A(9,10,22)            109.1499         estimate D2E/DX2                !
 ! A28   A(11,10,21)           109.7869         estimate D2E/DX2                !
 ! A29   A(11,10,22)           108.7795         estimate D2E/DX2                !
 ! A30   A(21,10,22)           107.9346         estimate D2E/DX2                !
 ! A31   A(10,11,12)           111.4142         estimate D2E/DX2                !
 ! A32   A(10,11,23)           109.0001         estimate D2E/DX2                !
 ! A33   A(10,11,24)           109.8598         estimate D2E/DX2                !
 ! A34   A(12,11,23)           109.2487         estimate D2E/DX2                !
 ! A35   A(12,11,24)           109.7417         estimate D2E/DX2                !
 ! A36   A(23,11,24)           107.4869         estimate D2E/DX2                !
 ! A37   A(11,12,13)           111.5547         estimate D2E/DX2                !
 ! A38   A(11,12,25)           109.2089         estimate D2E/DX2                !
 ! A39   A(11,12,26)           109.4896         estimate D2E/DX2                !
 ! A40   A(13,12,25)           109.2236         estimate D2E/DX2                !
 ! A41   A(13,12,26)           109.5316         estimate D2E/DX2                !
 ! A42   A(25,12,26)           107.7514         estimate D2E/DX2                !
 ! A43   A(7,13,12)            105.7877         estimate D2E/DX2                !
 ! A44   A(7,13,14)            111.0122         estimate D2E/DX2                !
 ! A45   A(7,13,15)            113.7707         estimate D2E/DX2                !
 ! A46   A(12,13,14)           107.8093         estimate D2E/DX2                !
 ! A47   A(12,13,15)           108.3896         estimate D2E/DX2                !
 ! A48   A(14,13,15)           109.7995         estimate D2E/DX2                !
 ! A49   A(13,15,16)           119.7029         estimate D2E/DX2                !
 ! A50   A(4,16,15)            129.2881         estimate D2E/DX2                !
 ! A51   A(4,16,27)            113.4432         estimate D2E/DX2                !
 ! A52   A(15,16,27)           117.2609         estimate D2E/DX2                !
 ! D1    D(1,2,4,5)           -175.0476         estimate D2E/DX2                !
 ! D2    D(1,2,4,16)             8.2585         Frozen                          !
 ! D3    D(3,2,4,5)              5.3946         estimate D2E/DX2                !
 ! D4    D(3,2,4,16)          -171.2992         estimate D2E/DX2                !
 ! D5    D(2,4,5,6)            177.2264         estimate D2E/DX2                !
 ! D6    D(2,4,5,17)            -0.066          estimate D2E/DX2                !
 ! D7    D(16,4,5,6)            -6.4846         estimate D2E/DX2                !
 ! D8    D(16,4,5,17)          176.223          estimate D2E/DX2                !
 ! D9    D(2,4,16,15)         -158.9428         estimate D2E/DX2                !
 ! D10   D(2,4,16,27)           19.9984         Frozen                          !
 ! D11   D(5,4,16,15)           24.7746         estimate D2E/DX2                !
 ! D12   D(5,4,16,27)         -156.2841         estimate D2E/DX2                !
 ! D13   D(4,5,6,7)             -4.1155         estimate D2E/DX2                !
 ! D14   D(4,5,6,18)           155.3685         estimate D2E/DX2                !
 ! D15   D(17,5,6,7)           173.2422         estimate D2E/DX2                !
 ! D16   D(17,5,6,18)          -27.2739         estimate D2E/DX2                !
 ! D17   D(5,6,7,8)           -145.0357         estimate D2E/DX2                !
 ! D18   D(5,6,7,9)             98.483          estimate D2E/DX2                !
 ! D19   D(5,6,7,13)           -29.9531         estimate D2E/DX2                !
 ! D20   D(18,6,7,8)            53.2965         estimate D2E/DX2                !
 ! D21   D(18,6,7,9)           -63.1847         estimate D2E/DX2                !
 ! D22   D(18,6,7,13)          168.3791         estimate D2E/DX2                !
 ! D23   D(6,7,9,10)           168.7572         estimate D2E/DX2                !
 ! D24   D(6,7,9,19)           -70.2303         estimate D2E/DX2                !
 ! D25   D(6,7,9,20)            48.7733         estimate D2E/DX2                !
 ! D26   D(8,7,9,10)            52.718          estimate D2E/DX2                !
 ! D27   D(8,7,9,19)           173.7305         estimate D2E/DX2                !
 ! D28   D(8,7,9,20)           -67.2659         estimate D2E/DX2                !
 ! D29   D(13,7,9,10)          -61.9605         estimate D2E/DX2                !
 ! D30   D(13,7,9,19)           59.052          estimate D2E/DX2                !
 ! D31   D(13,7,9,20)          178.0556         estimate D2E/DX2                !
 ! D32   D(6,7,13,12)         -166.1115         estimate D2E/DX2                !
 ! D33   D(6,7,13,14)          -49.4267         estimate D2E/DX2                !
 ! D34   D(6,7,13,15)           75.0223         Frozen                          !
 ! D35   D(8,7,13,12)          -51.4111         estimate D2E/DX2                !
 ! D36   D(8,7,13,14)           65.2737         estimate D2E/DX2                !
 ! D37   D(8,7,13,15)         -170.2773         estimate D2E/DX2                !
 ! D38   D(9,7,13,12)           63.3558         estimate D2E/DX2                !
 ! D39   D(9,7,13,14)         -179.9593         estimate D2E/DX2                !
 ! D40   D(9,7,13,15)          -55.5103         estimate D2E/DX2                !
 ! D41   D(7,9,10,11)           54.812          Frozen                          !
 ! D42   D(7,9,10,21)          176.599          estimate D2E/DX2                !
 ! D43   D(7,9,10,22)          -65.1855         estimate D2E/DX2                !
 ! D44   D(19,9,10,11)         -66.3138         estimate D2E/DX2                !
 ! D45   D(19,9,10,21)          55.4732         estimate D2E/DX2                !
 ! D46   D(19,9,10,22)         173.6887         estimate D2E/DX2                !
 ! D47   D(20,9,10,11)         175.4275         estimate D2E/DX2                !
 ! D48   D(20,9,10,21)         -62.7855         estimate D2E/DX2                !
 ! D49   D(20,9,10,22)          55.4301         estimate D2E/DX2                !
 ! D50   D(9,10,11,12)         -52.8224         Frozen                          !
 ! D51   D(9,10,11,23)          67.8121         estimate D2E/DX2                !
 ! D52   D(9,10,11,24)        -174.6542         estimate D2E/DX2                !
 ! D53   D(21,10,11,12)       -174.702          estimate D2E/DX2                !
 ! D54   D(21,10,11,23)        -54.0675         estimate D2E/DX2                !
 ! D55   D(21,10,11,24)         63.4662         estimate D2E/DX2                !
 ! D56   D(22,10,11,12)         67.3946         estimate D2E/DX2                !
 ! D57   D(22,10,11,23)       -171.9709         estimate D2E/DX2                !
 ! D58   D(22,10,11,24)        -54.4372         estimate D2E/DX2                !
 ! D59   D(10,11,12,13)         56.629          estimate D2E/DX2                !
 ! D60   D(10,11,12,25)        177.4604         estimate D2E/DX2                !
 ! D61   D(10,11,12,26)        -64.778          estimate D2E/DX2                !
 ! D62   D(23,11,12,13)        -63.8594         estimate D2E/DX2                !
 ! D63   D(23,11,12,25)         56.9719         estimate D2E/DX2                !
 ! D64   D(23,11,12,26)        174.7335         estimate D2E/DX2                !
 ! D65   D(24,11,12,13)        178.5292         estimate D2E/DX2                !
 ! D66   D(24,11,12,25)        -60.6395         estimate D2E/DX2                !
 ! D67   D(24,11,12,26)         57.1222         estimate D2E/DX2                !
 ! D68   D(11,12,13,7)         -60.4096         estimate D2E/DX2                !
 ! D69   D(11,12,13,14)       -179.2392         estimate D2E/DX2                !
 ! D70   D(11,12,13,15)         61.9627         estimate D2E/DX2                !
 ! D71   D(25,12,13,7)         178.7677         estimate D2E/DX2                !
 ! D72   D(25,12,13,14)         59.9381         estimate D2E/DX2                !
 ! D73   D(25,12,13,15)        -58.86           estimate D2E/DX2                !
 ! D74   D(26,12,13,7)          60.9731         estimate D2E/DX2                !
 ! D75   D(26,12,13,14)        -57.8565         estimate D2E/DX2                !
 ! D76   D(26,12,13,15)       -176.6546         estimate D2E/DX2                !
 ! D77   D(7,13,15,16)         -67.1599         Frozen                          !
 ! D78   D(12,13,15,16)        175.471          estimate D2E/DX2                !
 ! D79   D(14,13,15,16)         57.9388         estimate D2E/DX2                !
 ! D80   D(13,15,16,4)           9.9183         estimate D2E/DX2                !
 ! D81   D(13,15,16,27)       -168.9889         estimate D2E/DX2                !
 --------------------------------------------------------------------------------
 Trust Radius=3.00D-01 FncErr=1.00D-07 GrdErr=1.00D-07 EigMax=2.50D+02 EigMin=1.00D-04
 Number of steps in this run=     20 maximum allowed number of steps=    162.
 GradGradGradGradGradGradGradGradGradGradGradGradGradGradGradGradGradGrad

                          Input orientation:                          
 ---------------------------------------------------------------------
 Center     Atomic      Atomic             Coordinates (Angstroms)
 Number     Number       Type             X           Y           Z
 ---------------------------------------------------------------------
      1          8           0       -3.633900   -1.420420   -0.257630
      2          7           0       -3.262400   -0.261820   -0.078560
      3          8           0       -4.034430    0.688080    0.057860
      4          6           0       -1.757150    0.003190   -0.035020
      5          6           0       -1.366440    1.310770    0.276640
      6          7           0       -0.080010    1.760270    0.422920
      7          6           0        1.200730    0.992750    0.376470
      8          1           0        1.872620    1.491060    1.122770
      9          6           0        1.948170    1.047480   -0.979360
     10          6           0        3.363730    0.464000   -0.807860
     11          6           0        3.312030   -0.952810   -0.214490
     12          6           0        2.479470   -0.989590    1.085240
     13          6           0        1.038610   -0.456830    0.855260
     14          1           0        0.499990   -0.497830    1.830970
     15          7           0        0.373270   -1.328300   -0.115680
     16          6           0       -0.872110   -1.134650   -0.402090
     17          1           0       -2.154030    2.058450    0.467610
     18          1           0        0.152730    2.746100    0.280720
     19          1           0        1.390490    0.470550   -1.747480
     20          1           0        2.027560    2.098130   -1.330730
     21          1           0        3.886550    0.442340   -1.789060
     22          1           0        3.947770    1.118290   -0.122710
     23          1           0        2.857340   -1.642220   -0.961300
     24          1           0        4.343320   -1.314640   -0.010250
     25          1           0        2.427800   -2.036350    1.457160
     26          1           0        2.981400   -0.378060    1.864050
     27          1           0       -1.382070   -1.914960   -0.987470
 ---------------------------------------------------------------------
                    Distance matrix (angstroms):
                    1          2          3          4          5
     1  O    0.000000
     2  N    1.229810   0.000000
     3  O    2.169270   1.231646   0.000000
     4  C    2.366096   1.529020   2.379854   0.000000
     5  C    3.589738   2.488749   2.748414   1.399840   0.000000
     6  N    4.817683   3.803674   4.113429   2.471809   1.370529
     7  C    5.440507   4.658383   5.253688   3.146046   2.588719
     8  H    6.379967   5.557357   6.055745   4.090167   3.352603
     9  C    6.145806   5.447545   6.082475   3.963801   3.554363
    10  C    7.267779   6.705542   7.452010   5.199331   4.926222
    11  C    6.961786   6.612040   7.532408   5.161660   5.220449
    12  C    6.273931   5.903656   6.804482   4.493278   4.553736
    13  C    4.898916   4.405535   5.261407   2.969931   3.040309
    14  H    4.722549   4.225823   5.011114   2.971131   3.028289
    15  N    4.010741   3.789044   4.850126   2.513575   3.185152
    16  C    2.780291   2.565149   3.678881   1.487520   2.585559
    17  H    3.849484   2.628771   2.362565   2.152730   1.102630
    18  H    5.655818   4.565061   4.670912   3.357214   2.089992
    19  H    5.571348   4.997104   5.721567   3.613666   3.521888
    20  H    6.751583   5.926295   6.376845   4.515713   3.837031
    21  H    7.897615   7.384385   8.137163   5.926285   5.710971
    22  H    7.996560   7.341199   7.995824   5.813540   5.332669
    23  H    6.533035   6.335294   7.346120   4.985869   5.300280
    24  H    7.981756   7.678546   8.614071   6.241236   6.290981
    25  H    6.329619   6.155142   7.151292   4.888776   5.195488
    26  H    7.024972   6.540052   7.322626   5.119148   4.927041
    27  H    2.418259   2.663575   3.860511   2.174200   3.464614
                    6          7          8          9         10
     6  N    0.000000
     7  C    1.493834   0.000000
     8  H    2.091657   1.121032   0.000000
     9  C    2.566705   1.549173   2.149749   0.000000
    10  C    3.880010   2.522059   2.646808   1.540672   0.000000
    11  C    4.390106   2.931216   3.135708   2.538957   1.536916
    12  C    3.814621   2.463169   2.554075   2.948645   2.545323
    13  C    2.520667   1.535189   2.135746   2.540881   3.003345
    14  H    2.723604   2.197370   2.518202   3.518972   4.011178
    15  N    3.167778   2.512802   3.424996   2.978353   3.554477
    16  C    3.112656   3.070611   4.093054   3.612328   4.545621
    17  H    2.095821   3.521142   4.118868   4.465851   5.883432
    18  H    1.022863   2.044923   2.289584   2.774296   4.086993
    19  H    2.921709   2.195419   3.084190   1.110794   2.185544
    20  H    2.762479   2.195460   2.532233   1.110689   2.174655
    21  H    4.728995   3.493723   3.692490   2.186121   1.112009
    22  H    4.114956   2.794847   2.448760   2.176526   1.112937
    23  H    4.703300   3.387780   3.889790   2.839261   2.171667
    24  H    5.404494   3.917840   3.906411   3.500790   2.181591
    25  H    4.666164   3.442243   3.586455   3.959379   3.501147
    26  H    4.002692   2.694958   2.296192   3.344355   2.827427
    27  H    4.146309   4.121403   5.162082   4.457198   5.311716
                   11         12         13         14         15
    11  C    0.000000
    12  C    1.543958   0.000000
    13  C    2.561015   1.553320   0.000000
    14  H    3.506919   2.171700   1.115259   0.000000
    15  N    2.964299   2.448063   1.464535   2.120185   0.000000
    16  C    4.192289   3.669643   2.385628   2.697175   1.292479
    17  H    6.277799   5.580442   4.082874   3.929013   4.265858
    18  H    4.889616   4.473964   3.372483   3.612056   4.099574
    19  H    2.840480   3.367817   2.785338   3.812618   2.633129
    20  H    3.493435   3.946536   3.504910   4.366787   3.994176
    21  H    2.180777   3.505980   3.988947   5.045525   4.275337
    22  H    2.168420   2.838698   3.449730   4.279708   4.331617
    23  H    1.113443   2.181063   2.830692   3.829295   2.642768
    24  H    1.111843   2.186251   3.522223   4.339177   3.971473
    25  H    2.179526   1.112070   2.187925   2.494640   2.682583
    26  H    2.181738   1.110157   2.190501   2.484519   3.409491
    27  H    4.853638   4.479278   3.373646   3.673420   2.045827
                   16         17         18         19         20
    16  C    0.000000
    17  H    3.549026   0.000000
    18  H    4.071455   2.414318   0.000000
    19  H    3.083196   4.471205   3.289950   0.000000
    20  H    4.440870   4.552065   2.555704   1.796818   0.000000
    21  H    5.201483   6.647780   4.851053   2.496566   2.531314
    22  H    5.327761   6.201963   4.149078   3.098246   2.471155
    23  H    3.805147   6.391445   5.302347   2.689521   3.849056
    24  H    5.233225   7.336324   5.842544   3.863169   4.330521
    25  H    3.893492   6.224127   5.425107   4.198842   5.002644
    26  H    4.534022   5.853142   4.502075   4.036618   4.153065
    27  H    1.100733   4.301298   5.068471   3.735688   5.277148
                   21         22         23         24         25
    21  H    0.000000
    22  H    1.799272   0.000000
    23  H    2.467762   3.084264   0.000000
    24  H    2.541610   2.467439   1.794419   0.000000
    25  H    4.337027   3.841621   2.487728   2.518606   0.000000
    26  H    3.851956   2.668361   3.097756   2.499002   1.794981
    27  H    5.827329   6.193191   4.248255   5.839130   4.528362
                   26         27
    26  H    0.000000
    27  H    5.434436   0.000000
 Symmetry turned off by external request.
 Stoichiometry    C9H13N3O2
 Framework group  C1[X(C9H13N3O2)]
 Deg. of freedom    75
 Full point group                 C1      NOp   1
 Rotational constants (GHZ):           1.6717247           0.3993709           0.3548864
 Standard basis: 6-31G(d) (6D, 7F)
   236 basis functions,   444 primitive gaussians,   236 cartesian basis functions
    52 alpha electrons       52 beta electrons
       nuclear repulsion energy       917.1332983158 Hartrees.
 NAtoms=   27 NActive=   27 NUniq=   27 SFac= 1.00D+00 NAtFMM=   60 NAOKFM=F Big=F
 Integral buffers will be    131072 words long.
 Raffenetti 1 integral format.
 Two-electron integral symmetry is turned off.
 One-electron integrals computed using PRISM.
 NBasis=   236 RedAO= T EigKep=  1.27D-03  NBF=   236
 NBsUse=   236 1.00D-06 EigRej= -1.00D+00 NBFU=   236
 ExpMin= 1.61D-01 ExpMax= 5.48D+03 ExpMxC= 8.25D+02 IAcc=3 IRadAn=         5 AccDes= 0.00D+00
 Harris functional with IExCor=  205 and IRadAn=       5 diagonalized for initial guess.
 HarFok:  IExCor=  205 AccDes= 0.00D+00 IRadAn=         5 IDoV= 1 UseB2=F ITyADJ=14
 ICtDFT=  3500011 ScaDFX=  1.000000  1.000000  1.000000  1.000000
 FoFCou: FMM=F IPFlag=           0 FMFlag=      100000 FMFlg1=           0
         NFxFlg=           0 DoJE=T BraDBF=F KetDBF=T FulRan=T
         wScrn=  0.000000 ICntrl=       500 IOpCl=  0 I1Cent=   200000004 NGrid=           0
         NMat0=    1 NMatS0=      1 NMatT0=    0 NMatD0=    1 NMtDS0=    0 NMtDT0=    0
 Symmetry not used in FoFCou.
 Keep R1 ints in memory in canonical form, NReq=397720213.
 Requested convergence on RMS density matrix=1.00D-08 within 128 cycles.
 Requested convergence on MAX density matrix=1.00D-06.
 Requested convergence on             energy=1.00D-06.
 No special actions if energy rises.
 SCF Done:  E(RHF) =  -661.281409615     A.U. after   16 cycles
            NFock= 16  Conv=0.74D-08     -V/T= 2.0037
 ExpMin= 1.61D-01 ExpMax= 5.48D+03 ExpMxC= 8.25D+02 IAcc=3 IRadAn=         5 AccDes= 0.00D+00
 HarFok:  IExCor=  205 AccDes= 0.00D+00 IRadAn=         5 IDoV=-2 UseB2=F ITyADJ=14
 ICtDFT= 12500011 ScaDFX=  1.000000  1.000000  1.000000  1.000000
 Range of M.O.s used for correlation:    15   236
 NBasis=   236 NAE=    52 NBE=    52 NFC=    14 NFV=     0
 NROrb=    222 NOA=    38 NOB=    38 NVA=   184 NVB=   184
 Fully direct method using O(ONN) memory.
 JobTyp=1 Pass  1:  I=  15 to  52 NPSUse=  4 ParTrn=T ParDer=T DoDerP=T.
 Spin components of T(2) and E(2):
     alpha-alpha T2 =       0.9200137697D-01 E2=     -0.2717927680D+00
     alpha-beta  T2 =       0.4995869634D+00 E2=     -0.1493644594D+01
     beta-beta   T2 =       0.9200137697D-01 E2=     -0.2717927680D+00
 ANorm=    0.1297532164D+01
 E2 =    -0.2037230130D+01 EUMP2 =    -0.66331863974469D+03
          IDoAtm=111111111111111111111111111
          Differentiating once with respect to electric field.
                with respect to dipole field.
          Differentiating once with respect to nuclear coordinates.
 Keep R1 ints in memory in canonical form, NReq=397723379.
          There are     1 degrees of freedom in the 1st order CPHF.  IDoFFX=0 NUNeed=     1.
 LinEq1:  Iter=  0 NonCon=     1 RMS=4.62D-03 Max=1.13D-01 NDo=     1
 AX will form     1 AO Fock derivatives at one time.
 LinEq1:  Iter=  1 NonCon=     1 RMS=1.57D-03 Max=2.99D-02 NDo=     1
 LinEq1:  Iter=  2 NonCon=     1 RMS=6.43D-04 Max=1.82D-02 NDo=     1
 LinEq1:  Iter=  3 NonCon=     1 RMS=2.94D-04 Max=9.16D-03 NDo=     1
 LinEq1:  Iter=  4 NonCon=     1 RMS=9.07D-05 Max=2.17D-03 NDo=     1
 LinEq1:  Iter=  5 NonCon=     1 RMS=3.75D-05 Max=1.86D-03 NDo=     1
 LinEq1:  Iter=  6 NonCon=     1 RMS=1.54D-05 Max=5.82D-04 NDo=     1
 LinEq1:  Iter=  7 NonCon=     1 RMS=5.91D-06 Max=9.75D-05 NDo=     1
 LinEq1:  Iter=  8 NonCon=     1 RMS=2.36D-06 Max=5.74D-05 NDo=     1
 LinEq1:  Iter=  9 NonCon=     1 RMS=8.74D-07 Max=2.49D-05 NDo=     1
 LinEq1:  Iter= 10 NonCon=     1 RMS=4.27D-07 Max=1.47D-05 NDo=     1
 LinEq1:  Iter= 11 NonCon=     1 RMS=1.53D-07 Max=5.71D-06 NDo=     1
 LinEq1:  Iter= 12 NonCon=     1 RMS=5.40D-08 Max=7.79D-07 NDo=     1
 LinEq1:  Iter= 13 NonCon=     1 RMS=1.70D-08 Max=3.34D-07 NDo=     1
 LinEq1:  Iter= 14 NonCon=     1 RMS=5.35D-09 Max=1.44D-07 NDo=     1
 LinEq1:  Iter= 15 NonCon=     1 RMS=1.98D-09 Max=4.80D-08 NDo=     1
 LinEq1:  Iter= 16 NonCon=     1 RMS=7.43D-10 Max=1.31D-08 NDo=     1
 LinEq1:  Iter= 17 NonCon=     1 RMS=2.50D-10 Max=3.90D-09 NDo=     1
 LinEq1:  Iter= 18 NonCon=     1 RMS=8.68D-11 Max=1.06D-09 NDo=     1
 LinEq1:  Iter= 19 NonCon=     0 RMS=2.91D-11 Max=3.41D-10 NDo=     1
 Linear equations converged to 1.000D-10 1.000D-09 after    19 iterations.
 End of Minotr F.D. properties file   721 does not exist.
 End of Minotr F.D. properties file   722 does not exist.
 End of Minotr F.D. properties file   788 does not exist.

 **********************************************************************

            Population analysis using the SCF Density.

 **********************************************************************

 Alpha  occ. eigenvalues --  -20.59823 -20.59407 -15.85299 -15.63484 -15.56673
 Alpha  occ. eigenvalues --  -11.35934 -11.30445 -11.30101 -11.30076 -11.27661
 Alpha  occ. eigenvalues --  -11.24639 -11.23885 -11.23382 -11.22849  -1.58491
 Alpha  occ. eigenvalues --   -1.37986  -1.28668  -1.22668  -1.13285  -1.08379
 Alpha  occ. eigenvalues --   -1.01801  -1.00691  -0.93622  -0.88946  -0.84940
 Alpha  occ. eigenvalues --   -0.81532  -0.78019  -0.76985  -0.74370  -0.71145
 Alpha  occ. eigenvalues --   -0.70315  -0.69804  -0.67397  -0.64291  -0.63248
 Alpha  occ. eigenvalues --   -0.61675  -0.60283  -0.57443  -0.56475  -0.54881
 Alpha  occ. eigenvalues --   -0.53682  -0.50694  -0.49466  -0.48514  -0.47817
 Alpha  occ. eigenvalues --   -0.47709  -0.46210  -0.45637  -0.44029  -0.42123
 Alpha  occ. eigenvalues --   -0.39781  -0.33713
 Alpha virt. eigenvalues --    0.07371   0.11760   0.17999   0.21458   0.23565
 Alpha virt. eigenvalues --    0.24398   0.26248   0.27850   0.28554   0.28879
 Alpha virt. eigenvalues --    0.29852   0.31167   0.31837   0.32303   0.33313
 Alpha virt. eigenvalues --    0.33802   0.34315   0.35468   0.37619   0.38577
 Alpha virt. eigenvalues --    0.40590   0.41640   0.44280   0.45246   0.45604
 Alpha virt. eigenvalues --    0.46225   0.49738   0.53226   0.57585   0.59014
 Alpha virt. eigenvalues --    0.63342   0.69055   0.69207   0.72236   0.74034
 Alpha virt. eigenvalues --    0.74893   0.75640   0.75869   0.77846   0.79179
 Alpha virt. eigenvalues --    0.80574   0.83523   0.84901   0.85333   0.87943
 Alpha virt. eigenvalues --    0.89067   0.90299   0.90773   0.91850   0.93872
 Alpha virt. eigenvalues --    0.95189   0.97257   0.99056   1.00442   1.01968
 Alpha virt. eigenvalues --    1.02771   1.05054   1.06502   1.07073   1.08761
 Alpha virt. eigenvalues --    1.09569   1.10481   1.11731   1.12029   1.13248
 Alpha virt. eigenvalues --    1.13837   1.14133   1.15520   1.16331   1.17172
 Alpha virt. eigenvalues --    1.18095   1.20212   1.21343   1.22364   1.23011
 Alpha virt. eigenvalues --    1.23939   1.24425   1.25500   1.26904   1.27551
 Alpha virt. eigenvalues --    1.29287   1.31329   1.33151   1.36272   1.39411
 Alpha virt. eigenvalues --    1.43078   1.46628   1.47529   1.50088   1.52769
 Alpha virt. eigenvalues --    1.55110   1.55770   1.60141   1.61551   1.66345
 Alpha virt. eigenvalues --    1.68582   1.70248   1.72399   1.73544   1.76575
 Alpha virt. eigenvalues --    1.77831   1.80488   1.84209   1.89119   1.92541
 Alpha virt. eigenvalues --    1.93727   1.96227   1.97378   1.99166   2.00881
 Alpha virt. eigenvalues --    2.02854   2.03752   2.06004   2.09063   2.11838
 Alpha virt. eigenvalues --    2.13011   2.13386   2.17714   2.18592   2.19640
 Alpha virt. eigenvalues --    2.20656   2.22057   2.23915   2.25033   2.26228
 Alpha virt. eigenvalues --    2.29250   2.32064   2.33205   2.35488   2.36184
 Alpha virt. eigenvalues --    2.38810   2.39962   2.41817   2.43402   2.46282
 Alpha virt. eigenvalues --    2.48602   2.50328   2.50677   2.56673   2.57119
 Alpha virt. eigenvalues --    2.60658   2.63080   2.65741   2.68569   2.68879
 Alpha virt. eigenvalues --    2.69609   2.69954   2.74700   2.76622   2.80981
 Alpha virt. eigenvalues --    2.84775   2.86815   2.89943   2.91285   2.95128
 Alpha virt. eigenvalues --    2.97629   2.98488   3.02270   3.03882   3.05780
 Alpha virt. eigenvalues --    3.07079   3.13012   3.19010   3.22843   3.27203
 Alpha virt. eigenvalues --    3.31173   3.33835   3.37418   3.43270   3.60196
 Alpha virt. eigenvalues --    4.10311   4.23335   4.32128   4.36560   4.43400
 Alpha virt. eigenvalues --    4.52517   4.59560   4.60175   4.70851   4.77738
 Alpha virt. eigenvalues --    4.96653   4.99251   5.03005   5.09863
          Condensed to atoms (all electrons):
               1          2          3          4          5          6
     1  O    8.300744   0.311991  -0.089838  -0.078533   0.003545  -0.000013
     2  N    0.311991   5.682353   0.309837   0.264864  -0.046772   0.000834
     3  O   -0.089838   0.309837   8.330627  -0.087539   0.007987   0.000472
     4  C   -0.078533   0.264864  -0.087539   5.246688   0.565975  -0.047631
     5  C    0.003545  -0.046772   0.007987   0.565975   4.673149   0.308400
     6  N   -0.000013   0.000834   0.000472  -0.047631   0.308400   7.184927
     7  C    0.000002  -0.000093   0.000002   0.004596  -0.029116   0.198700
     8  H   -0.000000   0.000002  -0.000000  -0.000213   0.002413  -0.049332
     9  C   -0.000000  -0.000003   0.000000   0.000539   0.001512  -0.056605
    10  C   -0.000000   0.000000  -0.000000  -0.000021  -0.000059   0.003343
    11  C   -0.000000  -0.000000  -0.000000  -0.000013   0.000015  -0.000154
    12  C   -0.000000   0.000001  -0.000000  -0.000132  -0.000140   0.003645
    13  C   -0.000017  -0.000015  -0.000002  -0.009975   0.000373  -0.045315
    14  H   -0.000002  -0.000054   0.000000   0.002748   0.004622  -0.005573
    15  N    0.000245   0.001602  -0.000012  -0.061497  -0.003760   0.001933
    16  C    0.002548  -0.025334   0.001979   0.316903  -0.041724  -0.000944
    17  H    0.000131  -0.004296   0.012243  -0.026176   0.376510  -0.033491
    18  H    0.000000  -0.000035   0.000008   0.001000  -0.024718   0.328816
    19  H    0.000000  -0.000000   0.000000  -0.000847   0.000751   0.000523
    20  H    0.000000  -0.000000   0.000000  -0.000030   0.000025  -0.001552
    21  H   -0.000000  -0.000000   0.000000   0.000000   0.000001  -0.000059
    22  H   -0.000000   0.000000  -0.000000  -0.000000  -0.000002  -0.000097
    23  H    0.000000  -0.000000   0.000000   0.000025  -0.000000  -0.000024
    24  H    0.000000   0.000000   0.000000   0.000000  -0.000000   0.000005
    25  H    0.000000  -0.000000   0.000000   0.000019  -0.000001  -0.000072
    26  H    0.000000  -0.000000   0.000000   0.000005  -0.000001  -0.000068
    27  H    0.006000  -0.000206   0.000022  -0.066191   0.002078   0.000028
               7          8          9         10         11         12
     1  O    0.000002  -0.000000  -0.000000  -0.000000  -0.000000  -0.000000
     2  N   -0.000093   0.000002  -0.000003   0.000000  -0.000000   0.000001
     3  O    0.000002  -0.000000   0.000000  -0.000000  -0.000000  -0.000000
     4  C    0.004596  -0.000213   0.000539  -0.000021  -0.000013  -0.000132
     5  C   -0.029116   0.002413   0.001512  -0.000059   0.000015  -0.000140
     6  N    0.198700  -0.049332  -0.056605   0.003343  -0.000154   0.003645
     7  C    5.010372   0.416101   0.341140  -0.049365  -0.007774  -0.064356
     8  H    0.416101   0.546642  -0.060108   0.001375  -0.000304  -0.002942
     9  C    0.341140  -0.060108   5.180358   0.318196  -0.053143  -0.006094
    10  C   -0.049365   0.001375   0.318196   5.126708   0.332760  -0.060285
    11  C   -0.007774  -0.000304  -0.053143   0.332760   5.124109   0.330663
    12  C   -0.064356  -0.002942  -0.006094  -0.060285   0.330663   5.137461
    13  C    0.329774  -0.039779  -0.051219  -0.001579  -0.047839   0.368658
    14  H   -0.040607  -0.000919   0.003859  -0.000389   0.003958  -0.040799
    15  N   -0.059059   0.004048  -0.012844   0.001442  -0.007730  -0.074520
    16  C   -0.001963  -0.000008  -0.000767  -0.000035   0.000003   0.002399
    17  H    0.001413  -0.000024  -0.000065   0.000001   0.000000   0.000001
    18  H   -0.028719  -0.002905   0.000895  -0.000121   0.000011  -0.000140
    19  H   -0.035036   0.004074   0.386271  -0.032642  -0.002233   0.000607
    20  H   -0.041735  -0.001834   0.397180  -0.037306   0.004136  -0.000365
    21  H    0.004051  -0.000079  -0.035847   0.400131  -0.035827   0.004216
    22  H   -0.004266   0.003511  -0.045676   0.395949  -0.045609  -0.001223
    23  H    0.000443   0.000033  -0.002001  -0.040098   0.396674  -0.036593
    24  H   -0.000141  -0.000099   0.004398  -0.038488   0.400305  -0.037868
    25  H    0.005018  -0.000007  -0.000371   0.004098  -0.033859   0.395293
    26  H   -0.004470   0.001574   0.001058  -0.002415  -0.042328   0.394582
    27  H   -0.000389   0.000009  -0.000058   0.000005   0.000005  -0.000020
              13         14         15         16         17         18
     1  O   -0.000017  -0.000002   0.000245   0.002548   0.000131   0.000000
     2  N   -0.000015  -0.000054   0.001602  -0.025334  -0.004296  -0.000035
     3  O   -0.000002   0.000000  -0.000012   0.001979   0.012243   0.000008
     4  C   -0.009975   0.002748  -0.061497   0.316903  -0.026176   0.001000
     5  C    0.000373   0.004622  -0.003760  -0.041724   0.376510  -0.024718
     6  N   -0.045315  -0.005573   0.001933  -0.000944  -0.033491   0.328816
     7  C    0.329774  -0.040607  -0.059059  -0.001963   0.001413  -0.028719
     8  H   -0.039779  -0.000919   0.004048  -0.000008  -0.000024  -0.002905
     9  C   -0.051219   0.003859  -0.012844  -0.000767  -0.000065   0.000895
    10  C   -0.001579  -0.000389   0.001442  -0.000035   0.000001  -0.000121
    11  C   -0.047839   0.003958  -0.007730   0.000003   0.000000   0.000011
    12  C    0.368658  -0.040799  -0.074520   0.002399   0.000001  -0.000140
    13  C    5.021382   0.403276   0.241649  -0.069254  -0.000044   0.003738
    14  H    0.403276   0.519163  -0.035709  -0.005108   0.000052   0.000008
    15  N    0.241649  -0.035709   6.941276   0.587273  -0.000056  -0.000119
    16  C   -0.069254  -0.005108   0.587273   4.702726   0.001629  -0.000203
    17  H   -0.000044   0.000052  -0.000056   0.001629   0.384508  -0.001985
    18  H    0.003738   0.000008  -0.000119  -0.000203  -0.001985   0.324650
    19  H   -0.006180   0.000066   0.006957   0.002479   0.000011  -0.000131
    20  H    0.003877  -0.000050   0.000082  -0.000031  -0.000002   0.002772
    21  H   -0.000382   0.000009  -0.000031   0.000002  -0.000000  -0.000000
    22  H    0.000317  -0.000044   0.000004  -0.000001   0.000000   0.000002
    23  H   -0.005917   0.000008   0.006809   0.000072   0.000000   0.000000
    24  H    0.004148  -0.000058   0.000040   0.000005   0.000000  -0.000000
    25  H   -0.034409  -0.002670   0.000884  -0.000058  -0.000000   0.000002
    26  H   -0.044881  -0.000886   0.004203  -0.000049   0.000000  -0.000001
    27  H    0.004806  -0.000167  -0.039910   0.402324  -0.000059   0.000002
              19         20         21         22         23         24
     1  O    0.000000   0.000000  -0.000000  -0.000000   0.000000   0.000000
     2  N   -0.000000  -0.000000  -0.000000   0.000000  -0.000000   0.000000
     3  O    0.000000   0.000000   0.000000  -0.000000   0.000000   0.000000
     4  C   -0.000847  -0.000030   0.000000  -0.000000   0.000025   0.000000
     5  C    0.000751   0.000025   0.000001  -0.000002  -0.000000  -0.000000
     6  N    0.000523  -0.001552  -0.000059  -0.000097  -0.000024   0.000005
     7  C   -0.035036  -0.041735   0.004051  -0.004266   0.000443  -0.000141
     8  H    0.004074  -0.001834  -0.000079   0.003511   0.000033  -0.000099
     9  C    0.386271   0.397180  -0.035847  -0.045676  -0.002001   0.004398
    10  C   -0.032642  -0.037306   0.400131   0.395949  -0.040098  -0.038488
    11  C   -0.002233   0.004136  -0.035827  -0.045609   0.396674   0.400305
    12  C    0.000607  -0.000365   0.004216  -0.001223  -0.036593  -0.037868
    13  C   -0.006180   0.003877  -0.000382   0.000317  -0.005917   0.004148
    14  H    0.000066  -0.000050   0.000009  -0.000044   0.000008  -0.000058
    15  N    0.006957   0.000082  -0.000031   0.000004   0.006809   0.000040
    16  C    0.002479  -0.000031   0.000002  -0.000001   0.000072   0.000005
    17  H    0.000011  -0.000002  -0.000000   0.000000   0.000000   0.000000
    18  H   -0.000131   0.002772  -0.000000   0.000002   0.000000  -0.000000
    19  H    0.506423  -0.023972  -0.002587   0.003754   0.001640  -0.000070
    20  H   -0.023972   0.549877  -0.002623  -0.002959  -0.000049  -0.000090
    21  H   -0.002587  -0.002623   0.525968  -0.024687  -0.002810  -0.002062
    22  H    0.003754  -0.002959  -0.024687   0.568961   0.004060  -0.003593
    23  H    0.001640  -0.000049  -0.002810   0.004060   0.509468  -0.024979
    24  H   -0.000070  -0.000090  -0.002062  -0.003593  -0.024979   0.541027
    25  H   -0.000027   0.000011  -0.000086  -0.000082  -0.002084  -0.002385
    26  H    0.000022  -0.000035  -0.000073   0.002461   0.003821  -0.002761
    27  H    0.000076   0.000000  -0.000000   0.000000  -0.000022  -0.000000
              25         26         27
     1  O    0.000000   0.000000   0.006000
     2  N   -0.000000  -0.000000  -0.000206
     3  O    0.000000   0.000000   0.000022
     4  C    0.000019   0.000005  -0.066191
     5  C   -0.000001  -0.000001   0.002078
     6  N   -0.000072  -0.000068   0.000028
     7  C    0.005018  -0.004470  -0.000389
     8  H   -0.000007   0.001574   0.000009
     9  C   -0.000371   0.001058  -0.000058
    10  C    0.004098  -0.002415   0.000005
    11  C   -0.033859  -0.042328   0.000005
    12  C    0.395293   0.394582  -0.000020
    13  C   -0.034409  -0.044881   0.004806
    14  H   -0.002670  -0.000886  -0.000167
    15  N    0.000884   0.004203  -0.039910
    16  C   -0.000058  -0.000049   0.402324
    17  H   -0.000000   0.000000  -0.000059
    18  H    0.000002  -0.000001   0.000002
    19  H   -0.000027   0.000022   0.000076
    20  H    0.000011  -0.000035   0.000000
    21  H   -0.000086  -0.000073  -0.000000
    22  H   -0.000082   0.002461   0.000000
    23  H   -0.002084   0.003821  -0.000022
    24  H   -0.002385  -0.002761  -0.000000
    25  H    0.510213  -0.023129  -0.000011
    26  H   -0.023129   0.561556   0.000001
    27  H   -0.000011   0.000001   0.447987
 Mulliken charges:
               1
     1  O   -0.456804
     2  N    0.505325
     3  O   -0.485786
     4  C   -0.024564
     5  C    0.198936
     6  N   -0.790695
     7  C    0.055477
     8  H    0.178774
     9  C   -0.310604
    10  C   -0.321203
    11  C   -0.315826
    12  C   -0.312054
    13  C   -0.025190
    14  H    0.195267
    15  N   -0.503201
    16  C    0.125135
    17  H    0.289698
    18  H    0.397172
    19  H    0.190070
    20  H    0.154675
    21  H    0.172775
    22  H    0.149220
    23  H    0.191524
    24  H    0.162666
    25  H    0.183712
    26  H    0.151811
    27  H    0.243691
 Sum of Mulliken charges =  -0.00000
 Mulliken charges with hydrogens summed into heavy atoms:
               1
     1  O   -0.456804
     2  N    0.505325
     3  O   -0.485786
     4  C   -0.024564
     5  C    0.488635
     6  N   -0.393523
     7  C    0.234251
     9  C    0.034140
    10  C    0.000791
    11  C    0.038364
    12  C    0.023470
    13  C    0.170077
    15  N   -0.503201
    16  C    0.368827
 Electronic spatial extent (au):  <R**2>=           3129.8894
 Charge=             -0.0000 electrons
 Dipole moment (field-independent basis, Debye):
    X=              5.3724    Y=              4.4941    Z=              0.6648  Tot=              7.0357
 Quadrupole moment (field-independent basis, Debye-Ang):
   XX=           -105.5305   YY=            -80.0725   ZZ=            -82.3920
   XY=             -1.6194   XZ=              0.2713   YZ=              0.0965
 Traceless Quadrupole moment (field-independent basis, Debye-Ang):
   XX=            -16.1988   YY=              9.2591   ZZ=              6.9397
   XY=             -1.6194   XZ=              0.2713   YZ=              0.0965
 Octapole moment (field-independent basis, Debye-Ang**2):
  XXX=            102.0604  YYY=             35.9524  ZZZ=             -4.1030  XYY=             -1.7719
  XXY=             10.8666  XXZ=              2.8890  XZZ=             -7.8965  YZZ=             -2.7762
  YYZ=              1.8085  XYZ=             -0.9055
 Hexadecapole moment (field-independent basis, Debye-Ang**3):
 XXXX=          -3566.7308 YYYY=           -617.6931 ZZZZ=           -300.9648 XXXY=            -34.6066
 XXXZ=              2.1922 YYYX=            -15.0213 YYYZ=             11.9348 ZZZX=              9.5782
 ZZZY=              7.0527 XXYY=           -656.9523 XXZZ=           -545.1194 YYZZ=           -165.0554
 XXYZ=              1.0762 YYXZ=              5.5050 ZZXY=              3.0265
 N-N= 9.171332983158D+02 E-N=-3.380276412110D+03  KE= 6.588544372340D+02
 Calling FoFJK, ICntrl=  10002127 FMM=F ISym2X=0 I1Cent= 0 IOpClX= 0 NMat=1 NMatS=1 NMatT=0.
 -------------------------------------------------------------------
 Center     Atomic                   Forces (Hartrees/Bohr)
 Number     Number              X              Y              Z
 -------------------------------------------------------------------
      1        8           0.002040367   -0.019098255   -0.003253172
      2        7           0.039590242    0.012641184    0.001129232
      3        8          -0.004885423    0.016033427    0.003144492
      4        6          -0.002768673    0.007404336    0.007678876
      5        6           0.003534007   -0.015779130   -0.005197224
      6        7           0.014546521   -0.009258230   -0.007067609
      7        6          -0.004622849    0.005228795    0.003123413
      8        1          -0.010458727   -0.001609300   -0.007570671
      9        6          -0.003925389    0.000371665   -0.002089703
     10        6           0.002818656   -0.000936283    0.000921313
     11        6          -0.001000428   -0.004551855   -0.002314667
     12        6           0.000745556   -0.008872036   -0.002924609
     13        6           0.009229916   -0.001437780    0.003479855
     14        1           0.000885034    0.004255470   -0.010016281
     15        7           0.000433301   -0.000679471    0.004140448
     16        6          -0.021944291    0.008012582    0.003368530
     17        1           0.007332267   -0.006355356   -0.005436497
     18        1          -0.017870804   -0.001785506    0.005598106
     19        1           0.003149092    0.005843199    0.007666707
     20        1          -0.003183482   -0.007390045    0.002635934
     21        1          -0.004240137    0.002402180    0.009668151
     22        1          -0.004079682   -0.003980366   -0.007341378
     23        1           0.004045327    0.006113950    0.009247968
     24        1          -0.009409717    0.002581295   -0.002025124
     25        1          -0.000853913    0.010598865   -0.002436594
     26        1          -0.004797098   -0.004792988   -0.004301580
     27        1           0.005690327    0.005039653    0.000172083
 -------------------------------------------------------------------
 Cartesian Forces:  Max     0.039590242 RMS     0.008357236

 GradGradGradGradGradGradGradGradGradGradGradGradGradGradGradGradGradGrad
 Berny optimization.
 FormGI is forming the generalized inverse of G from B-inverse, IUseBI=4.
 Internal  Forces:  Max     0.037862774 RMS     0.006928242
 Search for a local minimum.
 Step number   1 out of a maximum of   20
 All quantities printed in internal units (Hartrees-Bohrs-Radians)
 Mixed Optimization -- RFO/linear search
 Second derivative matrix not updated -- first step.
 ITU=  0
     Eigenvalues ---    0.00230   0.00772   0.01097   0.01178   0.01343
     Eigenvalues ---    0.01485   0.01545   0.01871   0.02013   0.02089
     Eigenvalues ---    0.02694   0.03668   0.04509   0.04695   0.04839
     Eigenvalues ---    0.05081   0.05139   0.05305   0.05893   0.06262
     Eigenvalues ---    0.07213   0.07696   0.07717   0.07857   0.07992
     Eigenvalues ---    0.08047   0.08049   0.10455   0.11729   0.12257
     Eigenvalues ---    0.13390   0.15144   0.15625   0.15990   0.15999
     Eigenvalues ---    0.20088   0.22010   0.23224   0.24942   0.25000
     Eigenvalues ---    0.25000   0.25359   0.26215   0.26649   0.27978
     Eigenvalues ---    0.28081   0.28477   0.29514   0.31459   0.31751
     Eigenvalues ---    0.32050   0.32238   0.32291   0.32382   0.32388
     Eigenvalues ---    0.32406   0.32516   0.32527   0.32583   0.33325
     Eigenvalues ---    0.33393   0.33601   0.35395   0.43884   0.44224
     Eigenvalues ---    0.49312   0.67121   0.90404   0.911661000.00000
     Eigenvalues --- 1000.000001000.000001000.000001000.000001000.00000
     Eigenvalues --- 1000.000001000.000001000.000001000.000001000.00000
     Eigenvalues --- 1000.000001000.000001000.000001000.000001000.00000
     Eigenvalues --- 1000.000001000.000001000.000001000.000001000.00000
     Eigenvalues --- 1000.000001000.000001000.000001000.000001000.00000
     Eigenvalues --- 1000.000001000.000001000.000001000.000001000.00000
     Eigenvalues --- 1000.000001000.000001000.000001000.000001000.00000
     Eigenvalues --- 1000.000001000.000001000.000001000.000001000.00000
     Eigenvalues --- 1000.000001000.000001000.000001000.000001000.00000
     Eigenvalues --- 1000.000001000.000001000.000001000.000001000.00000
     Eigenvalues --- 1000.000001000.000001000.000001000.000001000.00000
     Eigenvalues --- 1000.000001000.000001000.000001000.000001000.00000
     Eigenvalues --- 1000.000001000.000001000.000001000.000001000.00000
     Eigenvalues --- 1000.000001000.000001000.000001000.000001000.00000
     Eigenvalues --- 1000.000001000.000001000.000001000.000001000.00000
     Eigenvalues --- 1000.000001000.000001000.000001000.000001000.00000
     Eigenvalues --- 1000.000001000.000001000.000001000.000001000.00000
     Eigenvalues --- 1000.000001000.000001000.000001000.000001000.00000
     Eigenvalues --- 1000.00000
 RFO step:  Lambda=-2.40865501D-02 EMin= 2.30213860D-03
 Linear search not attempted -- first point.
 Iteration  1 RMS(Cart)=  0.05653129 RMS(Int)=  0.00110396
 Iteration  2 RMS(Cart)=  0.00118516 RMS(Int)=  0.00025687
 Iteration  3 RMS(Cart)=  0.00000085 RMS(Int)=  0.00025687
 Iteration  1 RMS(Cart)=  0.00005697 RMS(Int)=  0.00004053
 Iteration  2 RMS(Cart)=  0.00003149 RMS(Int)=  0.00004509
 Iteration  3 RMS(Cart)=  0.00001767 RMS(Int)=  0.00005099
 Iteration  4 RMS(Cart)=  0.00001014 RMS(Int)=  0.00005517
 Iteration  5 RMS(Cart)=  0.00000608 RMS(Int)=  0.00005787
 Iteration  6 RMS(Cart)=  0.00000395 RMS(Int)=  0.00005959
 Iteration  7 RMS(Cart)=  0.00000285 RMS(Int)=  0.00006072
 Iteration  8 RMS(Cart)=  0.00000223 RMS(Int)=  0.00006149
 Iteration  9 RMS(Cart)=  0.00000185 RMS(Int)=  0.00006203
 Iteration 10 RMS(Cart)=  0.00000156 RMS(Int)=  0.00006243
 Iteration 11 RMS(Cart)=  0.00000133 RMS(Int)=  0.00006273
 Iteration 12 RMS(Cart)=  0.00000113 RMS(Int)=  0.00006297
 Iteration 13 RMS(Cart)=  0.00000096 RMS(Int)=  0.00006316
 Variable       Old X    -DE/DX   Delta X   Delta X   Delta X     New X
                                 (Linear)    (Quad)   (Total)
    R1        2.32400   0.01785   0.00000   0.01908   0.01908   2.34308
    R2        2.32747   0.01578   0.00000   0.01700   0.01700   2.34447
    R3        2.88943  -0.03786   0.00000  -0.11861  -0.11861   2.77082
    R4        2.64531  -0.03417   0.00000  -0.07371  -0.07345   2.57187
    R5        2.81101  -0.02309   0.00000  -0.06648  -0.06622   2.74479
    R6        2.58992  -0.02506   0.00000  -0.04809  -0.04799   2.54193
    R7        2.08367  -0.01049   0.00000  -0.02930  -0.02930   2.05437
    R8        2.82294  -0.01928   0.00000  -0.05294  -0.05306   2.76988
    R9        1.93293  -0.00657   0.00000  -0.01418  -0.01418   1.91875
   R10        2.11844  -0.01202   0.00000  -0.03550  -0.03550   2.08294
   R11        2.92751  -0.01297   0.00000  -0.04412  -0.04414   2.88337
   R12        2.90109  -0.00387   0.00000  -0.00728  -0.00729   2.89380
   R13        2.91145  -0.00460   0.00000  -0.01438  -0.01440   2.89705
   R14        2.09910  -0.00992   0.00000  -0.02840  -0.02840   2.07070
   R15        2.09890  -0.00805   0.00000  -0.02305  -0.02305   2.07585
   R16        2.90435  -0.00176   0.00000  -0.00705  -0.00708   2.89727
   R17        2.10139  -0.01057   0.00000  -0.03038  -0.03038   2.07101
   R18        2.10315  -0.00900   0.00000  -0.02594  -0.02594   2.07721
   R19        2.91766  -0.00913   0.00000  -0.02890  -0.02887   2.88878
   R20        2.10410  -0.01164   0.00000  -0.03360  -0.03360   2.07050
   R21        2.10108  -0.00994   0.00000  -0.02855  -0.02855   2.07253
   R22        2.93535  -0.01063   0.00000  -0.03640  -0.03638   2.89897
   R23        2.10151  -0.01075   0.00000  -0.03090  -0.03090   2.07060
   R24        2.09789  -0.00783   0.00000  -0.02237  -0.02237   2.07552
   R25        2.10753  -0.00935   0.00000  -0.02713  -0.02713   2.08041
   R26        2.76757  -0.00527   0.00000  -0.01096  -0.01135   2.75622
   R27        2.44243  -0.00473   0.00000  -0.00655  -0.00660   2.43583
   R28        2.08008  -0.00630   0.00000  -0.01750  -0.01750   2.06259
    A1        2.15719   0.01103   0.00000   0.04024   0.04023   2.19742
    A2        2.05422  -0.00709   0.00000  -0.02586  -0.02587   2.02835
    A3        2.07174  -0.00393   0.00000  -0.01432  -0.01433   2.05741
    A4        2.02975  -0.00820   0.00000  -0.02747  -0.02799   2.00176
    A5        2.03323  -0.00275   0.00000  -0.00728  -0.00791   2.02532
    A6        2.21854   0.01088   0.00000   0.03210   0.03221   2.25075
    A7        2.20447   0.00640   0.00000   0.02013   0.02054   2.22501
    A8        2.06303  -0.00347   0.00000  -0.01130  -0.01157   2.05146
    A9        2.01481  -0.00290   0.00000  -0.00812  -0.00841   2.00641
   A10        2.25610  -0.00597   0.00000  -0.02045  -0.02048   2.23563
   A11        2.11162  -0.01250   0.00000  -0.07167  -0.07210   2.03951
   A12        1.87108   0.01867   0.00000   0.10064   0.10082   1.97190
   A13        1.83876  -0.00180   0.00000  -0.01819  -0.01798   1.82077
   A14        2.00723  -0.00101   0.00000  -0.01257  -0.01261   1.99463
   A15        1.96590   0.00112   0.00000   0.00005  -0.00045   1.96545
   A16        1.85226   0.00275   0.00000   0.02431   0.02415   1.87641
   A17        1.84979   0.00098   0.00000   0.02064   0.02042   1.87021
   A18        1.93613  -0.00170   0.00000  -0.00964  -0.00931   1.92682
   A19        1.90974   0.00018   0.00000  -0.00497  -0.00511   1.90463
   A20        1.92263  -0.00075   0.00000  -0.01334  -0.01331   1.90932
   A21        1.92280  -0.00167   0.00000  -0.00666  -0.00666   1.91614
   A22        1.91937  -0.00045   0.00000   0.00535   0.00529   1.92466
   A23        1.90476   0.00309   0.00000   0.02487   0.02489   1.92964
   A24        1.88434  -0.00037   0.00000  -0.00482  -0.00507   1.87928
   A25        1.94034  -0.00084   0.00000   0.00556   0.00545   1.94579
   A26        1.91892  -0.00071   0.00000  -0.00697  -0.00698   1.91194
   A27        1.90502   0.00029   0.00000  -0.00291  -0.00297   1.90205
   A28        1.91614   0.00075   0.00000   0.00700   0.00705   1.92319
   A29        1.89856   0.00174   0.00000   0.01128   0.01131   1.90987
   A30        1.88381  -0.00122   0.00000  -0.01444  -0.01453   1.86929
   A31        1.94454   0.00075   0.00000   0.00544   0.00557   1.95011
   A32        1.90241   0.00059   0.00000   0.00591   0.00586   1.90827
   A33        1.91742   0.00037   0.00000   0.00519   0.00515   1.92257
   A34        1.90675  -0.00121   0.00000  -0.01451  -0.01456   1.89219
   A35        1.91535  -0.00048   0.00000   0.00021   0.00012   1.91547
   A36        1.87600  -0.00005   0.00000  -0.00262  -0.00265   1.87335
   A37        1.94700  -0.00306   0.00000  -0.01842  -0.01844   1.92856
   A38        1.90606   0.00255   0.00000   0.01671   0.01657   1.92263
   A39        1.91095   0.00141   0.00000   0.01332   0.01329   1.92424
   A40        1.90631   0.00023   0.00000  -0.00301  -0.00286   1.90345
   A41        1.91169  -0.00019   0.00000  -0.00445  -0.00439   1.90730
   A42        1.88062  -0.00087   0.00000  -0.00365  -0.00383   1.87678
   A43        1.84634   0.00465   0.00000   0.02305   0.02308   1.86942
   A44        1.93753  -0.00438   0.00000  -0.02997  -0.03035   1.90718
   A45        1.98567   0.00091   0.00000   0.01274   0.01294   1.99861
   A46        1.88163   0.00222   0.00000   0.02937   0.02965   1.91127
   A47        1.89175  -0.00402   0.00000  -0.02935  -0.02938   1.86237
   A48        1.91636   0.00082   0.00000  -0.00368  -0.00353   1.91284
   A49        2.08921  -0.00627   0.00000  -0.01517  -0.01555   2.07366
   A50        2.25650  -0.00541   0.00000  -0.02382  -0.02374   2.23276
   A51        1.97996   0.00497   0.00000   0.02443   0.02396   2.00392
   A52        2.04659   0.00049   0.00000   0.00007  -0.00040   2.04619
    D1       -3.05516  -0.00078   0.00000  -0.04433  -0.04324  -3.09840
    D2        0.14414   0.00006   0.00000   0.00000  -0.00000   0.14414
    D3        0.09415  -0.00120   0.00000  -0.05189  -0.05135   0.04281
    D4       -2.98973  -0.00037   0.00000  -0.00756  -0.00811  -2.99784
    D5        3.09318   0.00059   0.00000   0.02597   0.02583   3.11901
    D6       -0.00115  -0.00024   0.00000   0.00723   0.00702   0.00587
    D7       -0.11318  -0.00097   0.00000  -0.02561  -0.02610  -0.13928
    D8        3.07567  -0.00180   0.00000  -0.04436  -0.04491   3.03076
    D9       -2.77408  -0.00156   0.00000  -0.04580  -0.04640  -2.82048
   D10        0.34904   0.00143   0.00000   0.00000  -0.00000   0.34904
   D11        0.43240   0.00018   0.00000   0.00652   0.00673   0.43913
   D12       -2.72767   0.00317   0.00000   0.05232   0.05313  -2.67454
   D13       -0.07183  -0.00039   0.00000   0.01522   0.01535  -0.05648
   D14        2.71169   0.00380   0.00000   0.06661   0.06552   2.77721
   D15        3.02365   0.00040   0.00000   0.03341   0.03364   3.05728
   D16       -0.47602   0.00458   0.00000   0.08480   0.08381  -0.39221
   D17       -2.53135  -0.00062   0.00000  -0.01071  -0.01032  -2.54167
   D18        1.71885  -0.00227   0.00000  -0.02182  -0.02148   1.69737
   D19       -0.52278   0.00004   0.00000   0.00321   0.00318  -0.51960
   D20        0.93020   0.00007   0.00000  -0.03163  -0.03220   0.89800
   D21       -1.10278  -0.00157   0.00000  -0.04274  -0.04336  -1.14614
   D22        2.93877   0.00074   0.00000  -0.01771  -0.01870   2.92007
   D23        2.94537   0.00235   0.00000   0.02746   0.02736   2.97273
   D24       -1.22575   0.00143   0.00000   0.02247   0.02239  -1.20336
   D25        0.85125  -0.00053   0.00000   0.00406   0.00405   0.85530
   D26        0.92010   0.00332   0.00000   0.04074   0.04074   0.96084
   D27        3.03217   0.00240   0.00000   0.03575   0.03576   3.06793
   D28       -1.17401   0.00043   0.00000   0.01734   0.01742  -1.15659
   D29       -1.08142   0.00148   0.00000   0.00770   0.00771  -1.07371
   D30        1.03065   0.00056   0.00000   0.00271   0.00273   1.03338
   D31        3.10766  -0.00140   0.00000  -0.01570  -0.01561   3.09205
   D32       -2.89919  -0.00092   0.00000  -0.01372  -0.01347  -2.91266
   D33       -0.86266   0.00215   0.00000   0.01903   0.01892  -0.84374
   D34        1.30939   0.00045   0.00000   0.00000  -0.00001   1.30938
   D35       -0.89729  -0.00193   0.00000  -0.02327  -0.02318  -0.92048
   D36        1.13924   0.00114   0.00000   0.00949   0.00921   1.14845
   D37       -2.97190  -0.00056   0.00000  -0.00955  -0.00972  -2.98162
   D38        1.10577   0.00101   0.00000   0.01206   0.01216   1.11792
   D39       -3.14088   0.00408   0.00000   0.04481   0.04455  -3.09633
   D40       -0.96884   0.00238   0.00000   0.02578   0.02562  -0.94322
   D41        0.95665   0.00069   0.00000   0.00000   0.00000   0.95665
   D42        3.08223   0.00060   0.00000   0.00782   0.00777   3.09000
   D43       -1.13770  -0.00113   0.00000  -0.01559  -0.01556  -1.15326
   D44       -1.15739   0.00179   0.00000   0.01629   0.01637  -1.14103
   D45        0.96819   0.00170   0.00000   0.02411   0.02413   0.99232
   D46        3.03144  -0.00003   0.00000   0.00070   0.00080   3.03224
   D47        3.06179   0.00066   0.00000   0.00410   0.00407   3.06585
   D48       -1.09581   0.00057   0.00000   0.01192   0.01183  -1.08398
   D49        0.96744  -0.00116   0.00000  -0.01149  -0.01150   0.95594
   D50       -0.92193  -0.00078   0.00000   0.00000   0.00000  -0.92192
   D51        1.18354  -0.00142   0.00000  -0.01076  -0.01077   1.17278
   D52       -3.04829  -0.00092   0.00000  -0.00746  -0.00750  -3.05579
   D53       -3.04913   0.00017   0.00000   0.00033   0.00035  -3.04878
   D54       -0.94366  -0.00048   0.00000  -0.01043  -0.01042  -0.95408
   D55        1.10769   0.00002   0.00000  -0.00713  -0.00716   1.10054
   D56        1.17626   0.00019   0.00000   0.00713   0.00716   1.18342
   D57       -3.00146  -0.00046   0.00000  -0.00363  -0.00361  -3.00507
   D58       -0.95011   0.00004   0.00000  -0.00033  -0.00034  -0.95045
   D59        0.98836  -0.00087   0.00000  -0.01139  -0.01143   0.97693
   D60        3.09727  -0.00084   0.00000  -0.01581  -0.01596   3.08131
   D61       -1.13059   0.00041   0.00000  -0.00274  -0.00271  -1.13330
   D62       -1.11456  -0.00128   0.00000  -0.01263  -0.01262  -1.12718
   D63        0.99435  -0.00126   0.00000  -0.01705  -0.01715   0.97720
   D64        3.04968   0.00000   0.00000  -0.00399  -0.00391   3.04577
   D65        3.11592  -0.00024   0.00000  -0.00105  -0.00106   3.11487
   D66       -1.05836  -0.00021   0.00000  -0.00548  -0.00558  -1.06394
   D67        0.99697   0.00105   0.00000   0.00759   0.00766   1.00463
   D68       -1.05435   0.00001   0.00000  -0.00075  -0.00065  -1.05500
   D69       -3.12831   0.00156   0.00000   0.00739   0.00705  -3.12127
   D70        1.08145   0.00156   0.00000   0.01156   0.01147   1.09292
   D71        3.12008  -0.00138   0.00000  -0.00785  -0.00769   3.11240
   D72        1.04612   0.00017   0.00000   0.00029   0.00001   1.04613
   D73       -1.02730   0.00018   0.00000   0.00446   0.00443  -1.02287
   D74        1.06418  -0.00035   0.00000   0.00091   0.00111   1.06530
   D75       -1.00979   0.00120   0.00000   0.00906   0.00882  -1.00097
   D76       -3.08320   0.00120   0.00000   0.01323   0.01324  -3.06997
   D77       -1.17216   0.00427   0.00000   0.00000  -0.00001  -1.17217
   D78        3.06255   0.00060   0.00000  -0.01682  -0.01667   3.04588
   D79        1.01122  -0.00020   0.00000  -0.03307  -0.03332   0.97790
   D80        0.17311   0.00082   0.00000   0.00835   0.00819   0.18130
   D81       -2.94941  -0.00230   0.00000  -0.03912  -0.03938  -2.98880
         Item               Value     Threshold  Converged?
 Maximum Force            0.037863     0.000450     NO 
 RMS     Force            0.007015     0.000300     NO 
 Maximum Displacement     0.303911     0.001800     NO 
 RMS     Displacement     0.056709     0.001200     NO 
 Predicted change in Energy=-1.346427D-02
 GradGradGradGradGradGradGradGradGradGradGradGradGradGradGradGradGradGrad

                          Input orientation:                          
 ---------------------------------------------------------------------
 Center     Atomic      Atomic             Coordinates (Angstroms)
 Number     Number       Type             X           Y           Z
 ---------------------------------------------------------------------
      1          8           0       -3.496238   -1.398173   -0.303181
      2          7           0       -3.129308   -0.232994   -0.090855
      3          8           0       -3.873607    0.747809    0.061572
      4          6           0       -1.681544   -0.013322   -0.015836
      5          6           0       -1.314627    1.265591    0.270522
      6          7           0       -0.066951    1.744543    0.423150
      7          6           0        1.197135    1.003591    0.384238
      8          1           0        1.838571    1.520013    1.116914
      9          6           0        1.910512    1.050100   -0.963739
     10          6           0        3.314559    0.454092   -0.809864
     11          6           0        3.263084   -0.957996   -0.214918
     12          6           0        2.459185   -0.995688    1.084768
     13          6           0        1.045547   -0.444633    0.858210
     14          1           0        0.488509   -0.459821    1.807667
     15          7           0        0.398926   -1.331240   -0.102577
     16          6           0       -0.845318   -1.143142   -0.381797
     17          1           0       -2.107287    1.994260    0.420781
     18          1           0        0.056912    2.745994    0.310429
     19          1           0        1.334244    0.479083   -1.700326
     20          1           0        1.968798    2.088266   -1.317996
     21          1           0        3.813967    0.435636   -1.785220
     22          1           0        3.909603    1.105568   -0.154298
     23          1           0        2.791370   -1.637433   -0.933479
     24          1           0        4.279118   -1.328722   -0.033091
     25          1           0        2.387134   -2.024624    1.454492
     26          1           0        2.960735   -0.400136    1.859412
     27          1           0       -1.341990   -1.903643   -0.987001
 ---------------------------------------------------------------------
                    Distance matrix (angstroms):
                    1          2          3          4          5
     1  O    0.000000
     2  N    1.239904   0.000000
     3  O    2.209229   1.240640   0.000000
     4  C    2.300760   1.466256   2.321735   0.000000
     5  C    3.490588   2.381054   2.619186   1.360973   0.000000
     6  N    4.707890   3.681424   3.951562   2.426871   1.345134
     7  C    5.316838   4.524707   5.087432   3.079117   2.527949
     8  H    6.244411   5.404772   5.859951   4.003179   3.274716
     9  C    5.971878   5.273333   5.882064   3.864227   3.459965
    10  C    7.076338   6.520160   7.246751   5.080354   4.822357
    11  C    6.774214   6.434571   7.342927   5.037994   5.112282
    12  C    6.128251   5.761515   6.647629   4.395681   4.474153
    13  C    4.783919   4.286600   5.123927   2.896033   2.973326
    14  H    4.605908   4.091997   4.851317   2.869434   2.931069
    15  N    3.900900   3.695229   4.754359   2.464302   3.133528
    16  C    2.664319   2.475809   3.597611   1.452479   2.539245
    17  H    3.736565   2.503390   2.191475   2.098161   1.087127
    18  H    5.493224   4.380342   4.416294   3.277576   2.018491
    19  H    5.367463   4.797994   5.504381   3.489261   3.394017
    20  H    6.561381   5.734528   6.150913   4.408774   3.739126
    21  H    7.681041   7.178231   7.912451   5.790761   5.587251
    22  H    7.819039   7.165337   7.794418   5.703684   5.243917
    23  H    6.323649   6.143036   7.148526   4.846314   5.170723
    24  H    7.780356   7.489242   8.413553   6.104102   6.173543
    25  H    6.172189   6.002430   6.987380   4.770884   5.092184
    26  H    6.882251   6.396883   7.159486   5.021646   4.855712
    27  H    2.316008   2.605504   3.812976   2.152155   3.409715
                    6          7          8          9         10
     6  N    0.000000
     7  C    1.465755   0.000000
     8  H    2.040279   1.102245   0.000000
     9  C    2.513179   1.525815   2.134270   0.000000
    10  C    3.823636   2.492250   2.650886   1.533053   0.000000
    11  C    4.335894   2.911178   3.153338   2.534291   1.533167
    12  C    3.785231   2.465894   2.591322   2.946638   2.534395
    13  C    2.493877   1.531333   2.134397   2.510356   2.956111
    14  H    2.661699   2.160990   2.493903   3.461596   3.958947
    15  N    3.154975   2.515067   3.418973   2.949114   3.491215
    16  C    3.097179   3.060537   4.067160   3.569813   4.476491
    17  H    2.055561   3.449922   4.034762   4.353279   5.769143
    18  H    1.015358   2.083632   2.308193   2.816982   4.137648
    19  H    2.841458   2.153907   3.045442   1.095767   2.171450
    20  H    2.700742   2.160922   2.503728   1.098492   2.177107
    21  H    4.653134   3.446292   3.674294   2.162299   1.095932
    22  H    4.068749   2.767292   2.465141   2.157460   1.099211
    23  H    4.631220   3.354545   3.883478   2.828367   2.159510
    24  H    5.342418   3.887476   3.923528   3.483561   2.170755
    25  H    4.614414   3.425146   3.602684   3.940677   3.483024
    26  H    3.978616   2.693859   2.344681   3.343103   2.824878
    27  H    4.113819   4.096274   5.124826   4.393621   5.222426
                   11         12         13         14         15
    11  C    0.000000
    12  C    1.528679   0.000000
    13  C    2.516469   1.534068   0.000000
    14  H    3.469481   2.166403   1.100905   0.000000
    15  N    2.890559   2.401469   1.458527   2.101530   0.000000
    16  C    4.115956   3.618328   2.366623   2.653258   1.288987
    17  H    6.161234   5.498485   4.009976   3.831987   4.196899
    18  H    4.926973   4.513392   3.384902   3.564442   4.112345
    19  H    2.827023   3.346221   2.735453   3.728650   2.589381
    20  H    3.488792   3.940118   3.464656   4.295786   3.954082
    21  H    2.170606   3.481516   3.927689   4.976882   4.197099
    22  H    2.163321   2.838006   3.410442   4.243069   4.273823
    23  H    1.095664   2.143713   2.771429   3.768796   2.551066
    24  H    1.096734   2.161637   3.468719   4.302569   3.880815
    25  H    2.166083   1.095717   2.156798   2.485582   2.618820
    26  H    2.169209   1.098320   2.161557   2.473487   3.358455
    27  H    4.764143   4.423295   3.351693   3.639439   2.034856
                   16         17         18         19         20
    16  C    0.000000
    17  H    3.475628   0.000000
    18  H    4.051984   2.293695   0.000000
    19  H    3.020037   4.317290   3.288403   0.000000
    20  H    4.386082   4.432454   2.596089   1.771526   0.000000
    21  H    5.115767   6.508225   4.883129   2.481556   2.520741
    22  H    5.264763   6.109292   4.213098   3.068413   2.467106
    23  H    3.711357   6.246603   5.314038   2.681588   3.834751
    24  H    5.139638   7.213486   5.877784   3.836681   4.320228
    25  H    3.820695   6.117173   5.431170   4.162932   4.977706
    26  H    4.478964   5.786850   4.552985   4.011264   4.155961
    27  H    1.091474   4.214401   5.025870   3.653552   5.196750
                   21         22         23         24         25
    21  H    0.000000
    22  H    1.765746   0.000000
    23  H    2.463490   3.062944   0.000000
    24  H    2.529680   2.465158   1.766182   0.000000
    25  H    4.310970   3.834608   2.452699   2.505352   0.000000
    26  H    3.835344   2.687476   3.059384   2.486358   1.769728
    27  H    5.717803   6.109662   4.142269   5.730387   4.458911
                   26         27
    26  H    0.000000
    27  H    5.373643   0.000000
 Symmetry turned off by external request.
 Stoichiometry    C9H13N3O2
 Framework group  C1[X(C9H13N3O2)]
 Deg. of freedom    75
 Full point group                 C1      NOp   1
 Rotational constants (GHZ):           1.6825041           0.4211666           0.3722890
 Standard basis: 6-31G(d) (6D, 7F)
   236 basis functions,   444 primitive gaussians,   236 cartesian basis functions
    52 alpha electrons       52 beta electrons
       nuclear repulsion energy       931.9724399736 Hartrees.
 NAtoms=   27 NActive=   27 NUniq=   27 SFac= 1.00D+00 NAtFMM=   60 NAOKFM=F Big=F
 Integral buffers will be    131072 words long.
 Raffenetti 1 integral format.
 Two-electron integral symmetry is turned off.
 One-electron integrals computed using PRISM.
 NBasis=   236 RedAO= T EigKep=  1.01D-03  NBF=   236
 NBsUse=   236 1.00D-06 EigRej= -1.00D+00 NBFU=   236
 Initial guess from the checkpoint file:  "/home/alexey/tmp/Gau-1435703.chk"
 B after Tr=     0.056878    0.005465    0.000066
         Rot=    0.999998   -0.001103    0.000877    0.001198 Ang=  -0.21 deg.
 ExpMin= 1.61D-01 ExpMax= 5.48D+03 ExpMxC= 8.25D+02 IAcc=3 IRadAn=         5 AccDes= 0.00D+00
 Harris functional with IExCor=  205 and IRadAn=       5 diagonalized for initial guess.
 HarFok:  IExCor=  205 AccDes= 0.00D+00 IRadAn=         5 IDoV= 1 UseB2=F ITyADJ=14
 ICtDFT=  3500011 ScaDFX=  1.000000  1.000000  1.000000  1.000000
 FoFCou: FMM=F IPFlag=           0 FMFlag=      100000 FMFlg1=           0
         NFxFlg=           0 DoJE=T BraDBF=F KetDBF=T FulRan=T
         wScrn=  0.000000 ICntrl=       500 IOpCl=  0 I1Cent=   200000004 NGrid=           0
         NMat0=    1 NMatS0=      1 NMatT0=    0 NMatD0=    1 NMtDS0=    0 NMtDT0=    0
 Symmetry not used in FoFCou.
 Keep R1 ints in memory in canonical form, NReq=397720213.
 Requested convergence on RMS density matrix=1.00D-08 within 128 cycles.
 Requested convergence on MAX density matrix=1.00D-06.
 Requested convergence on             energy=1.00D-06.
 No special actions if energy rises.
 SCF Done:  E(RHF) =  -661.298656520     A.U. after   14 cycles
            NFock= 14  Conv=0.94D-08     -V/T= 2.0024
 ExpMin= 1.61D-01 ExpMax= 5.48D+03 ExpMxC= 8.25D+02 IAcc=3 IRadAn=         5 AccDes= 0.00D+00
 HarFok:  IExCor=  205 AccDes= 0.00D+00 IRadAn=         5 IDoV=-2 UseB2=F ITyADJ=14
 ICtDFT= 12500011 ScaDFX=  1.000000  1.000000  1.000000  1.000000
 Range of M.O.s used for correlation:    15   236
 NBasis=   236 NAE=    52 NBE=    52 NFC=    14 NFV=     0
 NROrb=    222 NOA=    38 NOB=    38 NVA=   184 NVB=   184
 Fully direct method using O(ONN) memory.
 JobTyp=1 Pass  1:  I=  15 to  52 NPSUse=  4 ParTrn=T ParDer=T DoDerP=T.
 Spin components of T(2) and E(2):
     alpha-alpha T2 =       0.9128016219D-01 E2=     -0.2723776297D+00
     alpha-beta  T2 =       0.4911850617D+00 E2=     -0.1487932643D+01
     beta-beta   T2 =       0.9128016219D-01 E2=     -0.2723776297D+00
 ANorm=    0.1293733120D+01
 E2 =    -0.2032687902D+01 EUMP2 =    -0.66333134442234D+03
          IDoAtm=111111111111111111111111111
          Differentiating once with respect to electric field.
                with respect to dipole field.
          Differentiating once with respect to nuclear coordinates.
 Keep R1 ints in memory in canonical form, NReq=397723379.
          There are     1 degrees of freedom in the 1st order CPHF.  IDoFFX=0 NUNeed=     1.
 LinEq1:  Iter=  0 NonCon=     1 RMS=4.58D-03 Max=1.06D-01 NDo=     1
 AX will form     1 AO Fock derivatives at one time.
 LinEq1:  Iter=  1 NonCon=     1 RMS=1.54D-03 Max=2.92D-02 NDo=     1
 LinEq1:  Iter=  2 NonCon=     1 RMS=6.44D-04 Max=1.79D-02 NDo=     1
 LinEq1:  Iter=  3 NonCon=     1 RMS=2.81D-04 Max=8.27D-03 NDo=     1
 LinEq1:  Iter=  4 NonCon=     1 RMS=8.75D-05 Max=1.99D-03 NDo=     1
 LinEq1:  Iter=  5 NonCon=     1 RMS=3.65D-05 Max=1.76D-03 NDo=     1
 LinEq1:  Iter=  6 NonCon=     1 RMS=1.41D-05 Max=5.29D-04 NDo=     1
[...]
                   16         17         18         19         20
    16  C    0.000000
    17  H    3.463905   0.000000
    18  H    4.088253   2.235769   0.000000
    19  H    2.990826   4.303696   3.511922   0.000000
    20  H    4.375190   4.449468   2.881995   1.768523   0.000000
    21  H    5.096717   6.511450   5.086511   2.499201   2.521050
    22  H    5.248825   6.100588   4.313219   3.070236   2.461443
    23  H    3.695174   6.235156   5.421168   2.704222   3.842899
    24  H    5.133953   7.200890   5.936608   3.849627   4.317075
    25  H    3.821538   6.088154   5.369589   4.171506   4.984997
    26  H    4.495285   5.781120   4.485189   4.036047   4.182281
    27  H    1.089678   4.215355   5.079296   3.583545   5.148052
                   21         22         23         24         25
    21  H    0.000000
    22  H    1.758862   0.000000
    23  H    2.469420   3.062262   0.000000
    24  H    2.517309   2.459858   1.764575   0.000000
    25  H    4.311976   3.839498   2.444089   2.519684   0.000000
    26  H    3.846715   2.704380   3.060431   2.491695   1.767978
    27  H    5.653209   6.060625   4.090695   5.694954   4.454492
                   26         27
    26  H    0.000000
    27  H    5.378604   0.000000
 Symmetry turned off by external request.
 Stoichiometry    C9H13N3O2
 Framework group  C1[X(C9H13N3O2)]
 Deg. of freedom    75
 Full point group                 C1      NOp   1
 Rotational constants (GHZ):           1.6801451           0.4193364           0.3721380

 **********************************************************************

            Population analysis using the SCF Density.

 **********************************************************************

 Alpha  occ. eigenvalues --  -20.59236 -20.58904 -15.84722 -15.64136 -15.56112
 Alpha  occ. eigenvalues --  -11.35017 -11.29622 -11.29559 -11.28627 -11.27134
 Alpha  occ. eigenvalues --  -11.23728 -11.23208 -11.22692 -11.22089  -1.57116
 Alpha  occ. eigenvalues --   -1.36708  -1.30978  -1.23065  -1.14704  -1.09820
 Alpha  occ. eigenvalues --   -1.02805  -1.01309  -0.94482  -0.89685  -0.85567
 Alpha  occ. eigenvalues --   -0.82448  -0.78609  -0.77411  -0.75203  -0.72020
 Alpha  occ. eigenvalues --   -0.69770  -0.69438  -0.67820  -0.64893  -0.63777
 Alpha  occ. eigenvalues --   -0.62368  -0.60282  -0.57701  -0.57001  -0.55077
 Alpha  occ. eigenvalues --   -0.54582  -0.50763  -0.50109  -0.48656  -0.48102
 Alpha  occ. eigenvalues --   -0.47372  -0.46147  -0.46045  -0.43677  -0.41696
 Alpha  occ. eigenvalues --   -0.39848  -0.33830
 Alpha virt. eigenvalues --    0.07464   0.11800   0.17307   0.21848   0.24113
 Alpha virt. eigenvalues --    0.25664   0.27134   0.28694   0.29044   0.29636
 Alpha virt. eigenvalues --    0.30683   0.31797   0.32036   0.32767   0.33950
 Alpha virt. eigenvalues --    0.34386   0.35850   0.37313   0.38581   0.40292
 Alpha virt. eigenvalues --    0.41388   0.42444   0.45026   0.46117   0.46730
 Alpha virt. eigenvalues --    0.47077   0.49000   0.53997   0.57579   0.59404
 Alpha virt. eigenvalues --    0.63913   0.69543   0.69909   0.72860   0.74242
 Alpha virt. eigenvalues --    0.74868   0.75781   0.76678   0.78660   0.79441
 Alpha virt. eigenvalues --    0.81386   0.84693   0.85719   0.85806   0.88530
 Alpha virt. eigenvalues --    0.89424   0.91050   0.92113   0.92854   0.94528
 Alpha virt. eigenvalues --    0.95644   0.98040   0.99638   1.01676   1.02472
 Alpha virt. eigenvalues --    1.03152   1.05873   1.06969   1.07901   1.09014
 Alpha virt. eigenvalues --    1.10283   1.11421   1.11855   1.12444   1.13916
 Alpha virt. eigenvalues --    1.14766   1.14990   1.15831   1.16902   1.18726
 Alpha virt. eigenvalues --    1.19138   1.21337   1.22575   1.23915   1.24536
 Alpha virt. eigenvalues --    1.24829   1.26039   1.26910   1.27486   1.29558
 Alpha virt. eigenvalues --    1.30008   1.33126   1.36071   1.37180   1.40861
 Alpha virt. eigenvalues --    1.41851   1.46490   1.48741   1.51698   1.54290
 Alpha virt. eigenvalues --    1.56373   1.58778   1.59556   1.63465   1.65630
 Alpha virt. eigenvalues --    1.68032   1.68631   1.72993   1.75223   1.77368
 Alpha virt. eigenvalues --    1.81580   1.84599   1.87685   1.90654   1.93496
 Alpha virt. eigenvalues --    1.95817   1.96957   1.99719   2.01572   2.02522
 Alpha virt. eigenvalues --    2.05104   2.05606   2.08497   2.09561   2.12396
 Alpha virt. eigenvalues --    2.13265   2.15297   2.18823   2.20015   2.22451
 Alpha virt. eigenvalues --    2.22637   2.24493   2.25494   2.28214   2.29549
 Alpha virt. eigenvalues --    2.31996   2.33725   2.34702   2.36399   2.38467
 Alpha virt. eigenvalues --    2.40482   2.41927   2.43868   2.45139   2.47365
 Alpha virt. eigenvalues --    2.50722   2.51948   2.53114   2.55573   2.61509
 Alpha virt. eigenvalues --    2.62310   2.65193   2.67627   2.70319   2.70495
 Alpha virt. eigenvalues --    2.72273   2.72653   2.76985   2.78443   2.83809
 Alpha virt. eigenvalues --    2.88565   2.88949   2.92944   2.93138   2.96059
 Alpha virt. eigenvalues --    2.99439   3.01344   3.04316   3.05724   3.07679
 Alpha virt. eigenvalues --    3.09416   3.15048   3.21214   3.25218   3.27459
 Alpha virt. eigenvalues --    3.33447   3.37785   3.38788   3.52170   3.65801
 Alpha virt. eigenvalues --    4.13675   4.28076   4.34715   4.38920   4.46297
 Alpha virt. eigenvalues --    4.56310   4.61873   4.62354   4.73464   4.79741
 Alpha virt. eigenvalues --    4.99415   5.00899   5.05022   5.11168
          Condensed to atoms (all electrons):
               1          2          3          4          5          6
     1  O    8.316133   0.306958  -0.082546  -0.085465   0.004640  -0.000016
     2  N    0.306958   5.722396   0.301245   0.264160  -0.053640   0.000970
     3  O   -0.082546   0.301245   8.353633  -0.092656   0.003640   0.000785
     4  C   -0.085465   0.264160  -0.092656   5.225607   0.560327  -0.047281
     5  C    0.004640  -0.053640   0.003640   0.560327   4.709997   0.317417
     6  N   -0.000016   0.000970   0.000785  -0.047281   0.317417   7.195600
     7  C    0.000004  -0.000140   0.000002   0.004629  -0.030203   0.169259
     8  H   -0.000000   0.000002  -0.000000  -0.000261   0.003095  -0.050678
     9  C   -0.000000  -0.000004  -0.000000   0.000855   0.000626  -0.061646
    10  C    0.000000   0.000000   0.000000  -0.000038  -0.000052   0.003748
    11  C   -0.000000  -0.000000  -0.000000  -0.000028   0.000025  -0.000190
    12  C   -0.000000   0.000002  -0.000000  -0.000127  -0.000176   0.003874
    13  C   -0.000025  -0.000039  -0.000004  -0.011558  -0.000585  -0.047698
    14  H   -0.000004  -0.000105   0.000001   0.002645   0.006079  -0.006961
    15  N    0.000382   0.002363  -0.000016  -0.063525  -0.006396   0.001596
    16  C    0.000836  -0.027274   0.002548   0.328491  -0.050331  -0.001860
    17  H    0.000220  -0.007232   0.017389  -0.023147   0.374519  -0.034188
    18  H    0.000001  -0.000050   0.000012   0.001507  -0.031448   0.338684
    19  H    0.000001  -0.000004   0.000000  -0.001225   0.001232  -0.000351
    20  H    0.000000  -0.000000   0.000000  -0.000079   0.000153  -0.000429
    21  H   -0.000000   0.000000   0.000000   0.000001   0.000001  -0.000077
    22  H   -0.000000   0.000000  -0.000000  -0.000000  -0.000003  -0.000117
    23  H    0.000000  -0.000000   0.000000   0.000040  -0.000000  -0.000031
    24  H    0.000000   0.000000   0.000000   0.000000  -0.000000   0.000006
    25  H    0.000000  -0.000000   0.000000   0.000024   0.000000  -0.000090
    26  H    0.000000  -0.000000   0.000000   0.000006  -0.000002  -0.000060
    27  H    0.006130  -0.000880   0.000018  -0.063398   0.002215   0.000017
               7          8          9         10         11         12
     1  O    0.000004  -0.000000  -0.000000   0.000000  -0.000000  -0.000000
     2  N   -0.000140   0.000002  -0.000004   0.000000  -0.000000   0.000002
     3  O    0.000002  -0.000000  -0.000000   0.000000  -0.000000  -0.000000
     4  C    0.004629  -0.000261   0.000855  -0.000038  -0.000028  -0.000127
     5  C   -0.030203   0.003095   0.000626  -0.000052   0.000025  -0.000176
     6  N    0.169259  -0.050678  -0.061646   0.003748  -0.000190   0.003874
     7  C    5.017563   0.418423   0.350527  -0.054669  -0.009030  -0.061076
     8  H    0.418423   0.538100  -0.055047   0.000777  -0.000326  -0.002230
     9  C    0.350527  -0.055047   5.158234   0.324773  -0.050417  -0.005344
    10  C   -0.054669   0.000777   0.324773   5.119315   0.337000  -0.060992
    11  C   -0.009030  -0.000326  -0.050417   0.337000   5.119921   0.335975
    12  C   -0.061076  -0.002230  -0.005344  -0.060992   0.335975   5.118625
    13  C    0.338608  -0.037943  -0.060239  -0.000287  -0.050690   0.371984
    14  H   -0.046598  -0.000746   0.004423  -0.000405   0.004195  -0.036322
    15  N   -0.057957   0.003901  -0.014619   0.001561  -0.013048  -0.082041
    16  C   -0.001775   0.000010  -0.001271  -0.000029   0.000029   0.002608
    17  H    0.001617  -0.000045  -0.000070   0.000001   0.000000   0.000000
    18  H   -0.021217  -0.004474   0.001328  -0.000083   0.000004  -0.000114
    19  H   -0.036856   0.004362   0.390222  -0.032068  -0.002212   0.000689
    20  H   -0.042416  -0.002078   0.399488  -0.035303   0.003931  -0.000415
    21  H    0.004599  -0.000076  -0.036354   0.402434  -0.034897   0.004349
    22  H   -0.004848   0.003559  -0.046954   0.397754  -0.045405  -0.001021
    23  H    0.000577   0.000035  -0.001958  -0.039020   0.399179  -0.037864
    24  H   -0.000130  -0.000102   0.004389  -0.038440   0.402342  -0.038691
    25  H    0.005153  -0.000025  -0.000423   0.004190  -0.033399   0.398273
    26  H   -0.003907   0.001685   0.000969  -0.002232  -0.041482   0.396732
    27  H   -0.000407   0.000009  -0.000058   0.000007   0.000012  -0.000036
              13         14         15         16         17         18
     1  O   -0.000025  -0.000004   0.000382   0.000836   0.000220   0.000001
     2  N   -0.000039  -0.000105   0.002363  -0.027274  -0.007232  -0.000050
     3  O   -0.000004   0.000001  -0.000016   0.002548   0.017389   0.000012
     4  C   -0.011558   0.002645  -0.063525   0.328491  -0.023147   0.001507
     5  C   -0.000585   0.006079  -0.006396  -0.050331   0.374519  -0.031448
     6  N   -0.047698  -0.006961   0.001596  -0.001860  -0.034188   0.338684
     7  C    0.338608  -0.046598  -0.057957  -0.001775   0.001617  -0.021217
     8  H   -0.037943  -0.000746   0.003901   0.000010  -0.000045  -0.004474
     9  C   -0.060239   0.004423  -0.014619  -0.001271  -0.000070   0.001328
    10  C   -0.000287  -0.000405   0.001561  -0.000029   0.000001  -0.000083
    11  C   -0.050690   0.004195  -0.013048   0.000029   0.000000   0.000004
    12  C    0.371984  -0.036322  -0.082041   0.002608   0.000000  -0.000114
    13  C    5.040237   0.403080   0.244790  -0.071088  -0.000009   0.002971
    14  H    0.403080   0.526780  -0.037369  -0.004537   0.000093  -0.000109
    15  N    0.244790  -0.037369   6.965080   0.585194  -0.000080  -0.000132
    16  C   -0.071088  -0.004537   0.585194   4.709962   0.002013  -0.000197
    17  H   -0.000009   0.000093  -0.000080   0.002013   0.376505  -0.002818
    18  H    0.002971  -0.000109  -0.000132  -0.000197  -0.002818   0.310604
    19  H   -0.007547   0.000106   0.007696   0.003002   0.000016  -0.000149
    20  H    0.004340  -0.000066   0.000126  -0.000036   0.000002   0.000807
    21  H   -0.000433   0.000010  -0.000041   0.000004  -0.000000   0.000001
    22  H    0.000045  -0.000055   0.000019  -0.000002   0.000000   0.000001
    23  H   -0.007521   0.000003   0.008588   0.000105   0.000000   0.000000
    24  H    0.004700  -0.000057   0.000135   0.000007   0.000000  -0.000000
    25  H   -0.035565  -0.002817   0.000409  -0.000022  -0.000000   0.000002
    26  H   -0.047405  -0.001047   0.004898  -0.000061   0.000000  -0.000000
    27  H    0.005059  -0.000174  -0.040313   0.403666  -0.000079   0.000001
              19         20         21         22         23         24
     1  O    0.000001   0.000000  -0.000000  -0.000000   0.000000   0.000000
     2  N   -0.000004  -0.000000   0.000000   0.000000  -0.000000   0.000000
     3  O    0.000000   0.000000   0.000000  -0.000000   0.000000   0.000000
     4  C   -0.001225  -0.000079   0.000001  -0.000000   0.000040   0.000000
     5  C    0.001232   0.000153   0.000001  -0.000003  -0.000000  -0.000000
     6  N   -0.000351  -0.000429  -0.000077  -0.000117  -0.000031   0.000006
     7  C   -0.036856  -0.042416   0.004599  -0.004848   0.000577  -0.000130
     8  H    0.004362  -0.002078  -0.000076   0.003559   0.000035  -0.000102
     9  C    0.390222   0.399488  -0.036354  -0.046954  -0.001958   0.004389
    10  C   -0.032068  -0.035303   0.402434   0.397754  -0.039020  -0.038440
    11  C   -0.002212   0.003931  -0.034897  -0.045405   0.399179   0.402342
    12  C    0.000689  -0.000415   0.004349  -0.001021  -0.037864  -0.038691
    13  C   -0.007547   0.004340  -0.000433   0.000045  -0.007521   0.004700
    14  H    0.000106  -0.000066   0.000010  -0.000055   0.000003  -0.000057
    15  N    0.007696   0.000126  -0.000041   0.000019   0.008588   0.000135
    16  C    0.003002  -0.000036   0.000004  -0.000002   0.000105   0.000007
    17  H    0.000016   0.000002  -0.000000   0.000000   0.000000   0.000000
    18  H   -0.000149   0.000807   0.000001   0.000001   0.000000  -0.000000
    19  H    0.504941  -0.024737  -0.002787   0.003959   0.001514  -0.000066
    20  H   -0.024737   0.541159  -0.002692  -0.002990  -0.000045  -0.000083
    21  H   -0.002787  -0.002692   0.524020  -0.027402  -0.002898  -0.002242
    22  H    0.003959  -0.002990  -0.027402   0.571319   0.004137  -0.003656
    23  H    0.001514  -0.000045  -0.002898   0.004137   0.498961  -0.025450
    24  H   -0.000066  -0.000083  -0.002242  -0.003656  -0.025450   0.538124
    25  H   -0.000029   0.000012  -0.000087  -0.000080  -0.002318  -0.002292
    26  H    0.000019  -0.000030  -0.000081   0.002380   0.004067  -0.003035
    27  H    0.000083   0.000000  -0.000000   0.000000  -0.000035  -0.000000
              25         26         27
     1  O    0.000000   0.000000   0.006130
     2  N   -0.000000  -0.000000  -0.000880
     3  O    0.000000   0.000000   0.000018
     4  C    0.000024   0.000006  -0.063398
     5  C    0.000000  -0.000002   0.002215
     6  N   -0.000090  -0.000060   0.000017
     7  C    0.005153  -0.003907  -0.000407
     8  H   -0.000025   0.001685   0.000009
     9  C   -0.000423   0.000969  -0.000058
    10  C    0.004190  -0.002232   0.000007
    11  C   -0.033399  -0.041482   0.000012
    12  C    0.398273   0.396732  -0.000036
    13  C   -0.035565  -0.047405   0.005059
    14  H   -0.002817  -0.001047  -0.000174
    15  N    0.000409   0.004898  -0.040313
    16  C   -0.000022  -0.000061   0.403666
    17  H   -0.000000   0.000000  -0.000079
    18  H    0.000002  -0.000000   0.000001
    19  H   -0.000029   0.000019   0.000083
    20  H    0.000012  -0.000030   0.000000
    21  H   -0.000087  -0.000081  -0.000000
    22  H   -0.000080   0.002380   0.000000
    23  H   -0.002318   0.004067  -0.000035
    24  H   -0.002292  -0.003035  -0.000000
    25  H    0.506114  -0.024081  -0.000013
    26  H   -0.024081   0.562313   0.000001
    27  H   -0.000013   0.000001   0.439267
 Mulliken charges:
               1
     1  O   -0.467249
     2  N    0.491271
     3  O   -0.504051
     4  C    0.000497
     5  C    0.188871
     6  N   -0.780282
     7  C    0.060269
     8  H    0.180072
     9  C   -0.301429
    10  C   -0.327942
    11  C   -0.321488
    12  C   -0.306664
    13  C   -0.037179
    14  H    0.189955
    15  N   -0.511203
    16  C    0.120009
    17  H    0.295291
    18  H    0.404870
    19  H    0.190190
    20  H    0.161382
    21  H    0.174649
    22  H    0.149361
    23  H    0.199934
    24  H    0.164541
    25  H    0.187062
    26  H    0.150353
    27  H    0.248909
 Sum of Mulliken charges =  -0.00000
 Mulliken charges with hydrogens summed into heavy atoms:
               1
     1  O   -0.467249
     2  N    0.491271
     3  O   -0.504051
     4  C    0.000497
     5  C    0.484162
     6  N   -0.375413
     7  C    0.240341
     9  C    0.050143
    10  C   -0.003931
    11  C    0.042987
    12  C    0.030752
    13  C    0.152776
    15  N   -0.511203
    16  C    0.368918
 Electronic spatial extent (au):  <R**2>=           3005.3577
 Charge=              0.0000 electrons
 Dipole moment (field-independent basis, Debye):
    X=              5.4165    Y=              4.7977    Z=              1.2742  Tot=              7.3471
 Quadrupole moment (field-independent basis, Debye-Ang):
   XX=           -106.1405   YY=            -79.2237   ZZ=            -81.5025
   XY=             -1.7695   XZ=             -0.1130   YZ=              1.8568
 Traceless Quadrupole moment (field-independent basis, Debye-Ang):
   XX=            -17.1850   YY=              9.7319   ZZ=              7.4531
   XY=             -1.7695   XZ=             -0.1130   YZ=              1.8568
 Octapole moment (field-independent basis, Debye-Ang**2):
  XXX=             92.4147  YYY=             36.3190  ZZZ=             -1.5876  XYY=             -4.5746
  XXY=              9.5589  XXZ=              4.7983  XZZ=             -9.7655  YZZ=             -0.3984
  YYZ=              7.9311  XYZ=              0.2439
 Hexadecapole moment (field-independent basis, Debye-Ang**3):
 XXXX=          -3382.1555 YYYY=           -600.9599 ZZZZ=           -303.8312 XXXY=            -21.1029
 XXXZ=            -12.4042 YYYX=             -9.0855 YYYZ=             25.1238 ZZZX=              2.5378
 ZZZY=              7.2095 XXYY=           -627.7789 XXZZ=           -523.7835 YYZZ=           -157.3388
 XXYZ=             -4.1977 YYXZ=              1.9494 ZZXY=              4.6589
 N-N= 9.312387331119D+02 E-N=-3.409194106223D+03  KE= 6.596292987286D+02
 Unable to Open any file for archive entry.
 1\1\GINC-LOTUS\FOpt\RMP2-FC\6-31G(d)\C9H13N3O2\ALEXEY\02-Jul-2023\0\\#
 MP2/6-31G* SCF=Tight Opt=(ModRedun, MaxCycle=20 ) NoSymm\\MolName:\\0,
 1\O,-3.5068587996,-1.3911485788,-0.3675871734\N,-3.1211410395,-0.23281
 00462,-0.1160152955\O,-3.8954872439,0.7281608894,0.0581002238\C,-1.686
 6949687,-0.0240681166,-0.0082548414\C,-1.3014125068,1.2606413111,0.275
 438777\N,-0.0571585957,1.750371422,0.3852533658\C,1.2057072544,1.02429
 81389,0.3581909851\H,1.8537481347,1.5538856531,1.0728582388\C,1.908578
 9478,1.0343131533,-0.997959859\C,3.307101523,0.4279563147,-0.834022461
 4\C,3.2595264753,-0.9676070138,-0.2062366965\C,2.4651203972,-0.9771684
 572,1.1015936681\C,1.0552385646,-0.4238430952,0.865318173\H,0.47913739
 97,-0.401730071,1.8039846678\N,0.4082760877,-1.3180152975,-0.089874089
 1\C,-0.8392058523,-1.1385248275,-0.3847848655\H,-2.0961180974,1.987611
 6847,0.4190044001\H,0.0017674517,2.7357020843,0.6136871169\H,1.3140786
 507,0.4562101403,-1.7134034962\H,1.9742826331,2.0619334439,-1.37656829
 42\H,3.8106340333,0.3890737531,-1.8067400906\H,3.9071091241,1.09485496
 99,-0.1985856822\H,2.7816142778,-1.6650217561,-0.9012874138\H,4.278808
 0609,-1.3308543212,-0.0292398882\H,2.3799491371,-1.9987654362,1.486358
 4454\H,2.9753847964,-0.3786190553,1.8688856103\H,-1.3009458455,-1.8938
 56886,-1.0201335252\\Version=ES64L-G16RevC.02\HF=-661.3003651\MP2=-663
 .3346494\RMSD=5.488e-09\RMSF=1.032e-05\Dipole=1.9794521,1.6924581,0.46
 87118\PG=C01 [X(C9H13N3O2)]\\@
 The archive entry for this job was punched.


 LAWS OF PROGRAMMING DEFINITION:  A WORKING PROGRAM
                                  IS ONE THAT HAS
                                  ONLY UNOBSERVED
                                  BUGS.
 Job cpu time:       0 days  1 hours 25 minutes 29.9 seconds.
 Elapsed time:       0 days  0 hours 25 minutes 34.4 seconds.
 File lengths (MBytes):  RWF=     36 Int=      0 D2E=      0 Chk=      7 Scr=      1
 Normal termination of Gaussian 16 at Sun Jul  2 03:37:10 2023.
