 Entering Gaussian System, Link 0=g09
 Initial command:
 /home/ana/programs/g09/l1.exe /home/ana/programs/g09/scratch/Gau-695982.inp -scrdir=/home/ana/programs/g09/scratch/
 Entering Link 1 = /home/ana/programs/g09/l1.exe PID=    695984.
  
 Copyright (c) 1988,1990,1992,1993,1995,1998,2003,2009, Gaussian, Inc.
                  All Rights Reserved.
  
 This is part of the Gaussian(R) 09 program.  It is based on
 the Gaussian(R) 03 system (copyright 2003, Gaussian, Inc.),
 the Gaussian(R) 98 system (copyright 1998, Gaussian, Inc.),
 the Gaussian(R) 94 system (copyright 1995, Gaussian, Inc.),
 the Gaussian 92(TM) system (copyright 1992, Gaussian, Inc.),
 the Gaussian 90(TM) system (copyright 1990, Gaussian, Inc.),
 the Gaussian 88(TM) system (copyright 1988, Gaussian, Inc.),
 the Gaussian 86(TM) system (copyright 1986, Carnegie Mellon
 University), and the Gaussian 82(TM) system (copyright 1983,
 Carnegie Mellon University). Gaussian is a federally registered
 trademark of Gaussian, Inc.
  
 This software contains proprietary and confidential information,
 including trade secrets, belonging to Gaussian, Inc.
  
 This software is provided under written license and may be
 used, copied, transmitted, or stored only in accord with that
 written license.
  
 The following legend is applicable only to US Government
 contracts under FAR:
  
                    RESTRICTED RIGHTS LEGEND
  
 Use, reproduction and disclosure by the US Government is
 subject to restrictions as set forth in subparagraphs (a)
 and (c) of the Commercial Computer Software - Restricted
 Rights clause in FAR 52.227-19.
  
 Gaussian, Inc.
 340 Quinnipiac St., Bldg. 40, Wallingford CT 06492
  
  
 ---------------------------------------------------------------
 Warning -- This program may not be used in any manner that
 competes with the business of Gaussian, Inc. or will provide
 assistance to any competitor of Gaussian, Inc.  The licensee
 of this program is prohibited from giving any competitor of
 Gaussian, Inc. access to this program.  By using this program,
 the user acknowledges that Gaussian, Inc. is engaged in the
 business of creating and licensing software in the field of
 computational chemistry and represents and warrants to the
 licensee that it is not a competitor of Gaussian, Inc. and that
 it will not use this program in any manner prohibited above.
 ---------------------------------------------------------------
  

 Cite this work as:
 Gaussian 09, Revision A.01,
 M. J. Frisch, G. W. Trucks, H. B. Schlegel, G. E. Scuseria, 
 M. A. Robb, J. R. Cheeseman, G. Scalmani, V. Barone, B. Mennucci, 
 G. A. Petersson, H. Nakatsuji, M. Caricato, X. Li, H. P. Hratchian, 
 A. F. Izmaylov, J. Bloino, G. Zheng, J. L. Sonnenberg, M. Hada, 
 M. Ehara, K. Toyota, R. Fukuda, J. Hasegawa, M. Ishida, T. Nakajima, 
 Y. Honda, O. Kitao, H. Nakai, T. Vreven, J. A. Montgomery, Jr., 
 J. E. Peralta, F. Ogliaro, M. Bearpark, J. J. Heyd, E. Brothers, 
 K. N. Kudin, V. N. Staroverov, R. Kobayashi, J. Normand, 
 K. Raghavachari, A. Rendell, J. C. Burant, S. S. Iyengar, J. Tomasi, 
 M. Cossi, N. Rega, J. M. Millam, M. Klene, J. E. Knox, J. B. Cross, 
 V. Bakken, C. Adamo, J. Jaramillo, R. Gomperts, R. E. Stratmann, 
 O. Yazyev, A. J. Austin, R. Cammi, C. Pomelli, J. W. Ochterski, 
 R. L. Martin, K. Morokuma, V. G. Zakrzewski, G. A. Voth, 
 P. Salvador, J. J. Dannenberg, S. Dapprich, A. D. Daniels, 
 O. Farkas, J. B. Foresman, J. V. Ortiz, J. Cioslowski, 
 and D. J. Fox, Gaussian, Inc., Wallingford CT, 2009.
 
 ******************************************
 Gaussian 09:  EM64L-G09RevA.01  8-May-2009
                24-Sep-2021 
 ******************************************
 %mem=10GB
 %NoSave
 %NPROC=4
 Will use up to    4 processors via shared memory.
 ----------------------------------
 #MP2/6-31G* SCF=Tight Opt=ModRedun
 ----------------------------------
 1/18=120,19=15,38=1/1,3;
 2/9=110,12=2,17=6,18=5,40=1/2;
 3/5=1,6=6,7=1,11=9,16=1,25=1,30=1,71=1/1,2,3;
 4//1;
 5/5=2,32=2,38=5/2;
 8/6=4,10=2/1;
 9/15=2,16=-3/6;
 10/5=1/2;
 6/7=2,8=2,9=2,10=2/1;
 7/12=2/1,2,3,16;
 1/18=20,19=15/3(2);
 2/9=110/2;
 99//99;
 2/9=110/2;
 3/5=1,6=6,7=1,11=9,16=1,25=1,30=1,71=1/1,2,3;
 4/5=5,16=3/1;
 5/5=2,32=2,38=5/2;
 8/6=4,10=2/1;
 9/15=2,16=-3/6;
 10/5=1/2;
 7/12=2/1,2,3,16;
 1/18=20,19=15/3(-8);
 2/9=110/2;
 6/7=2,8=2,9=2,10=2/1;
 99//99;
 ---------------------------
 optimization for geometry 0
 ---------------------------
 Symbolic Z-matrix:
 Charge =  0 Multiplicity = 1
 F                    0    -1.971     2.06      0. 
 C                    0    -1.227     0.955     0. 
 C                    0     0.133     1.058     0. 
 C                    0     0.93     -0.124     0. 
 C                    0     2.424    -0.021     0. 
 F                    0     3.01     -1.238    -0.001 
 F                    0     2.871     0.651    -1.083 
 F                    0     2.871     0.65      1.084 
 C                    0     0.3      -1.336     0. 
 N                    0    -1.059    -1.39      0. 
 C                    0    -1.929    -0.305     0. 
 S                    0    -3.581    -0.513     0. 
 H                    0     0.595     2.04      0. 
 H                    0     0.825    -2.282     0. 
 H                    0    -1.525    -2.292     0. 
 
 The following ModRedundant input section has been read:

 GradGradGradGradGradGradGradGradGradGradGradGradGradGradGradGradGradGrad
 Berny optimization.
 Initialization pass.
                           ----------------------------
                           !    Initial Parameters    !
                           ! (Angstroms and Degrees)  !
 --------------------------                            --------------------------
 ! Name  Definition              Value          Derivative Info.                !
 --------------------------------------------------------------------------------
 ! R1    R(1,2)                  1.3321         estimate D2E/DX2                !
 ! R2    R(2,3)                  1.3639         estimate D2E/DX2                !
 ! R3    R(2,11)                 1.4424         estimate D2E/DX2                !
 ! R4    R(3,4)                  1.4256         estimate D2E/DX2                !
 ! R5    R(3,13)                 1.0853         estimate D2E/DX2                !
 ! R6    R(4,5)                  1.4975         estimate D2E/DX2                !
 ! R7    R(4,9)                  1.366          estimate D2E/DX2                !
 ! R8    R(5,6)                  1.3507         estimate D2E/DX2                !
 ! R9    R(5,7)                  1.3507         estimate D2E/DX2                !
 ! R10   R(5,8)                  1.351          estimate D2E/DX2                !
 ! R11   R(9,10)                 1.3601         estimate D2E/DX2                !
 ! R12   R(9,14)                 1.0819         estimate D2E/DX2                !
 ! R13   R(10,11)                1.3907         estimate D2E/DX2                !
 ! R14   R(10,15)                1.0153         estimate D2E/DX2                !
 ! R15   R(11,12)                1.665          estimate D2E/DX2                !
 ! A1    A(1,2,3)              119.6215         estimate D2E/DX2                !
 ! A2    A(1,2,11)             116.9234         estimate D2E/DX2                !
 ! A3    A(3,2,11)             123.4551         estimate D2E/DX2                !
 ! A4    A(2,3,4)              119.66           estimate D2E/DX2                !
 ! A5    A(2,3,13)             119.5265         estimate D2E/DX2                !
 ! A6    A(4,3,13)             120.8135         estimate D2E/DX2                !
 ! A7    A(3,4,5)              120.0472         estimate D2E/DX2                !
 ! A8    A(3,4,9)              118.5435         estimate D2E/DX2                !
 ! A9    A(5,4,9)              121.4094         estimate D2E/DX2                !
 ! A10   A(4,5,6)              111.7675         estimate D2E/DX2                !
 ! A11   A(4,5,7)              111.3698         estimate D2E/DX2                !
 ! A12   A(4,5,8)              111.3616         estimate D2E/DX2                !
 ! A13   A(6,5,7)              107.7042         estimate D2E/DX2                !
 ! A14   A(6,5,8)              107.7313         estimate D2E/DX2                !
 ! A15   A(7,5,8)              106.6641         estimate D2E/DX2                !
 ! A16   A(4,9,10)             119.741          estimate D2E/DX2                !
 ! A17   A(4,9,14)             123.5056         estimate D2E/DX2                !
 ! A18   A(10,9,14)            116.7534         estimate D2E/DX2                !
 ! A19   A(9,10,11)            126.4487         estimate D2E/DX2                !
 ! A20   A(9,10,15)            119.5977         estimate D2E/DX2                !
 ! A21   A(11,10,15)           113.9536         estimate D2E/DX2                !
 ! A22   A(2,11,10)            112.1518         estimate D2E/DX2                !
 ! A23   A(2,11,12)            126.3003         estimate D2E/DX2                !
 ! A24   A(10,11,12)           121.5479         estimate D2E/DX2                !
 ! D1    D(1,2,3,4)            180.0            estimate D2E/DX2                !
 ! D2    D(1,2,3,13)             0.0            estimate D2E/DX2                !
 ! D3    D(11,2,3,4)             0.0            estimate D2E/DX2                !
 ! D4    D(11,2,3,13)          180.0            estimate D2E/DX2                !
 ! D5    D(1,2,11,10)          180.0            estimate D2E/DX2                !
 ! D6    D(1,2,11,12)            0.0            estimate D2E/DX2                !
 ! D7    D(3,2,11,10)            0.0            estimate D2E/DX2                !
 ! D8    D(3,2,11,12)          180.0            estimate D2E/DX2                !
 ! D9    D(2,3,4,5)            180.0            estimate D2E/DX2                !
 ! D10   D(2,3,4,9)              0.0            estimate D2E/DX2                !
 ! D11   D(13,3,4,5)             0.0            estimate D2E/DX2                !
 ! D12   D(13,3,4,9)           180.0            estimate D2E/DX2                !
 ! D13   D(3,4,5,6)           -179.9543         estimate D2E/DX2                !
 ! D14   D(3,4,5,7)            -59.4322         estimate D2E/DX2                !
 ! D15   D(3,4,5,8)             59.4944         estimate D2E/DX2                !
 ! D16   D(9,4,5,6)              0.0457         estimate D2E/DX2                !
 ! D17   D(9,4,5,7)            120.5678         estimate D2E/DX2                !
 ! D18   D(9,4,5,8)           -120.5056         estimate D2E/DX2                !
 ! D19   D(3,4,9,10)             0.0            estimate D2E/DX2                !
 ! D20   D(3,4,9,14)           180.0            estimate D2E/DX2                !
 ! D21   D(5,4,9,10)           180.0            estimate D2E/DX2                !
 ! D22   D(5,4,9,14)             0.0            estimate D2E/DX2                !
 ! D23   D(4,9,10,11)            0.0            estimate D2E/DX2                !
 ! D24   D(4,9,10,15)          180.0            estimate D2E/DX2                !
 ! D25   D(14,9,10,11)         180.0            estimate D2E/DX2                !
 ! D26   D(14,9,10,15)           0.0            estimate D2E/DX2                !
 ! D27   D(9,10,11,2)            0.0            estimate D2E/DX2                !
 ! D28   D(9,10,11,12)         180.0            estimate D2E/DX2                !
 ! D29   D(15,10,11,2)         180.0            estimate D2E/DX2                !
 ! D30   D(15,10,11,12)          0.0            estimate D2E/DX2                !
 --------------------------------------------------------------------------------
 Trust Radius=3.00D-01 FncErr=1.00D-07 GrdErr=1.00D-07
 Number of steps in this run=  79 maximum allowed number of steps= 100.
 GradGradGradGradGradGradGradGradGradGradGradGradGradGradGradGradGradGrad

                          Input orientation:                          
 ---------------------------------------------------------------------
 Center     Atomic      Atomic             Coordinates (Angstroms)
 Number     Number       Type             X           Y           Z
 ---------------------------------------------------------------------
      1          9           0       -1.971000    2.060000    0.000000
      2          6           0       -1.227000    0.955000    0.000000
      3          6           0        0.133000    1.058000    0.000000
      4          6           0        0.930000   -0.124000    0.000000
      5          6           0        2.424000   -0.021000    0.000000
      6          9           0        3.010000   -1.238000   -0.001000
      7          9           0        2.871000    0.651000   -1.083000
      8          9           0        2.871000    0.650000    1.084000
      9          6           0        0.300000   -1.336000    0.000000
     10          7           0       -1.059000   -1.390000    0.000000
     11          6           0       -1.929000   -0.305000    0.000000
     12         16           0       -3.581000   -0.513000    0.000000
     13          1           0        0.595000    2.040000    0.000000
     14          1           0        0.825000   -2.282000    0.000000
     15          1           0       -1.525000   -2.292000    0.000000
 ---------------------------------------------------------------------
                    Distance matrix (angstroms):
                    1          2          3          4          5
     1  F    0.000000
     2  C    1.332126   0.000000
     3  C    2.330412   1.363895   0.000000
     4  C    3.631206   2.411823   1.425599   0.000000
     5  C    4.862776   3.779203   2.532375   1.497546   0.000000
     6  F    5.973874   4.770893   3.680862   2.359533   1.350735
     7  F    5.157823   4.249578   2.972403   2.353932   1.350660
     8  F    5.158306   4.249904   2.972905   2.354063   1.350965
     9  C    4.085371   2.753254   2.399818   1.365959   2.498119
    10  N    3.568507   2.351010   2.722787   2.357727   3.742386
    11  C    2.365373   1.442361   2.471763   2.864724   4.362255
    12  S    3.035198   2.774228   4.032597   4.527741   6.025121
    13  H    2.566078   2.120592   1.085250   2.189776   2.755533
    14  H    5.164357   3.832607   3.410933   2.160553   2.769282
    15  H    4.374794   3.260646   3.737842   3.275248   4.555441
                    6          7          8          9         10
     6  F    0.000000
     7  F    2.181368   0.000000
     8  F    2.181992   2.167000   0.000000
     9  C    2.711772   3.425069   3.424806   0.000000
    10  N    4.071838   4.558889   4.558679   1.360072   0.000000
    11  C    5.026352   5.012666   5.012692   2.455891   1.390728
    12  S    6.630755   6.645005   6.644993   3.967303   2.670134
    13  H    4.071549   2.877913   2.878773   3.388864   3.807967
    14  H    2.421603   3.736508   3.736013   1.081915   2.084495
    15  H    4.655872   5.399903   5.399559   2.060233   1.015264
                   11         12         13         14         15
    11  C    0.000000
    12  S    1.665043   0.000000
    13  H    3.445229   4.894567   0.000000
    14  H    3.390139   4.747862   4.328116   0.000000
    15  H    2.027655   2.718819   4.822927   2.350021   0.000000
 Stoichiometry    C6H3F4NS
 Framework group  C1[X(C6H3F4NS)]
 Deg. of freedom    39
 Full point group                 C1      NOp   1
 Largest Abelian subgroup         C1      NOp   1
 Largest concise Abelian subgroup C1      NOp   1
                         Standard orientation:                         
 ---------------------------------------------------------------------
 Center     Atomic      Atomic             Coordinates (Angstroms)
 Number     Number       Type             X           Y           Z
 ---------------------------------------------------------------------
      1          9           0       -1.971002    2.060038    0.000000
      2          6           0       -1.227007    0.955035    0.000000
      3          6           0        0.132994    1.058030    0.000000
      4          6           0        0.929989   -0.123973    0.000000
      5          6           0        2.423990   -0.020978    0.000000
      6          9           0        3.009985   -1.237981   -0.001000
      7          9           0        2.870992    0.651020   -1.083000
      8          9           0        2.870992    0.650020    1.084000
      9          6           0        0.299985   -1.335971    0.000000
     10          7           0       -1.059015   -1.389965    0.000000
     11          6           0       -1.929011   -0.304962    0.000000
     12         16           0       -3.581012   -0.512956    0.000000
     13          1           0        0.594997    2.040028    0.000000
     14          1           0        0.824981   -2.281972    0.000000
     15          1           0       -1.525019   -2.291964    0.000000
 ---------------------------------------------------------------------
 Rotational constants (GHZ):      1.8887814      0.4291863      0.3727307
 Standard basis: 6-31G(d) (6D, 7F)
 There are   190 symmetry adapted basis functions of A   symmetry.
 Integral buffers will be    131072 words long.
 Raffenetti 1 integral format.
 Two-electron integral symmetry is turned on.
   190 basis functions,   372 primitive gaussians,   190 cartesian basis functions
    49 alpha electrons       49 beta electrons
       nuclear repulsion energy       802.5514475706 Hartrees.
 NAtoms=   15 NActive=   15 NUniq=   15 SFac= 7.50D-01 NAtFMM=   80 NAOKFM=F Big=F
 One-electron integrals computed using PRISM.
 NBasis=   190 RedAO= T  NBF=   190
 NBsUse=   190 1.00D-06 NBFU=   190
 Harris functional with IExCor=  205 diagonalized for initial guess.
 ExpMin= 1.17D-01 ExpMax= 2.19D+04 ExpMxC= 3.30D+03 IAcc=1 IRadAn=         1 AccDes= 0.00D+00
 HarFok:  IExCor=  205 AccDes= 0.00D+00 IRadAn=         1 IDoV= 1
 ScaDFX=  1.000000  1.000000  1.000000  1.000000
 FoFCou: FMM=F IPFlag=           0 FMFlag=      100000 FMFlg1=           0
         NFxFlg=           0 DoJE=T BraDBF=F KetDBF=T FulRan=T
         Omega=  0.000000  0.000000  1.000000  0.000000  0.000000 ICntrl=     500 IOpCl=  0
         NMat0=    1 NMatS0=    1 NMatT0=    0 NMatD0=    1 NMtDS0=    0 NMtDT0=    0
         I1Cent=           4 NGrid=           0.
 Petite list used in FoFCou.
 Initial guess orbital symmetries:
       Occupied  (A) (A) (A) (A) (A) (A) (A) (A) (A) (A) (A) (A)
                 (A) (A) (A) (A) (A) (A) (A) (A) (A) (A) (A) (A)
                 (A) (A) (A) (A) (A) (A) (A) (A) (A) (A) (A) (A)
                 (A) (A) (A) (A) (A) (A) (A) (A) (A) (A) (A) (A)
                 (A)
       Virtual   (A) (A) (A) (A) (A) (A) (A) (A) (A) (A) (A) (A)
                 (A) (A) (A) (A) (A) (A) (A) (A) (A) (A) (A) (A)
                 (A) (A) (A) (A) (A) (A) (A) (A) (A) (A) (A) (A)
                 (A) (A) (A) (A) (A) (A) (A) (A) (A) (A) (A) (A)
                 (A) (A) (A) (A) (A) (A) (A) (A) (A) (A) (A) (A)
                 (A) (A) (A) (A) (A) (A) (A) (A) (A) (A) (A) (A)
                 (A) (A) (A) (A) (A) (A) (A) (A) (A) (A) (A) (A)
                 (A) (A) (A) (A) (A) (A) (A) (A) (A) (A) (A) (A)
                 (A) (A) (A) (A) (A) (A) (A) (A) (A) (A) (A) (A)
                 (A) (A) (A) (A) (A) (A) (A) (A) (A) (A) (A) (A)
                 (A) (A) (A) (A) (A) (A) (A) (A) (A) (A) (A) (A)
                 (A) (A) (A) (A) (A) (A) (A) (A) (A)
 The electronic state of the initial guess is 1-A.
 Requested convergence on RMS density matrix=1.00D-08 within 128 cycles.
 Requested convergence on MAX density matrix=1.00D-06.
 Requested convergence on             energy=1.00D-06.
 No special actions if energy rises.
 Keep R1 ints in memory in canonical form, NReq=168242440.
 SCF Done:  E(RHF) =  -1078.66337003     A.U. after   15 cycles
             Convg  =    0.4272D-08             -V/T =  2.0018
 ExpMin= 1.17D-01 ExpMax= 2.19D+04 ExpMxC= 3.30D+03 IAcc=1 IRadAn=         1 AccDes= 0.00D+00
 HarFok:  IExCor=  205 AccDes= 0.00D+00 IRadAn=         1 IDoV=-2
 ScaDFX=  1.000000  1.000000  1.000000  1.000000
 Range of M.O.s used for correlation:    17   190
 NBasis=   190 NAE=    49 NBE=    49 NFC=    16 NFV=     0
 NROrb=    174 NOA=    33 NOB=    33 NVA=   141 NVB=   141

 **** Warning!!: The largest alpha MO coefficient is  0.11202943D+02

 Fully direct method using O(ONN) memory.
 JobTyp=1 Pass  1:  I=  17 to  49 NPSUse=  4 ParTrn=T ParDer=T DoDerP=T.
 Spin components of T(2) and E(2):
     alpha-alpha T2 =       0.7476903231D-01 E2=     -0.2409249252D+00
     alpha-beta  T2 =       0.3782652932D+00 E2=     -0.1241166929D+01
     beta-beta   T2 =       0.7476903231D-01 E2=     -0.2409249252D+00
 ANorm=    0.1236043429D+01
 E2 =    -0.1723016779D+01 EUMP2 =    -0.10803863868079D+04
          IDoAtm=111111111111111
          Differentiating once with respect to electric field.
                with respect to dipole field.
          Differentiating once with respect to nuclear coordinates.
          Keep R1 ints in memory in canonical form, NReq=165451134.
          There are     1 degrees of freedom in the 1st order CPHF.  IDoFFX=0.
 LinEq1:  Iter=  0 NonCon=     1 RMS=4.93D-03 Max=1.33D-01
 AX will form     1 AO Fock derivatives at one time.
 LinEq1:  Iter=  1 NonCon=     1 RMS=1.94D-03 Max=3.59D-02
 LinEq1:  Iter=  2 NonCon=     1 RMS=6.70D-04 Max=2.30D-02
 LinEq1:  Iter=  3 NonCon=     1 RMS=2.28D-04 Max=6.48D-03
 LinEq1:  Iter=  4 NonCon=     1 RMS=7.27D-05 Max=1.26D-03
 LinEq1:  Iter=  5 NonCon=     1 RMS=3.07D-05 Max=1.04D-03
 LinEq1:  Iter=  6 NonCon=     1 RMS=1.27D-05 Max=5.05D-04
 LinEq1:  Iter=  7 NonCon=     1 RMS=5.12D-06 Max=1.80D-04
 LinEq1:  Iter=  8 NonCon=     1 RMS=1.65D-06 Max=4.40D-05
 LinEq1:  Iter=  9 NonCon=     1 RMS=5.31D-07 Max=1.12D-05
 LinEq1:  Iter= 10 NonCon=     1 RMS=1.84D-07 Max=3.79D-06
 LinEq1:  Iter= 11 NonCon=     1 RMS=5.42D-08 Max=1.05D-06
 LinEq1:  Iter= 12 NonCon=     1 RMS=2.47D-08 Max=1.09D-06
 LinEq1:  Iter= 13 NonCon=     1 RMS=7.18D-09 Max=1.66D-07
 LinEq1:  Iter= 14 NonCon=     1 RMS=2.08D-09 Max=6.22D-08
 LinEq1:  Iter= 15 NonCon=     1 RMS=7.56D-10 Max=1.18D-08
 LinEq1:  Iter= 16 NonCon=     1 RMS=1.87D-10 Max=3.15D-09
 LinEq1:  Iter= 17 NonCon=     0 RMS=4.78D-11 Max=7.52D-10
 Linear equations converged to 1.000D-10 1.000D-09 after    17 iterations.
 End of Minotr Frequency-dependent properties file   721 does not exist.
 End of Minotr Frequency-dependent properties file   722 does not exist.

 **********************************************************************

            Population analysis using the SCF density.

 **********************************************************************

 Orbital symmetries:
       Occupied  (A) (A) (A) (A) (A) (A) (A) (A) (A) (A) (A) (A)
                 (A) (A) (A) (A) (A) (A) (A) (A) (A) (A) (A) (A)
                 (A) (A) (A) (A) (A) (A) (A) (A) (A) (A) (A) (A)
                 (A) (A) (A) (A) (A) (A) (A) (A) (A) (A) (A) (A)
                 (A)
       Virtual   (A) (A) (A) (A) (A) (A) (A) (A) (A) (A) (A) (A)
                 (A) (A) (A) (A) (A) (A) (A) (A) (A) (A) (A) (A)
                 (A) (A) (A) (A) (A) (A) (A) (A) (A) (A) (A) (A)
                 (A) (A) (A) (A) (A) (A) (A) (A) (A) (A) (A) (A)
                 (A) (A) (A) (A) (A) (A) (A) (A) (A) (A) (A) (A)
                 (A) (A) (A) (A) (A) (A) (A) (A) (A) (A) (A) (A)
                 (A) (A) (A) (A) (A) (A) (A) (A) (A) (A) (A) (A)
                 (A) (A) (A) (A) (A) (A) (A) (A) (A) (A) (A) (A)
                 (A) (A) (A) (A) (A) (A) (A) (A) (A) (A) (A) (A)
                 (A) (A) (A) (A) (A) (A) (A) (A) (A) (A) (A) (A)
                 (A) (A) (A) (A) (A) (A) (A) (A) (A) (A) (A) (A)
                 (A) (A) (A) (A) (A) (A) (A) (A) (A)
 The electronic state is 1-A.
 Alpha  occ. eigenvalues --  -91.90331 -26.36768 -26.35808 -26.35801 -26.33551
 Alpha  occ. eigenvalues --  -15.68654 -11.54149 -11.37821 -11.37112 -11.35972
 Alpha  occ. eigenvalues --  -11.31143 -11.30327  -8.91374  -6.59699  -6.59424
 Alpha  occ. eigenvalues --   -6.59301  -1.74106  -1.65072  -1.64986  -1.64332
 Alpha  occ. eigenvalues --   -1.35482  -1.16890  -1.11901  -1.02699  -0.97006
 Alpha  occ. eigenvalues --   -0.92489  -0.88021  -0.84878  -0.83674  -0.83274
 Alpha  occ. eigenvalues --   -0.76958  -0.76031  -0.73918  -0.72170  -0.71585
 Alpha  occ. eigenvalues --   -0.71462  -0.70208  -0.67448  -0.67414  -0.65974
 Alpha  occ. eigenvalues --   -0.63960  -0.62418  -0.60465  -0.59258  -0.52248
 Alpha  occ. eigenvalues --   -0.46367  -0.43087  -0.33889  -0.30848
 Alpha virt. eigenvalues --    0.04546   0.08894   0.17838   0.24650   0.25302
 Alpha virt. eigenvalues --    0.26582   0.26713   0.30100   0.33966   0.35620
 Alpha virt. eigenvalues --    0.39521   0.40859   0.42318   0.43342   0.46831
 Alpha virt. eigenvalues --    0.49895   0.54079   0.55557   0.56922   0.59729
 Alpha virt. eigenvalues --    0.61348   0.64362   0.66936   0.67940   0.72364
 Alpha virt. eigenvalues --    0.73191   0.73820   0.75599   0.77291   0.78083
 Alpha virt. eigenvalues --    0.82917   0.84498   0.87531   0.89012   0.89981
 Alpha virt. eigenvalues --    0.92459   0.95660   0.99945   1.02343   1.02903
 Alpha virt. eigenvalues --    1.04869   1.07748   1.09477   1.10128   1.13714
 Alpha virt. eigenvalues --    1.15439   1.16029   1.18202   1.24702   1.28357
 Alpha virt. eigenvalues --    1.31116   1.31797   1.33679   1.34368   1.34889
 Alpha virt. eigenvalues --    1.39019   1.42121   1.42235   1.46458   1.47436
 Alpha virt. eigenvalues --    1.52124   1.60465   1.60716   1.61852   1.63603
 Alpha virt. eigenvalues --    1.64394   1.64504   1.65691   1.66464   1.67987
 Alpha virt. eigenvalues --    1.69534   1.70227   1.72128   1.76136   1.76648
 Alpha virt. eigenvalues --    1.81250   1.87770   1.89553   1.92398   1.92932
 Alpha virt. eigenvalues --    1.99967   2.04318   2.05884   2.09477   2.09931
 Alpha virt. eigenvalues --    2.12563   2.12934   2.17933   2.20376   2.22843
 Alpha virt. eigenvalues --    2.22850   2.24805   2.28744   2.29748   2.30314
 Alpha virt. eigenvalues --    2.32763   2.33731   2.35108   2.36753   2.37507
 Alpha virt. eigenvalues --    2.39585   2.43497   2.44919   2.45941   2.47145
 Alpha virt. eigenvalues --    2.51842   2.60628   2.61829   2.65232   2.68620
 Alpha virt. eigenvalues --    2.75542   2.82856   2.85037   2.85075   2.91790
 Alpha virt. eigenvalues --    2.93403   2.93604   3.00807   3.07485   3.09845
 Alpha virt. eigenvalues --    3.17166   3.21673   3.28934   3.37775   3.38507
 Alpha virt. eigenvalues --    3.43203   3.44149   3.50053   3.71088   4.36892
 Alpha virt. eigenvalues --    4.39950   4.44968   4.48357   4.60178   4.64187
 Alpha virt. eigenvalues --    4.69000   4.81910   5.00883   5.15243   5.60513
 Alpha virt. eigenvalues --    6.02072
          Condensed to atoms (all electrons):
              1          2          3          4          5          6
     1  F    9.153750   0.270019  -0.033961   0.002221  -0.000013   0.000000
     2  C    0.270019   4.565344   0.568309  -0.025184   0.000863  -0.000017
     3  C   -0.033961   0.568309   5.070130   0.356425  -0.011929   0.002129
     4  C    0.002221  -0.025184   0.356425   5.203322   0.414946  -0.045730
     5  C   -0.000013   0.000863  -0.011929   0.414946   3.546718   0.289719
     6  F    0.000000  -0.000017   0.002129  -0.045730   0.289719   9.186959
     7  F    0.000000   0.000282   0.004797  -0.054660   0.285856  -0.030921
     8  F    0.000000   0.000281   0.004790  -0.054680   0.285788  -0.030852
     9  C    0.000105  -0.022598  -0.055671   0.591675  -0.020757   0.005528
    10  N    0.001376  -0.051024  -0.021885  -0.033954   0.001208   0.000232
    11  C   -0.040639   0.380513  -0.080005  -0.001685   0.000066   0.000002
    12  S    0.003501  -0.080612   0.001538  -0.000049   0.000006   0.000000
    13  H   -0.000249  -0.017886   0.368609  -0.030153  -0.000313   0.000035
    14  H    0.000000  -0.000109   0.001944  -0.022871  -0.000109   0.005095
    15  H   -0.000018   0.003720  -0.000575   0.002264  -0.000015   0.000001
              7          8          9         10         11         12
     1  F    0.000000   0.000000   0.000105   0.001376  -0.040639   0.003501
     2  C    0.000282   0.000281  -0.022598  -0.051024   0.380513  -0.080612
     3  C    0.004797   0.004790  -0.055671  -0.021885  -0.080005   0.001538
     4  C   -0.054660  -0.054680   0.591675  -0.033954  -0.001685  -0.000049
     5  C    0.285856   0.285788  -0.020757   0.001208   0.000066   0.000006
     6  F   -0.030921  -0.030852   0.005528   0.000232   0.000002   0.000000
     7  F    9.199519  -0.034644   0.000538  -0.000005  -0.000002   0.000000
     8  F   -0.034644   9.199745   0.000533  -0.000005  -0.000002   0.000000
     9  C    0.000538   0.000533   4.737118   0.265307  -0.039579   0.003379
    10  N   -0.000005  -0.000005   0.265307   7.224638   0.216695  -0.103826
    11  C   -0.000002  -0.000002  -0.039579   0.216695   4.966489   0.435064
    12  S    0.000000   0.000000   0.003379  -0.103826   0.435064  15.964398
    13  H    0.000900   0.000897   0.002543  -0.000257   0.002762  -0.000055
    14  H    0.000083   0.000083   0.380310  -0.032594   0.001026  -0.000135
    15  H    0.000000   0.000000  -0.021378   0.310985  -0.017590   0.013761
             13         14         15
     1  F   -0.000249   0.000000  -0.000018
     2  C   -0.017886  -0.000109   0.003720
     3  C    0.368609   0.001944  -0.000575
     4  C   -0.030153  -0.022871   0.002264
     5  C   -0.000313  -0.000109  -0.000015
     6  F    0.000035   0.005095   0.000001
     7  F    0.000900   0.000083   0.000000
     8  F    0.000897   0.000083   0.000000
     9  C    0.002543   0.380310  -0.021378
    10  N   -0.000257  -0.032594   0.310985
    11  C    0.002762   0.001026  -0.017590
    12  S   -0.000055  -0.000135   0.013761
    13  H    0.395016  -0.000064   0.000009
    14  H   -0.000064   0.383766  -0.002123
    15  H    0.000009  -0.002123   0.268418
 Mulliken atomic charges:
              1
     1  F   -0.356094
     2  C    0.408100
     3  C   -0.174646
     4  C   -0.301886
     5  C    1.207967
     6  F   -0.382180
     7  F   -0.371744
     8  F   -0.371934
     9  C    0.172947
    10  N   -0.776891
    11  C    0.176887
    12  S   -0.236970
    13  H    0.278206
    14  H    0.285697
    15  H    0.442540
 Sum of Mulliken atomic charges =   0.00000
 Mulliken charges with hydrogens summed into heavy atoms:
              1
     1  F   -0.356094
     2  C    0.408100
     3  C    0.103560
     4  C   -0.301886
     5  C    1.207967
     6  F   -0.382180
     7  F   -0.371744
     8  F   -0.371934
     9  C    0.458645
    10  N   -0.334352
    11  C    0.176887
    12  S   -0.236970
 Sum of Mulliken charges with hydrogens summed into heavy atoms =   0.00000
 Electronic spatial extent (au):  <R**2>=           2643.3317
 Charge=              0.0000 electrons
 Dipole moment (field-independent basis, Debye):
    X=              3.6520    Y=             -2.5711    Z=             -0.0007  Tot=              4.4663
 Quadrupole moment (field-independent basis, Debye-Ang):
   XX=            -99.3919   YY=            -64.7465   ZZ=            -75.3304
   XY=              1.8539   XZ=             -0.0020   YZ=             -0.0012
 Traceless Quadrupole moment (field-independent basis, Debye-Ang):
   XX=            -19.5689   YY=             15.0764   ZZ=              4.4925
   XY=              1.8539   XZ=             -0.0020   YZ=             -0.0012
 Octapole moment (field-independent basis, Debye-Ang**2):
  XXX=            105.9316  YYY=             -8.1457  ZZZ=             -0.0051  XYY=             22.4626
  XXY=              4.2066  XXZ=             -0.0059  XZZ=             17.1551  YZZ=              4.4933
  YYZ=              0.0018  XYZ=             -0.0034
 Hexadecapole moment (field-independent basis, Debye-Ang**3):
 XXXX=          -2696.5330 YYYY=           -448.6445 ZZZZ=           -137.9918 XXXY=            -41.3999
 XXXZ=             -0.0174 YYYX=             -3.3226 YYYZ=             -0.0122 ZZZX=             -0.0121
 ZZZY=             -0.0128 XXYY=           -514.9848 XXZZ=           -446.0269 YYZZ=           -110.9482
 XXYZ=             -0.0139 YYXZ=              0.0050 ZZXY=            -16.6133
 N-N= 8.025514475706D+02 E-N=-4.162581960972D+03  KE= 1.076707432148D+03
 Calling FoFJK, ICntrl=      2127 FMM=F ISym2X=0 I1Cent= 0 IOpClX= 0 NMat=1 NMatS=1 NMatT=0.
 ***** Axes restored to original set *****
 -------------------------------------------------------------------
 Center     Atomic                   Forces (Hartrees/Bohr)
 Number     Number              X              Y              Z
 -------------------------------------------------------------------
      1        9          -0.002220959    0.003141071   -0.000000396
      2        6           0.000670973   -0.007523995    0.000001304
      3        6           0.007205636   -0.000480114    0.000001464
      4        6          -0.002144896    0.004490914    0.000003305
      5        6          -0.004548855    0.000152257    0.000089831
      6        9           0.000314863   -0.001226152    0.000067905
      7        9          -0.000363709    0.000350181   -0.001503285
      8        9          -0.000404012    0.000172631    0.001340498
      9        6           0.002825039   -0.003088489   -0.000000321
     10        7           0.001746204    0.008827777    0.000001178
     11        6          -0.010338569   -0.003760853    0.000000090
     12       16           0.008446709    0.002095911   -0.000000151
     13        1           0.000134654    0.001208985   -0.000000296
     14        1           0.000507061   -0.001311990   -0.000000921
     15        1          -0.001830141   -0.003048134   -0.000000206
 -------------------------------------------------------------------
 Cartesian Forces:  Max     0.010338569 RMS     0.003289656

 GradGradGradGradGradGradGradGradGradGradGradGradGradGradGradGradGradGrad
 Berny optimization.
 Internal  Forces:  Max     0.008642367 RMS     0.001800990
 Search for a local minimum.
 Step number   1 out of a maximum of   79
 All quantities printed in internal units (Hartrees-Bohrs-Radians)
 Mixed Optimization -- RFO/linear search
 Second derivative matrix not updated -- first step.
     Eigenvalues ---    0.00798   0.01573   0.01655   0.01814   0.01988
     Eigenvalues ---    0.02038   0.02116   0.02189   0.02343   0.02403
     Eigenvalues ---    0.10834   0.11007   0.16000   0.16000   0.16000
     Eigenvalues ---    0.22360   0.23488   0.24583   0.25000   0.25000
     Eigenvalues ---    0.25000   0.25000   0.25000   0.25000   0.32636
     Eigenvalues ---    0.35367   0.35764   0.38066   0.40126   0.40449
     Eigenvalues ---    0.45102   0.45713   0.48629   0.51244   0.52600
     Eigenvalues ---    0.54817   0.54865   0.54881   0.590061000.00000
     Eigenvalues --- 1000.000001000.000001000.000001000.000001000.00000
     Eigenvalues --- 1000.000001000.000001000.000001000.000001000.00000
     Eigenvalues --- 1000.000001000.000001000.000001000.000001000.00000
     Eigenvalues --- 1000.000001000.000001000.000001000.000001000.00000
     Eigenvalues --- 1000.000001000.000001000.000001000.000001000.00000
     Eigenvalues --- 1000.000001000.000001000.000001000.00000
 RFO step:  Lambda=-6.44075750D-04 EMin= 7.98404835D-03
 Linear search not attempted -- first point.
 Iteration  1 RMS(Cart)=  0.00794003 RMS(Int)=  0.00001615
 Iteration  2 RMS(Cart)=  0.00002760 RMS(Int)=  0.00000381
 Iteration  3 RMS(Cart)=  0.00000000 RMS(Int)=  0.00000381
 Variable       Old X    -DE/DX   Delta X   Delta X   Delta X     New X
                                 (Linear)    (Quad)   (Total)
    R1        2.51735   0.00385   0.00000   0.00651   0.00651   2.52386
    R2        2.57739   0.00265   0.00000   0.00517   0.00516   2.58255
    R3        2.72567  -0.00108   0.00000  -0.00284  -0.00285   2.72282
    R4        2.69399  -0.00431   0.00000  -0.01014  -0.01013   2.68386
    R5        2.05083   0.00115   0.00000   0.00325   0.00325   2.05407
    R6        2.82995  -0.00503   0.00000  -0.01538  -0.01538   2.81458
    R7        2.58129   0.00076   0.00000   0.00153   0.00154   2.58283
    R8        2.55252   0.00124   0.00000   0.00226   0.00226   2.55478
    R9        2.55238   0.00126   0.00000   0.00229   0.00229   2.55467
   R10        2.55295   0.00103   0.00000   0.00187   0.00187   2.55483
   R11        2.57016   0.00097   0.00000   0.00174   0.00174   2.57191
   R12        2.04452   0.00139   0.00000   0.00389   0.00389   2.04841
   R13        2.62810  -0.00205   0.00000  -0.00451  -0.00451   2.62358
   R14        1.91857   0.00355   0.00000   0.00786   0.00786   1.92643
   R15        3.14648  -0.00864   0.00000  -0.02133  -0.02133   3.12514
    A1        2.08779  -0.00095   0.00000  -0.00393  -0.00392   2.08387
    A2        2.04070  -0.00117   0.00000  -0.00481  -0.00480   2.03589
    A3        2.15470   0.00212   0.00000   0.00874   0.00873   2.16342
    A4        2.08846  -0.00242   0.00000  -0.01011  -0.01011   2.07836
    A5        2.08613   0.00081   0.00000   0.00255   0.00255   2.08868
    A6        2.10859   0.00161   0.00000   0.00756   0.00756   2.11615
    A7        2.09522  -0.00140   0.00000  -0.00594  -0.00595   2.08927
    A8        2.06897   0.00260   0.00000   0.01108   0.01110   2.08007
    A9        2.11899  -0.00120   0.00000  -0.00514  -0.00515   2.11384
   A10        1.95071  -0.00009   0.00000  -0.00097  -0.00098   1.94973
   A11        1.94377  -0.00112   0.00000  -0.00406  -0.00407   1.93970
   A12        1.94363  -0.00109   0.00000  -0.00414  -0.00415   1.93948
   A13        1.87979   0.00056   0.00000   0.00184   0.00183   1.88163
   A14        1.88027   0.00045   0.00000   0.00105   0.00104   1.88131
   A15        1.86164   0.00145   0.00000   0.00697   0.00696   1.86860
   A16        2.08987  -0.00241   0.00000  -0.01070  -0.01069   2.07918
   A17        2.15558   0.00140   0.00000   0.00658   0.00657   2.16215
   A18        2.03773   0.00101   0.00000   0.00412   0.00411   2.04185
   A19        2.20695   0.00199   0.00000   0.00873   0.00873   2.21567
   A20        2.08737  -0.00078   0.00000  -0.00301  -0.00301   2.08437
   A21        1.98887  -0.00121   0.00000  -0.00572  -0.00572   1.98315
   A22        1.95742  -0.00187   0.00000  -0.00774  -0.00775   1.94967
   A23        2.20436  -0.00068   0.00000  -0.00256  -0.00255   2.20180
   A24        2.12141   0.00255   0.00000   0.01030   0.01030   2.13172
    D1        3.14159   0.00000   0.00000   0.00001   0.00001  -3.14158
    D2        0.00000   0.00000   0.00000   0.00002   0.00002   0.00002
    D3        0.00000   0.00000   0.00000   0.00000   0.00000   0.00000
    D4        3.14159   0.00000   0.00000   0.00000   0.00000  -3.14159
    D5        3.14159   0.00000   0.00000  -0.00001  -0.00001   3.14158
    D6        0.00000   0.00000   0.00000   0.00000   0.00000   0.00000
    D7        0.00000   0.00000   0.00000   0.00000   0.00000   0.00000
    D8        3.14159   0.00000   0.00000   0.00001   0.00001  -3.14158
    D9        3.14159   0.00000   0.00000   0.00006   0.00006  -3.14153
   D10        0.00000   0.00000   0.00000   0.00000   0.00000   0.00000
   D11        0.00000   0.00000   0.00000   0.00005   0.00005   0.00005
   D12        3.14159   0.00000   0.00000   0.00000   0.00000   3.14159
   D13       -3.14080  -0.00004   0.00000  -0.00050  -0.00050  -3.14130
   D14       -1.03729  -0.00017   0.00000  -0.00164  -0.00164  -1.03893
   D15        1.03837   0.00020   0.00000   0.00170   0.00170   1.04008
   D16        0.00080  -0.00004   0.00000  -0.00045  -0.00045   0.00035
   D17        2.10431  -0.00017   0.00000  -0.00159  -0.00159   2.10272
   D18       -2.10322   0.00020   0.00000   0.00176   0.00176  -2.10146
   D19        0.00000   0.00000   0.00000   0.00000   0.00000   0.00000
   D20        3.14159   0.00000   0.00000   0.00000   0.00000   3.14159
   D21        3.14159   0.00000   0.00000  -0.00006  -0.00006   3.14153
   D22        0.00000   0.00000   0.00000  -0.00006  -0.00006  -0.00006
   D23        0.00000   0.00000   0.00000   0.00000   0.00000   0.00000
   D24        3.14159   0.00000   0.00000  -0.00001  -0.00001   3.14159
   D25        3.14159   0.00000   0.00000   0.00000   0.00000  -3.14159
   D26        0.00000   0.00000   0.00000  -0.00001  -0.00001  -0.00001
   D27        0.00000   0.00000   0.00000   0.00000   0.00000   0.00000
   D28        3.14159   0.00000   0.00000  -0.00001  -0.00001   3.14158
   D29        3.14159   0.00000   0.00000   0.00001   0.00001  -3.14159
   D30        0.00000   0.00000   0.00000   0.00000   0.00000   0.00000
         Item               Value     Threshold  Converged?
 Maximum Force            0.008642     0.000450     NO 
 RMS     Force            0.001801     0.000300     NO 
 Maximum Displacement     0.028277     0.001800     NO 
 RMS     Displacement     0.007945     0.001200     NO 
 Predicted change in Energy=-3.226866D-04
 GradGradGradGradGradGradGradGradGradGradGradGradGradGradGradGradGradGrad

                          Input orientation:                          
 ---------------------------------------------------------------------
 Center     Atomic      Atomic             Coordinates (Angstroms)
 Number     Number       Type             X           Y           Z
 ---------------------------------------------------------------------
      1          9           0       -1.968502    2.055878    0.000068
      2          6           0       -1.221504    0.948744    0.000028
      3          6           0        0.140698    1.058614   -0.000038
      4          6           0        0.928549   -0.123065   -0.000094
      5          6           0        2.414357   -0.019538   -0.000088
      6          9           0        3.000577   -1.237760   -0.000514
      7          9           0        2.856209    0.652317   -1.086797
      8          9           0        2.856037    0.651047    1.087579
      9          6           0        0.305315   -1.339473   -0.000084
     10          7           0       -1.054851   -1.386969   -0.000019
     11          6           0       -1.927593   -0.307242    0.000040
     12         16           0       -3.569679   -0.503346    0.000103
     13          1           0        0.601122    2.043252   -0.000042
     14          1           0        0.830656   -2.287638   -0.000127
     15          1           0       -1.524390   -2.291818   -0.000017
 ---------------------------------------------------------------------
                    Distance matrix (angstroms):
                    1          2          3          4          5
     1  F    0.000000
     2  C    1.335572   0.000000
     3  C    2.333080   1.366626   0.000000
     4  C    3.625010   2.402395   1.420237   0.000000
     5  C    4.849413   3.762586   2.516333   1.489410   0.000000
     6  F    5.961527   4.754658   3.667729   2.352838   1.351931
     7  F    5.140924   4.230461   2.952985   2.344784   1.351873
     8  F    5.141246   4.230571   2.953317   2.344673   1.351956
     9  C    4.086399   2.750839   2.403730   1.366773   2.488028
    10  N    3.562016   2.341651   2.722171   2.351878   3.728977
    11  C    2.363474   1.440855   2.478586   2.862074   4.351471
    12  S    3.018840   2.760886   4.025744   4.514274   6.003562
    13  H    2.569656   2.126009   1.086970   2.190922   2.746438
    14  H    5.167341   3.832170   3.416641   2.166785   2.766294
    15  H    4.370320   3.254686   3.741378   3.274202   4.547195
                    6          7          8          9         10
     6  F    0.000000
     7  F    2.184775   0.000000
     8  F    2.184589   2.174376   0.000000
     9  C    2.697180   3.413976   3.413409   0.000000
    10  N    4.058172   4.542705   4.542182   1.360996   0.000000
    11  C    5.015249   4.998672   4.998416   2.459955   1.388340
    12  S    6.611175   6.618832   6.618538   3.964176   2.665549
    13  H    4.064778   2.863765   2.864576   3.395634   3.809024
    14  H    2.410561   3.731896   3.731104   1.083973   2.089579
    15  H    4.646113   5.388754   5.388085   2.062712   1.019420
                   11         12         13         14         15
    11  C    0.000000
    12  S    1.653755   0.000000
    13  H    3.452423   4.886793   0.000000
    14  H    3.395571   4.748330   4.336968   0.000000
    15  H    2.025121   2.716955   4.828109   2.355049   0.000000
 Stoichiometry    C6H3F4NS
 Framework group  C1[X(C6H3F4NS)]
 Deg. of freedom    39
 Full point group                 C1      NOp   1
 Largest Abelian subgroup         C1      NOp   1
 Largest concise Abelian subgroup C1      NOp   1
                         Standard orientation:                         
 ---------------------------------------------------------------------
 Center     Atomic      Atomic             Coordinates (Angstroms)
 Number     Number       Type             X           Y           Z
 ---------------------------------------------------------------------
      1          9           0       -1.970143    2.052729    0.000038
      2          6           0       -1.221966    0.946391   -0.000002
      3          6           0        0.140119    1.057712   -0.000068
      4          6           0        0.929228   -0.123127   -0.000124
      5          6           0        2.414924   -0.018017   -0.000118
      6          9           0        3.002442   -1.235614   -0.000544
      7          9           0        2.856060    0.654308   -1.086827
      8          9           0        2.855890    0.653038    1.087549
      9          6           0        0.307290   -1.340198   -0.000114
     10          7           0       -1.052825   -1.389143   -0.000049
     11          6           0       -1.926716   -0.310346    0.000010
     12         16           0       -3.568592   -0.508199    0.000073
     13          1           0        0.599494    2.042840   -0.000072
     14          1           0        0.833640   -2.287802   -0.000157
     15          1           0       -1.521399   -2.294492   -0.000047
 ---------------------------------------------------------------------
 Rotational constants (GHZ):      1.8915580      0.4319820      0.3751159
 Standard basis: 6-31G(d) (6D, 7F)
 There are   190 symmetry adapted basis functions of A   symmetry.
 Integral buffers will be    131072 words long.
 Raffenetti 1 integral format.
 Two-electron integral symmetry is turned on.
   190 basis functions,   372 primitive gaussians,   190 cartesian basis functions
    49 alpha electrons       49 beta electrons
       nuclear repulsion energy       804.0348198308 Hartrees.
 NAtoms=   15 NActive=   15 NUniq=   15 SFac= 7.50D-01 NAtFMM=   80 NAOKFM=F Big=F
 One-electron integrals computed using PRISM.
 NBasis=   190 RedAO= T  NBF=   190
 NBsUse=   190 1.00D-06 NBFU=   190
 Initial guess read from the read-write file.
 B after Tr=     0.000000    0.000000    0.000000
         Rot=    1.000000    0.000000    0.000000    0.000000 Ang=   0.00 deg.
 Initial guess orbital symmetries:
       Occupied  (A) (A) (A) (A) (A) (A) (A) (A) (A) (A) (A) (A)
                 (A) (A) (A) (A) (A) (A) (A) (A) (A) (A) (A) (A)
                 (A) (A) (A) (A) (A) (A) (A) (A) (A) (A) (A) (A)
                 (A) (A) (A) (A) (A) (A) (A) (A) (A) (A) (A) (A)
                 (A)
       Virtual   (A) (A) (A) (A) (A) (A) (A) (A) (A) (A) (A) (A)
                 (A) (A) (A) (A) (A) (A) (A) (A) (A) (A) (A) (A)
                 (A) (A) (A) (A) (A) (A) (A) (A) (A) (A) (A) (A)
                 (A) (A) (A) (A) (A) (A) (A) (A) (A) (A) (A) (A)
                 (A) (A) (A) (A) (A) (A) (A) (A) (A) (A) (A) (A)
                 (A) (A) (A) (A) (A) (A) (A) (A) (A) (A) (A) (A)
                 (A) (A) (A) (A) (A) (A) (A) (A) (A) (A) (A) (A)
                 (A) (A) (A) (A) (A) (A) (A) (A) (A) (A) (A) (A)
                 (A) (A) (A) (A) (A) (A) (A) (A) (A) (A) (A) (A)
                 (A) (A) (A) (A) (A) (A) (A) (A) (A) (A) (A) (A)
                 (A) (A) (A) (A) (A) (A) (A) (A) (A) (A) (A) (A)
                 (A) (A) (A) (A) (A) (A) (A) (A) (A)
 Harris functional with IExCor=  205 diagonalized for initial guess.
 ExpMin= 1.17D-01 ExpMax= 2.19D+04 ExpMxC= 3.30D+03 IAcc=1 IRadAn=         1 AccDes= 0.00D+00
 HarFok:  IExCor=  205 AccDes= 0.00D+00 IRadAn=         1 IDoV= 1
 ScaDFX=  1.000000  1.000000  1.000000  1.000000
 FoFCou: FMM=F IPFlag=           0 FMFlag=      100000 FMFlg1=           0
         NFxFlg=           0 DoJE=T BraDBF=F KetDBF=T FulRan=T
         Omega=  0.000000  0.000000  1.000000  0.000000  0.000000 ICntrl=     500 IOpCl=  0
         NMat0=    1 NMatS0=    1 NMatT0=    0 NMatD0=    1 NMtDS0=    0 NMtDT0=    0
         I1Cent=           4 NGrid=           0.
 Petite list used in FoFCou.
 Requested convergence on RMS density matrix=1.00D-08 within 128 cycles.
 Requested convergence on MAX density matrix=1.00D-06.
 Requested convergence on             energy=1.00D-06.
 No special actions if energy rises.
 Keep R1 ints in memory in canonical form, NReq=168242440.
 SCF Done:  E(RHF) =  -1078.66265762     A.U. after   12 cycles
             Convg  =    0.6125D-08             -V/T =  2.0018
 ExpMin= 1.17D-01 ExpMax= 2.19D+04 ExpMxC= 3.30D+03 IAcc=1 IRadAn=         1 AccDes= 0.00D+00
 HarFok:  IExCor=  205 AccDes= 0.00D+00 IRadAn=         1 IDoV=-2
 ScaDFX=  1.000000  1.000000  1.000000  1.000000
 Range of M.O.s used for correlation:    17   190
 NBasis=   190 NAE=    49 NBE=    49 NFC=    16 NFV=     0
 NROrb=    174 NOA=    33 NOB=    33 NVA=   141 NVB=   141

 **** Warning!!: The largest alpha MO coefficient is  0.11350438D+02

 Fully direct method using O(ONN) memory.
 JobTyp=1 Pass  1:  I=  17 to  49 NPSUse=  4 ParTrn=T ParDer=T DoDerP=T.
 Spin components of T(2) and E(2):
     alpha-alpha T2 =       0.7483083997D-01 E2=     -0.2411588367D+00
     alpha-beta  T2 =       0.3783646483D+00 E2=     -0.1241746920D+01
     beta-beta   T2 =       0.7483083997D-01 E2=     -0.2411588367D+00
 ANorm=    0.1236133621D+01
 E2 =    -0.1724064593D+01 EUMP2 =    -0.10803867222175D+04
          IDoAtm=111111111111111
          Differentiating once with respect to electric field.
                with respect to dipole field.
          Differentiating once with respect to nuclear coordinates.
          Keep R1 ints in memory in canonical form, NReq=165451134.
          There are     1 degrees of freedom in the 1st order CPHF.  IDoFFX=0.
 LinEq1:  Iter=  0 NonCon=     1 RMS=4.91D-03 Max=1.32D-01
 AX will form     1 AO Fock derivatives at one time.
 LinEq1:  Iter=  1 NonCon=     1 RMS=1.93D-03 Max=3.55D-02
 LinEq1:  Iter=  2 NonCon=     1 RMS=6.61D-04 Max=2.31D-02
 LinEq1:  Iter=  3 NonCon=     1 RMS=2.27D-04 Max=6.67D-03
 LinEq1:  Iter=  4 NonCon=     1 RMS=7.20D-05 Max=1.25D-03
 LinEq1:  Iter=  5 NonCon=     1 RMS=3.06D-05 Max=1.05D-03
 LinEq1:  Iter=  6 NonCon=     1 RMS=1.27D-05 Max=4.96D-04
 LinEq1:  Iter=  7 NonCon=     1 RMS=5.12D-06 Max=1.81D-04
 LinEq1:  Iter=  8 NonCon=     1 RMS=1.65D-06 Max=4.51D-05
 LinEq1:  Iter=  9 NonCon=     1 RMS=5.32D-07 Max=1.12D-05
 LinEq1:  Iter= 10 NonCon=     1 RMS=1.84D-07 Max=4.06D-06
 LinEq1:  Iter= 11 NonCon=     1 RMS=5.46D-08 Max=1.05D-06
 LinEq1:  Iter= 12 NonCon=     1 RMS=2.58D-08 Max=1.18D-06
 LinEq1:  Iter= 13 NonCon=     1 RMS=7.37D-09 Max=1.68D-07
 LinEq1:  Iter= 14 NonCon=     1 RMS=2.11D-09 Max=6.10D-08
 LinEq1:  Iter= 15 NonCon=     1 RMS=7.69D-10 Max=1.15D-08
 LinEq1:  Iter= 16 NonCon=     1 RMS=1.88D-10 Max=3.16D-09
 LinEq1:  Iter= 17 NonCon=     0 RMS=4.73D-11 Max=7.28D-10
 Linear equations converged to 1.000D-10 1.000D-09 after    17 iterations.
 End of Minotr Frequency-dependent properties file   721 does not exist.
 End of Minotr Frequency-dependent properties file   722 does not exist.
 Calling FoFJK, ICntrl=      2127 FMM=F ISym2X=0 I1Cent= 0 IOpClX= 0 NMat=1 NMatS=1 NMatT=0.
 ***** Axes restored to original set *****
 -------------------------------------------------------------------
 Center     Atomic                   Forces (Hartrees/Bohr)
 Number     Number              X              Y              Z
 -------------------------------------------------------------------
      1        9          -0.000632263    0.001379952    0.000000482
      2        6           0.001227101   -0.001465205    0.000000035
      3        6           0.000981358    0.000746977    0.000001398
      4        6          -0.001451555    0.000624181   -0.000023697
      5        6          -0.001634563   -0.000479369    0.000088386
      6        9           0.001153258   -0.000045211   -0.000034553
      7        9           0.000826535    0.000187557    0.000098529
      8        9           0.000823224    0.000210402   -0.000129321
      9        6           0.000710697   -0.001021820   -0.000000611
     10        7           0.000396351    0.000479150    0.000001272
     11        6          -0.002512211   -0.000820305   -0.000000569
     12       16           0.000794094    0.000299285    0.000000146
     13        1          -0.000328788   -0.000201473   -0.000000934
     14        1          -0.000328654    0.000320075   -0.000000713
     15        1          -0.000024583   -0.000214195    0.000000151
 -------------------------------------------------------------------
 Cartesian Forces:  Max     0.002512211 RMS     0.000756160

 GradGradGradGradGradGradGradGradGradGradGradGradGradGradGradGradGradGrad
 Berny optimization.
 Using GEDIIS/GDIIS optimizer.
 Internal  Forces:  Max     0.001497554 RMS     0.000483163
 Search for a local minimum.
 Step number   2 out of a maximum of   79
 All quantities printed in internal units (Hartrees-Bohrs-Radians)
 Mixed Optimization -- En-DIIS/RFO-DIIS
 Update second derivatives using D2CorX and points    1    2
 DE= -3.35D-04 DEPred=-3.23D-04 R= 1.04D+00
 SS=  1.41D+00  RLast= 4.50D-02 DXNew= 5.0454D-01 1.3510D-01
 Trust test= 1.04D+00 RLast= 4.50D-02 DXMaxT set to 3.00D-01
 Use linear search instead of GDIIS.
     Eigenvalues ---    0.00798   0.01578   0.01656   0.01816   0.01988
     Eigenvalues ---    0.02038   0.02115   0.02188   0.02342   0.02404
     Eigenvalues ---    0.10887   0.11119   0.15852   0.16000   0.16008
     Eigenvalues ---    0.19777   0.22635   0.24362   0.24869   0.25000
     Eigenvalues ---    0.25000   0.25000   0.25000   0.26920   0.34384
     Eigenvalues ---    0.35485   0.36134   0.37506   0.40173   0.40907
     Eigenvalues ---    0.45016   0.46899   0.48896   0.51111   0.52346
     Eigenvalues ---    0.54629   0.54836   0.54895   0.582091000.00000
     Eigenvalues --- 1000.000001000.000001000.000001000.000001000.00000
     Eigenvalues --- 1000.000001000.000001000.000001000.000001000.00000
     Eigenvalues --- 1000.000001000.000001000.000001000.000001000.00000
     Eigenvalues --- 1000.000001000.000001000.000001000.000001000.00000
     Eigenvalues --- 1000.000001000.000001000.000001000.000001000.00000
     Eigenvalues --- 1000.000001000.000001000.000001000.00000
 RFO step:  Lambda=-5.77517734D-05 EMin= 7.98404145D-03
 Quartic linear search produced a step of  0.03837.
 Iteration  1 RMS(Cart)=  0.00293756 RMS(Int)=  0.00000840
 Iteration  2 RMS(Cart)=  0.00000758 RMS(Int)=  0.00000305
 Iteration  3 RMS(Cart)=  0.00000000 RMS(Int)=  0.00000305
 Variable       Old X    -DE/DX   Delta X   Delta X   Delta X     New X
                                 (Linear)    (Quad)   (Total)
    R1        2.52386   0.00150   0.00025   0.00297   0.00322   2.52708
    R2        2.58255   0.00030   0.00020   0.00085   0.00105   2.58360
    R3        2.72282   0.00082  -0.00011   0.00203   0.00192   2.72474
    R4        2.68386  -0.00021  -0.00039  -0.00108  -0.00147   2.68239
    R5        2.05407  -0.00032   0.00012  -0.00078  -0.00065   2.05342
    R6        2.81458   0.00116  -0.00059   0.00290   0.00231   2.81689
    R7        2.58283   0.00050   0.00006   0.00106   0.00112   2.58395
    R8        2.55478   0.00054   0.00009   0.00114   0.00123   2.55601
    R9        2.55467   0.00028   0.00009   0.00065   0.00074   2.55541
   R10        2.55483   0.00027   0.00007   0.00061   0.00068   2.55550
   R11        2.57191   0.00048   0.00007   0.00105   0.00112   2.57303
   R12        2.04841  -0.00044   0.00015  -0.00108  -0.00093   2.04748
   R13        2.62358   0.00049  -0.00017   0.00088   0.00071   2.62429
   R14        1.92643   0.00020   0.00030   0.00086   0.00117   1.92759
   R15        3.12514  -0.00082  -0.00082  -0.00320  -0.00402   3.12112
    A1        2.08387  -0.00062  -0.00015  -0.00276  -0.00291   2.08096
    A2        2.03589   0.00001  -0.00018  -0.00021  -0.00039   2.03550
    A3        2.16342   0.00061   0.00033   0.00297   0.00331   2.16673
    A4        2.07836  -0.00022  -0.00039  -0.00165  -0.00204   2.07632
    A5        2.08868  -0.00011   0.00010  -0.00072  -0.00062   2.08806
    A6        2.11615   0.00033   0.00029   0.00237   0.00266   2.11881
    A7        2.08927  -0.00020  -0.00023  -0.00108  -0.00131   2.08797
    A8        2.08007   0.00013   0.00043   0.00104   0.00146   2.08153
    A9        2.11384   0.00006  -0.00020   0.00004  -0.00015   2.11369
   A10        1.94973   0.00145  -0.00004   0.00657   0.00652   1.95625
   A11        1.93970   0.00081  -0.00016   0.00280   0.00264   1.94234
   A12        1.93948   0.00085  -0.00016   0.00307   0.00290   1.94238
   A13        1.88163  -0.00110   0.00007  -0.00404  -0.00398   1.87765
   A14        1.88131  -0.00106   0.00004  -0.00366  -0.00363   1.87768
   A15        1.86860  -0.00115   0.00027  -0.00562  -0.00535   1.86325
   A16        2.07918  -0.00009  -0.00041  -0.00096  -0.00137   2.07781
   A17        2.16215   0.00018   0.00025   0.00142   0.00168   2.16383
   A18        2.04185  -0.00009   0.00016  -0.00046  -0.00030   2.04154
   A19        2.21567   0.00032   0.00033   0.00206   0.00239   2.21807
   A20        2.08437  -0.00024  -0.00012  -0.00144  -0.00156   2.08281
   A21        1.98315  -0.00009  -0.00022  -0.00062  -0.00084   1.98231
   A22        1.94967  -0.00076  -0.00030  -0.00345  -0.00375   1.94592
   A23        2.20180   0.00006  -0.00010   0.00008  -0.00001   2.20179
   A24        2.13172   0.00070   0.00040   0.00337   0.00376   2.13548
    D1       -3.14158   0.00000   0.00000  -0.00002  -0.00002   3.14159
    D2        0.00002   0.00000   0.00000  -0.00001  -0.00001   0.00000
    D3        0.00000   0.00000   0.00000   0.00000   0.00000  -0.00001
    D4       -3.14159   0.00000   0.00000   0.00000   0.00000   3.14159
    D5        3.14158   0.00000   0.00000   0.00001   0.00001  -3.14159
    D6        0.00000   0.00000   0.00000   0.00000   0.00000   0.00000
    D7        0.00000   0.00000   0.00000   0.00000   0.00000   0.00000
    D8       -3.14158   0.00000   0.00000  -0.00001  -0.00001   3.14159
    D9       -3.14153   0.00000   0.00000   0.00007   0.00007  -3.14146
   D10        0.00000   0.00000   0.00000   0.00001   0.00001   0.00002
   D11        0.00005   0.00000   0.00000   0.00007   0.00007   0.00012
   D12        3.14159   0.00000   0.00000   0.00001   0.00001  -3.14159
   D13       -3.14130   0.00002  -0.00002   0.00013   0.00012  -3.14118
   D14       -1.03893   0.00017  -0.00006   0.00140   0.00135  -1.03759
   D15        1.04008  -0.00019   0.00007  -0.00180  -0.00174   1.03834
   D16        0.00035   0.00003  -0.00002   0.00019   0.00018   0.00053
   D17        2.10272   0.00017  -0.00006   0.00146   0.00140   2.10412
   D18       -2.10146  -0.00019   0.00007  -0.00174  -0.00168  -2.10314
   D19        0.00000   0.00000   0.00000  -0.00002  -0.00002  -0.00002
   D20        3.14159   0.00000   0.00000   0.00000   0.00000   3.14159
   D21        3.14153   0.00000   0.00000  -0.00007  -0.00008   3.14146
   D22       -0.00006   0.00000   0.00000  -0.00006  -0.00006  -0.00012
   D23        0.00000   0.00000   0.00000   0.00001   0.00001   0.00002
   D24        3.14159   0.00000   0.00000   0.00001   0.00001  -3.14159
   D25       -3.14159   0.00000   0.00000   0.00000   0.00000  -3.14159
   D26       -0.00001   0.00000   0.00000   0.00000   0.00000  -0.00001
   D27        0.00000   0.00000   0.00000  -0.00001  -0.00001  -0.00001
   D28        3.14158   0.00000   0.00000   0.00001   0.00001   3.14159
   D29       -3.14159   0.00000   0.00000  -0.00001  -0.00001   3.14159
   D30        0.00000   0.00000   0.00000   0.00001   0.00001   0.00000
         Item               Value     Threshold  Converged?
 Maximum Force            0.001498     0.000450     NO 
 RMS     Force            0.000483     0.000300     NO 
 Maximum Displacement     0.015747     0.001800     NO 
 RMS     Displacement     0.002937     0.001200     NO 
 Predicted change in Energy=-2.938312D-05
 GradGradGradGradGradGradGradGradGradGradGradGradGradGradGradGradGradGrad

                          Input orientation:                          
 ---------------------------------------------------------------------
 Center     Atomic      Atomic             Coordinates (Angstroms)
 Number     Number       Type             X           Y           Z
 ---------------------------------------------------------------------
      1          9           0       -1.967526    2.056746    0.000090
      2          6           0       -1.221696    0.946773    0.000029
      3          6           0        0.140951    1.058050   -0.000025
      4          6           0        0.927147   -0.123795   -0.000081
      5          6           0        2.414145   -0.019780    0.000028
      6          9           0        3.008910   -1.234575   -0.000557
      7          9           0        2.859278    0.653475   -1.084964
      8          9           0        2.859254    0.652476    1.085709
      9          6           0        0.304161   -1.340996   -0.000098
     10          7           0       -1.056641   -1.387223   -0.000038
     11          6           0       -1.931179   -0.308467    0.000023
     12         16           0       -3.571603   -0.500515    0.000088
     13          1           0        0.599632    2.043120   -0.000017
     14          1           0        0.828079   -2.289386   -0.000143
     15          1           0       -1.525912   -2.292905   -0.000044
 ---------------------------------------------------------------------
                    Distance matrix (angstroms):
                    1          2          3          4          5
     1  F    0.000000
     2  C    1.337274   0.000000
     3  C    2.333038   1.367183   0.000000
     4  C    3.624071   2.400758   1.419458   0.000000
     5  C    4.848815   3.762123   2.515776   1.490632   0.000000
     6  F    5.966381   4.759864   3.671692   2.359570   1.352580
     7  F    5.142426   4.232916   2.954670   2.348244   1.352265
     8  F    5.142796   4.233139   2.955077   2.348314   1.352314
     9  C    4.087201   2.749932   2.404591   1.367366   2.489507
    10  N    3.562391   2.339824   2.722790   2.351949   3.730450
    11  C    2.365492   1.441872   2.482155   2.864285   4.354903
    12  S    3.018716   2.759838   4.026436   4.514495   6.005022
    13  H    2.567195   2.125844   1.086623   2.191526   2.747364
    14  H    5.167617   3.830705   3.417232   2.167856   2.768884
    15  H    4.372011   3.253930   3.742637   3.274528   4.548753
                    6          7          8          9         10
     6  F    0.000000
     7  F    2.182443   0.000000
     8  F    2.182506   2.170673   0.000000
     9  C    2.706842   3.418109   3.417808   0.000000
    10  N    4.068416   4.547080   4.546807   1.361587   0.000000
    11  C    5.026147   5.005098   5.005035   2.462287   1.388715
    12  S    6.621329   6.623085   6.622982   3.965849   2.666699
    13  H    4.067911   2.866046   2.866807   3.396990   3.809264
    14  H    2.422530   3.736714   3.736215   1.083482   2.089514
    15  H    4.656681   5.393338   5.392941   2.062838   1.020037
                   11         12         13         14         15
    11  C    0.000000
    12  S    1.651628   0.000000
    13  H    3.454702   4.885620   0.000000
    14  H    3.396695   4.749448   4.338524   0.000000
    15  H    2.025397   2.719837   4.828980   2.353994   0.000000
 Stoichiometry    C6H3F4NS
 Framework group  C1[X(C6H3F4NS)]
 Deg. of freedom    39
 Full point group                 C1      NOp   1
 Largest Abelian subgroup         C1      NOp   1
 Largest concise Abelian subgroup C1      NOp   1
                         Standard orientation:                         
 ---------------------------------------------------------------------
 Center     Atomic      Atomic             Coordinates (Angstroms)
 Number     Number       Type             X           Y           Z
 ---------------------------------------------------------------------
      1          9           0       -1.969643    2.053026    0.000062
      2          6           0       -1.222669    0.943822    0.000002
      3          6           0        0.139862    1.056503   -0.000052
      4          6           0        0.927275   -0.124532   -0.000109
      5          6           0        2.414165   -0.018986    0.000001
      6          9           0        3.010181   -1.233167   -0.000585
      7          9           0        2.858604    0.654727   -1.084991
      8          9           0        2.858582    0.653728    1.085682
      9          6           0        0.305543   -1.342374   -0.000126
     10          7           0       -1.055211   -1.390002   -0.000065
     11          6           0       -1.930859   -0.312148   -0.000004
     12         16           0       -3.571085   -0.505885    0.000060
     13          1           0        0.597529    2.042044   -0.000044
     14          1           0        0.830437   -2.290224   -0.000170
     15          1           0       -1.523549   -2.296167   -0.000071
 ---------------------------------------------------------------------
 Rotational constants (GHZ):      1.8932868      0.4312411      0.3745400
 Standard basis: 6-31G(d) (6D, 7F)
 There are   190 symmetry adapted basis functions of A   symmetry.
 Integral buffers will be    131072 words long.
 Raffenetti 1 integral format.
 Two-electron integral symmetry is turned on.
   190 basis functions,   372 primitive gaussians,   190 cartesian basis functions
    49 alpha electrons       49 beta electrons
       nuclear repulsion energy       803.7227939281 Hartrees.
 NAtoms=   15 NActive=   15 NUniq=   15 SFac= 7.50D-01 NAtFMM=   80 NAOKFM=F Big=F
 One-electron integrals computed using PRISM.
 NBasis=   190 RedAO= T  NBF=   190
 NBsUse=   190 1.00D-06 NBFU=   190
 Initial guess read from the read-write file.
 B after Tr=     0.000000    0.000000    0.000000
         Rot=    1.000000    0.000000    0.000000    0.000000 Ang=   0.00 deg.
 Initial guess orbital symmetries:
       Occupied  (A) (A) (A) (A) (A) (A) (A) (A) (A) (A) (A) (A)
                 (A) (A) (A) (A) (A) (A) (A) (A) (A) (A) (A) (A)
                 (A) (A) (A) (A) (A) (A) (A) (A) (A) (A) (A) (A)
                 (A) (A) (A) (A) (A) (A) (A) (A) (A) (A) (A) (A)
                 (A)
       Virtual   (A) (A) (A) (A) (A) (A) (A) (A) (A) (A) (A) (A)
                 (A) (A) (A) (A) (A) (A) (A) (A) (A) (A) (A) (A)
                 (A) (A) (A) (A) (A) (A) (A) (A) (A) (A) (A) (A)
                 (A) (A) (A) (A) (A) (A) (A) (A) (A) (A) (A) (A)
                 (A) (A) (A) (A) (A) (A) (A) (A) (A) (A) (A) (A)
                 (A) (A) (A) (A) (A) (A) (A) (A) (A) (A) (A) (A)
                 (A) (A) (A) (A) (A) (A) (A) (A) (A) (A) (A) (A)
                 (A) (A) (A) (A) (A) (A) (A) (A) (A) (A) (A) (A)
                 (A) (A) (A) (A) (A) (A) (A) (A) (A) (A) (A) (A)
                 (A) (A) (A) (A) (A) (A) (A) (A) (A) (A) (A) (A)
                 (A) (A) (A) (A) (A) (A) (A) (A) (A) (A) (A) (A)
                 (A) (A) (A) (A) (A) (A) (A) (A) (A)
 Requested convergence on RMS density matrix=1.00D-08 within 128 cycles.
 Requested convergence on MAX density matrix=1.00D-06.
 Requested convergence on             energy=1.00D-06.
 No special actions if energy rises.
 Keep R1 ints in memory in canonical form, NReq=168242440.
 SCF Done:  E(RHF) =  -1078.66242376     A.U. after   11 cycles
             Convg  =    0.4510D-08             -V/T =  2.0018
 ExpMin= 1.17D-01 ExpMax= 2.19D+04 ExpMxC= 3.30D+03 IAcc=1 IRadAn=         1 AccDes= 0.00D+00
 HarFok:  IExCor=  205 AccDes= 0.00D+00 IRadAn=         1 IDoV=-2
 ScaDFX=  1.000000  1.000000  1.000000  1.000000
 Range of M.O.s used for correlation:    17   190
 NBasis=   190 NAE=    49 NBE=    49 NFC=    16 NFV=     0
 NROrb=    174 NOA=    33 NOB=    33 NVA=   141 NVB=   141

 **** Warning!!: The largest alpha MO coefficient is  0.11330611D+02

 Fully direct method using O(ONN) memory.
 JobTyp=1 Pass  1:  I=  17 to  49 NPSUse=  4 ParTrn=T ParDer=T DoDerP=T.
 Spin components of T(2) and E(2):
     alpha-alpha T2 =       0.7485884406D-01 E2=     -0.2411840538D+00
     alpha-beta  T2 =       0.3785479681D+00 E2=     -0.1241950214D+01
     beta-beta   T2 =       0.7485884406D-01 E2=     -0.2411840538D+00
 ANorm=    0.1236230422D+01
 E2 =    -0.1724318321D+01 EUMP2 =    -0.10803867420821D+04
          IDoAtm=111111111111111
          Differentiating once with respect to electric field.
                with respect to dipole field.
          Differentiating once with respect to nuclear coordinates.
          Keep R1 ints in memory in canonical form, NReq=165451134.
          There are     1 degrees of freedom in the 1st order CPHF.  IDoFFX=0.
 LinEq1:  Iter=  0 NonCon=     1 RMS=4.91D-03 Max=1.32D-01
 AX will form     1 AO Fock derivatives at one time.
 LinEq1:  Iter=  1 NonCon=     1 RMS=1.93D-03 Max=3.59D-02
 LinEq1:  Iter=  2 NonCon=     1 RMS=6.60D-04 Max=2.31D-02
 LinEq1:  Iter=  3 NonCon=     1 RMS=2.28D-04 Max=6.73D-03
 LinEq1:  Iter=  4 NonCon=     1 RMS=7.22D-05 Max=1.25D-03
 LinEq1:  Iter=  5 NonCon=     1 RMS=3.08D-05 Max=1.06D-03
 LinEq1:  Iter=  6 NonCon=     1 RMS=1.28D-05 Max=4.97D-04
 LinEq1:  Iter=  7 NonCon=     1 RMS=5.15D-06 Max=1.82D-04
 LinEq1:  Iter=  8 NonCon=     1 RMS=1.66D-06 Max=4.53D-05
 LinEq1:  Iter=  9 NonCon=     1 RMS=5.34D-07 Max=1.13D-05
 LinEq1:  Iter= 10 NonCon=     1 RMS=1.84D-07 Max=4.11D-06
 LinEq1:  Iter= 11 NonCon=     1 RMS=5.48D-08 Max=1.05D-06
 LinEq1:  Iter= 12 NonCon=     1 RMS=2.61D-08 Max=1.20D-06
 LinEq1:  Iter= 13 NonCon=     1 RMS=7.41D-09 Max=1.68D-07
 LinEq1:  Iter= 14 NonCon=     1 RMS=2.12D-09 Max=6.11D-08
 LinEq1:  Iter= 15 NonCon=     1 RMS=7.71D-10 Max=1.14D-08
 LinEq1:  Iter= 16 NonCon=     1 RMS=1.89D-10 Max=3.16D-09
 LinEq1:  Iter= 17 NonCon=     0 RMS=4.73D-11 Max=7.15D-10
 Linear equations converged to 1.000D-10 1.000D-09 after    17 iterations.
 End of Minotr Frequency-dependent properties file   721 does not exist.
 End of Minotr Frequency-dependent properties file   722 does not exist.
 Calling FoFJK, ICntrl=      2127 FMM=F ISym2X=0 I1Cent= 0 IOpClX= 0 NMat=1 NMatS=1 NMatT=0.
 ***** Axes restored to original set *****
 -------------------------------------------------------------------
 Center     Atomic                   Forces (Hartrees/Bohr)
 Number     Number              X              Y              Z
 -------------------------------------------------------------------
      1        9          -0.000092226    0.000224140   -0.000000449
      2        6           0.000528832   -0.000062036    0.000000170
      3        6          -0.000330846    0.000312745    0.000001504
      4        6           0.000425891   -0.000425061    0.000005357
      5        6           0.000829398    0.000036986    0.000011637
      6        9          -0.000576025   -0.000261612    0.000007802
      7        9          -0.000293924    0.000147320   -0.000459470
      8        9          -0.000307409    0.000121690    0.000433185
      9        6           0.000078694    0.000176126    0.000002458
     10        7           0.000047060   -0.000663540   -0.000001911
     11        6          -0.000040523    0.000324566    0.000000500
     12       16          -0.000330905   -0.000095216   -0.000000057
     13        1          -0.000124215   -0.000097437   -0.000000259
     14        1          -0.000026368    0.000072198    0.000000255
     15        1           0.000212565    0.000189131   -0.000000722
 -------------------------------------------------------------------
 Cartesian Forces:  Max     0.000829398 RMS     0.000276267

 GradGradGradGradGradGradGradGradGradGradGradGradGradGradGradGradGradGrad
 Berny optimization.
 Using GEDIIS/GDIIS optimizer.
 Internal  Forces:  Max     0.000918419 RMS     0.000232613
 Search for a local minimum.
 Step number   3 out of a maximum of   79
 All quantities printed in internal units (Hartrees-Bohrs-Radians)
 Mixed Optimization -- En-DIIS/RFO-DIIS
 Swaping is turned off.
 Update second derivatives using D2CorX and points    1    2    3
 DE= -1.99D-05 DEPred=-2.94D-05 R= 6.76D-01
 SS=  1.41D+00  RLast= 1.58D-02 DXNew= 5.0454D-01 4.7341D-02
 Trust test= 6.76D-01 RLast= 1.58D-02 DXMaxT set to 3.00D-01
     Eigenvalues ---    0.00798   0.01579   0.01656   0.01817   0.01988
     Eigenvalues ---    0.02038   0.02115   0.02187   0.02342   0.02404
     Eigenvalues ---    0.10788   0.11235   0.15297   0.16002   0.16020
     Eigenvalues ---    0.19412   0.22551   0.24238   0.24922   0.25000
     Eigenvalues ---    0.25000   0.25000   0.25208   0.31063   0.35234
     Eigenvalues ---    0.35603   0.36661   0.39711   0.40166   0.41965
     Eigenvalues ---    0.45006   0.47408   0.48908   0.51242   0.52175
     Eigenvalues ---    0.54330   0.54844   0.55650   0.573511000.00000
     Eigenvalues --- 1000.000001000.000001000.000001000.000001000.00000
     Eigenvalues --- 1000.000001000.000001000.000001000.000001000.00000
     Eigenvalues --- 1000.000001000.000001000.000001000.000001000.00000
     Eigenvalues --- 1000.000001000.000001000.000001000.000001000.00000
     Eigenvalues --- 1000.000001000.000001000.000001000.000001000.00000
     Eigenvalues --- 1000.000001000.000001000.000001000.00000
 En-DIIS/RFO-DIIS IScMMF=        0 using points:     3    2
 RFO step:  Lambda=-5.75252055D-06.
 DIIS coeffs:      0.75686      0.24314
 Iteration  1 RMS(Cart)=  0.00120385 RMS(Int)=  0.00000155
 Iteration  2 RMS(Cart)=  0.00000156 RMS(Int)=  0.00000031
 Iteration  3 RMS(Cart)=  0.00000000 RMS(Int)=  0.00000031
 Variable       Old X    -DE/DX   Delta X   Delta X   Delta X     New X
                                  (DIIS)     (GDIIS)  (Total)
    R1        2.52708   0.00024  -0.00078   0.00124   0.00045   2.52754
    R2        2.58360  -0.00026  -0.00026  -0.00013  -0.00038   2.58322
    R3        2.72474   0.00023  -0.00047   0.00112   0.00065   2.72539
    R4        2.68239   0.00029   0.00036   0.00017   0.00053   2.68292
    R5        2.05342  -0.00014   0.00016  -0.00056  -0.00040   2.05302
    R6        2.81689  -0.00034  -0.00056   0.00015  -0.00042   2.81647
    R7        2.58395  -0.00020  -0.00027   0.00002  -0.00025   2.58369
    R8        2.55601  -0.00002  -0.00030   0.00033   0.00003   2.55604
    R9        2.55541   0.00035  -0.00018   0.00068   0.00050   2.55591
   R10        2.55550   0.00031  -0.00016   0.00062   0.00045   2.55596
   R11        2.57303  -0.00006  -0.00027   0.00025  -0.00002   2.57301
   R12        2.04748  -0.00008   0.00023  -0.00051  -0.00029   2.04720
   R13        2.62429   0.00043  -0.00017   0.00101   0.00084   2.62513
   R14        1.92759  -0.00027  -0.00028  -0.00019  -0.00048   1.92712
   R15        3.12112   0.00034   0.00098  -0.00033   0.00065   3.12177
    A1        2.08096  -0.00008   0.00071  -0.00114  -0.00043   2.08053
    A2        2.03550   0.00004   0.00010   0.00005   0.00015   2.03565
    A3        2.16673   0.00004  -0.00080   0.00109   0.00028   2.16701
    A4        2.07632   0.00000   0.00049  -0.00058  -0.00008   2.07624
    A5        2.08806  -0.00007   0.00015  -0.00055  -0.00040   2.08766
    A6        2.11881   0.00007  -0.00065   0.00112   0.00048   2.11929
    A7        2.08797   0.00021   0.00032   0.00034   0.00066   2.08863
    A8        2.08153   0.00002  -0.00036   0.00028  -0.00007   2.08146
    A9        2.11369  -0.00023   0.00004  -0.00062  -0.00059   2.11310
   A10        1.95625  -0.00092  -0.00159  -0.00101  -0.00259   1.95366
   A11        1.94234  -0.00043  -0.00064  -0.00028  -0.00092   1.94142
   A12        1.94238  -0.00044  -0.00071  -0.00024  -0.00094   1.94143
   A13        1.87765   0.00065   0.00097   0.00046   0.00143   1.87908
   A14        1.87768   0.00064   0.00088   0.00051   0.00140   1.87908
   A15        1.86325   0.00063   0.00130   0.00068   0.00198   1.86523
   A16        2.07781   0.00011   0.00033   0.00007   0.00041   2.07822
   A17        2.16383  -0.00007  -0.00041   0.00020  -0.00020   2.16362
   A18        2.04154  -0.00004   0.00007  -0.00027  -0.00020   2.04134
   A19        2.21807  -0.00011  -0.00058   0.00033  -0.00025   2.21781
   A20        2.08281  -0.00004   0.00038  -0.00077  -0.00039   2.08242
   A21        1.98231   0.00015   0.00020   0.00044   0.00064   1.98295
   A22        1.94592  -0.00007   0.00091  -0.00119  -0.00028   1.94563
   A23        2.20179   0.00012   0.00000   0.00036   0.00036   2.20215
   A24        2.13548  -0.00005  -0.00092   0.00084  -0.00008   2.13540
    D1        3.14159   0.00000   0.00000   0.00002   0.00002  -3.14158
    D2        0.00000   0.00000   0.00000  -0.00001   0.00000   0.00000
    D3       -0.00001   0.00000   0.00000   0.00000   0.00000  -0.00001
    D4        3.14159   0.00000   0.00000  -0.00002  -0.00002   3.14157
    D5       -3.14159   0.00000   0.00000  -0.00001  -0.00001   3.14158
    D6        0.00000   0.00000   0.00000   0.00000   0.00000  -0.00001
    D7        0.00000   0.00000   0.00000   0.00000   0.00000   0.00001
    D8        3.14159   0.00000   0.00000   0.00001   0.00001  -3.14158
    D9       -3.14146   0.00000  -0.00002  -0.00002  -0.00004  -3.14150
   D10        0.00002   0.00000   0.00000  -0.00002  -0.00002   0.00000
   D11        0.00012   0.00000  -0.00002   0.00000  -0.00002   0.00011
   D12       -3.14159   0.00000   0.00000   0.00001   0.00000  -3.14158
   D13       -3.14118  -0.00001  -0.00003   0.00000  -0.00003  -3.14121
   D14       -1.03759  -0.00011  -0.00033  -0.00030  -0.00063  -1.03822
   D15        1.03834   0.00011   0.00042   0.00021   0.00063   1.03897
   D16        0.00053  -0.00001  -0.00004  -0.00001  -0.00005   0.00048
   D17        2.10412  -0.00011  -0.00034  -0.00031  -0.00065   2.10347
   D18       -2.10314   0.00011   0.00041   0.00020   0.00061  -2.10253
   D19       -0.00002   0.00000   0.00000   0.00003   0.00003   0.00001
   D20        3.14159   0.00000   0.00000   0.00000   0.00000   3.14159
   D21        3.14146   0.00000   0.00002   0.00003   0.00005   3.14151
   D22       -0.00012   0.00000   0.00001   0.00000   0.00002  -0.00010
   D23        0.00002   0.00000   0.00000  -0.00003  -0.00003  -0.00001
   D24       -3.14159   0.00000   0.00000  -0.00003  -0.00003   3.14157
   D25       -3.14159   0.00000   0.00000   0.00000   0.00000  -3.14159
   D26       -0.00001   0.00000   0.00000   0.00000   0.00000  -0.00001
   D27       -0.00001   0.00000   0.00000   0.00001   0.00001   0.00000
   D28        3.14159   0.00000   0.00000   0.00000   0.00000   3.14159
   D29        3.14159   0.00000   0.00000   0.00001   0.00001  -3.14158
   D30        0.00000   0.00000   0.00000   0.00000   0.00000   0.00001
         Item               Value     Threshold  Converged?
 Maximum Force            0.000918     0.000450     NO 
 RMS     Force            0.000233     0.000300     YES
 Maximum Displacement     0.006444     0.001800     NO 
 RMS     Displacement     0.001204     0.001200     NO 
 Predicted change in Energy=-4.505958D-06
 GradGradGradGradGradGradGradGradGradGradGradGradGradGradGradGradGradGrad

                          Input orientation:                          
 ---------------------------------------------------------------------
[...]
 ! A13   A(6,5,7)              107.6631         -DE/DX =    0.0                 !
 ! A14   A(6,5,8)              107.6631         -DE/DX =    0.0                 !
 ! A15   A(7,5,8)              106.8699         -DE/DX =    0.0                 !
 ! A16   A(4,9,10)             119.0731         -DE/DX =    0.0001              !
 ! A17   A(4,9,14)             123.9666         -DE/DX =    0.0                 !
 ! A18   A(10,9,14)            116.9604         -DE/DX =    0.0                 !
 ! A19   A(9,10,11)            127.0713         -DE/DX =    0.0                 !
 ! A20   A(9,10,15)            119.3139         -DE/DX =    0.0                 !
 ! A21   A(11,10,15)           113.6148         -DE/DX =    0.0                 !
 ! A22   A(2,11,10)            111.4765         -DE/DX =    0.0                 !
 ! A23   A(2,11,12)            126.1738         -DE/DX =    0.0001              !
 ! A24   A(10,11,12)           122.3496         -DE/DX =    0.0                 !
 ! D1    D(1,2,3,4)           -179.9992         -DE/DX =    0.0                 !
 ! D2    D(1,2,3,13)            -0.0001         -DE/DX =    0.0                 !
 ! D3    D(11,2,3,4)            -0.0005         -DE/DX =    0.0                 !
 ! D4    D(11,2,3,13)          179.9986         -DE/DX =    0.0                 !
 ! D5    D(1,2,11,10)          179.9993         -DE/DX =    0.0                 !
 ! D6    D(1,2,11,12)           -0.0004         -DE/DX =    0.0                 !
 ! D7    D(3,2,11,10)            0.0005         -DE/DX =    0.0                 !
 ! D8    D(3,2,11,12)         -179.9992         -DE/DX =    0.0                 !
 ! D9    D(2,3,4,5)           -179.9947         -DE/DX =    0.0                 !
 ! D10   D(2,3,4,9)             -0.0002         -DE/DX =    0.0                 !
 ! D11   D(13,3,4,5)             0.0061         -DE/DX =    0.0                 !
 ! D12   D(13,3,4,9)          -179.9993         -DE/DX =    0.0                 !
 ! D13   D(3,4,5,6)           -179.9783         -DE/DX =    0.0                 !
 ! D14   D(3,4,5,7)            -59.4855         -DE/DX =    0.0                 !
 ! D15   D(3,4,5,8)             59.5286         -DE/DX =    0.0                 !
 ! D16   D(9,4,5,6)              0.0272         -DE/DX =    0.0                 !
 ! D17   D(9,4,5,7)            120.52           -DE/DX =    0.0                 !
 ! D18   D(9,4,5,8)           -120.4659         -DE/DX =    0.0                 !
 ! D19   D(3,4,9,10)             0.0008         -DE/DX =    0.0                 !
 ! D20   D(3,4,9,14)           179.9997         -DE/DX =    0.0                 !
 ! D21   D(5,4,9,10)           179.9953         -DE/DX =    0.0                 !
 ! D22   D(5,4,9,14)            -0.0059         -DE/DX =    0.0                 !
 ! D23   D(4,9,10,11)           -0.0008         -DE/DX =    0.0                 !
 ! D24   D(4,9,10,15)          179.9986         -DE/DX =    0.0                 !
 ! D25   D(14,9,10,11)        -179.9997         -DE/DX =    0.0                 !
 ! D26   D(14,9,10,15)          -0.0003         -DE/DX =    0.0                 !
 ! D27   D(9,10,11,2)            0.0001         -DE/DX =    0.0                 !
 ! D28   D(9,10,11,12)        -180.0002         -DE/DX =    0.0                 !
 ! D29   D(15,10,11,2)        -179.9993         -DE/DX =    0.0                 !
 ! D30   D(15,10,11,12)          0.0004         -DE/DX =    0.0                 !
 --------------------------------------------------------------------------------
 GradGradGradGradGradGradGradGradGradGradGradGradGradGradGradGradGradGrad

                          Input orientation:                          
 ---------------------------------------------------------------------
 Center     Atomic      Atomic             Coordinates (Angstroms)
 Number     Number       Type             X           Y           Z
 ---------------------------------------------------------------------
      1          9           0       -1.967282    2.057294    0.000091
      2          6           0       -1.221450    0.947033    0.000047
      3          6           0        0.140959    1.058715    0.000004
      4          6           0        0.927581   -0.123184   -0.000059
      5          6           0        2.414405   -0.019827    0.000013
      6          9           0        3.005500   -1.236431   -0.000537
      7          9           0        2.858768    0.652819   -1.086003
      8          9           0        2.858753    0.651836    1.086670
      9          6           0        0.304845   -1.340363   -0.000072
     10          7           0       -1.055920   -1.387353   -0.000039
     11          6           0       -1.931069   -0.308524    0.000022
     12         16           0       -3.571760   -0.501244    0.000052
     13          1           0        0.598857    2.043916    0.000005
     14          1           0        0.829030   -2.288432   -0.000124
     15          1           0       -1.524216   -2.293256   -0.000070
 ---------------------------------------------------------------------
                    Distance matrix (angstroms):
                    1          2          3          4          5
     1  F    0.000000
     2  C    1.337514   0.000000
     3  C    2.332775   1.366980   0.000000
     4  C    3.624185   2.400770   1.419739   0.000000
     5  C    4.849083   3.762215   2.516308   1.490412   0.000000
     6  F    5.964661   4.757586   3.670598   2.357343   1.352597
     7  F    5.142267   4.232523   2.954767   2.347539   1.352532
     8  F    5.142624   4.232724   2.955130   2.347565   1.352553
     9  C    4.087375   2.749865   2.404669   1.367233   2.488787
    10  N    3.563169   2.340247   2.723191   2.352105   3.730051
    11  C    2.366095   1.442215   2.482468   2.864652   4.355054
    12  S    3.020011   2.760700   4.027128   4.515196   6.005492
    13  H    2.566173   2.125246   1.086412   2.191890   2.748681
    14  H    5.167658   3.830496   3.417138   2.167489   2.767667
    15  H    4.373054   3.254404   3.742796   3.274221   4.547660
                    6          7          8          9         10
     6  F    0.000000
     7  F    2.183812   0.000000
     8  F    2.183828   2.172673   0.000000
     9  C    2.702655   3.416804   3.416477   0.000000
    10  N    4.064223   4.546032   4.545756   1.361576   0.000000
    11  C    5.023020   5.004615   5.004548   2.462520   1.389157
    12  S    6.618221   6.622920   6.622827   3.966382   2.667328
    13  H    4.068490   2.867362   2.868076   3.397026   3.809448
    14  H    2.417380   3.734960   3.734444   1.083330   2.089254
    15  H    4.651366   5.391582   5.391196   2.062394   1.019785
                   11         12         13         14         15
    11  C    0.000000
    12  S    1.651970   0.000000
    13  H    3.454635   4.885886   0.000000
    14  H    3.396790   4.749841   4.338458   0.000000
    15  H    2.026004   2.720982   4.828924   2.353251   0.000000
 Stoichiometry    C6H3F4NS
 Framework group  C1[X(C6H3F4NS)]
 Deg. of freedom    39
 Full point group                 C1      NOp   1
 Largest Abelian subgroup         C1      NOp   1
 Largest concise Abelian subgroup C1      NOp   1
                         Standard orientation:                         
 ---------------------------------------------------------------------
 Center     Atomic      Atomic             Coordinates (Angstroms)
 Number     Number       Type             X           Y           Z
 ---------------------------------------------------------------------
      1          9           0       -1.969296    2.053678    0.000070
      2          6           0       -1.222252    0.944232    0.000026
      3          6           0        0.140035    1.057403   -0.000017
      4          6           0        0.927948   -0.123636   -0.000080
      5          6           0        2.414658   -0.018653   -0.000009
      6          9           0        3.007082   -1.234611   -0.000558
      7          9           0        2.858286    0.654478   -1.086024
      8          9           0        2.858272    0.653495    1.086649
      9          6           0        0.306542   -1.341494   -0.000093
     10          7           0       -1.054171   -1.389971   -0.000061
     11          6           0       -1.930498   -0.312099    0.000001
     12         16           0       -3.570977   -0.506613    0.000030
     13          1           0        0.596855    2.043104   -0.000016
     14          1           0        0.831763   -2.288989   -0.000145
     15          1           0       -1.521476   -2.296386   -0.000091
 ---------------------------------------------------------------------
 Rotational constants (GHZ):      1.8917854      0.4313895      0.3746390

 **********************************************************************

            Population analysis using the SCF density.

 **********************************************************************

 Orbital symmetries:
       Occupied  (A) (A) (A) (A) (A) (A) (A) (A) (A) (A) (A) (A)
                 (A) (A) (A) (A) (A) (A) (A) (A) (A) (A) (A) (A)
                 (A) (A) (A) (A) (A) (A) (A) (A) (A) (A) (A) (A)
                 (A) (A) (A) (A) (A) (A) (A) (A) (A) (A) (A) (A)
                 (A)
       Virtual   (A) (A) (A) (A) (A) (A) (A) (A) (A) (A) (A) (A)
                 (A) (A) (A) (A) (A) (A) (A) (A) (A) (A) (A) (A)
                 (A) (A) (A) (A) (A) (A) (A) (A) (A) (A) (A) (A)
                 (A) (A) (A) (A) (A) (A) (A) (A) (A) (A) (A) (A)
                 (A) (A) (A) (A) (A) (A) (A) (A) (A) (A) (A) (A)
                 (A) (A) (A) (A) (A) (A) (A) (A) (A) (A) (A) (A)
                 (A) (A) (A) (A) (A) (A) (A) (A) (A) (A) (A) (A)
                 (A) (A) (A) (A) (A) (A) (A) (A) (A) (A) (A) (A)
                 (A) (A) (A) (A) (A) (A) (A) (A) (A) (A) (A) (A)
                 (A) (A) (A) (A) (A) (A) (A) (A) (A) (A) (A) (A)
                 (A) (A) (A) (A) (A) (A) (A) (A) (A) (A) (A) (A)
                 (A) (A) (A) (A) (A) (A) (A) (A) (A)
 The electronic state is 1-A.
 Alpha  occ. eigenvalues --  -91.90341 -26.36693 -26.35745 -26.35743 -26.33317
 Alpha  occ. eigenvalues --  -15.68604 -11.54028 -11.37708 -11.37045 -11.35999
 Alpha  occ. eigenvalues --  -11.31097 -11.30194  -8.91431  -6.59760  -6.59482
 Alpha  occ. eigenvalues --   -6.59358  -1.73933  -1.64940  -1.64574  -1.64244
 Alpha  occ. eigenvalues --   -1.35419  -1.16986  -1.11932  -1.02843  -0.97029
 Alpha  occ. eigenvalues --   -0.92455  -0.88114  -0.84695  -0.83545  -0.83170
 Alpha  occ. eigenvalues --   -0.76844  -0.75728  -0.73690  -0.72108  -0.71443
 Alpha  occ. eigenvalues --   -0.71179  -0.70109  -0.67354  -0.67347  -0.65931
 Alpha  occ. eigenvalues --   -0.63862  -0.62388  -0.60621  -0.59202  -0.52454
 Alpha  occ. eigenvalues --   -0.46418  -0.43141  -0.33993  -0.30858
 Alpha virt. eigenvalues --    0.04609   0.08882   0.17796   0.24622   0.25324
 Alpha virt. eigenvalues --    0.26624   0.26694   0.30186   0.33899   0.35421
 Alpha virt. eigenvalues --    0.39447   0.40850   0.42722   0.43151   0.46780
 Alpha virt. eigenvalues --    0.49673   0.54320   0.55652   0.56794   0.59940
 Alpha virt. eigenvalues --    0.61344   0.64536   0.66963   0.68133   0.72059
 Alpha virt. eigenvalues --    0.73269   0.73825   0.75560   0.77325   0.78044
 Alpha virt. eigenvalues --    0.83083   0.84633   0.87627   0.89280   0.90129
 Alpha virt. eigenvalues --    0.92384   0.95796   0.99909   1.02355   1.02900
 Alpha virt. eigenvalues --    1.04758   1.07644   1.09331   1.09962   1.13673
 Alpha virt. eigenvalues --    1.15331   1.16130   1.18198   1.24611   1.28524
 Alpha virt. eigenvalues --    1.31410   1.31868   1.33547   1.34360   1.35164
 Alpha virt. eigenvalues --    1.39230   1.42301   1.42560   1.46662   1.47588
 Alpha virt. eigenvalues --    1.52157   1.60730   1.60832   1.61906   1.63891
 Alpha virt. eigenvalues --    1.64473   1.64566   1.65685   1.66703   1.67696
 Alpha virt. eigenvalues --    1.69761   1.70307   1.72240   1.76332   1.76584
 Alpha virt. eigenvalues --    1.81306   1.86628   1.89999   1.92669   1.93777
 Alpha virt. eigenvalues --    2.00340   2.04485   2.06172   2.09575   2.10157
 Alpha virt. eigenvalues --    2.12554   2.12876   2.18115   2.20373   2.22730
 Alpha virt. eigenvalues --    2.22791   2.24758   2.28670   2.29836   2.30669
 Alpha virt. eigenvalues --    2.32812   2.33856   2.35076   2.36224   2.38023
 Alpha virt. eigenvalues --    2.39302   2.43404   2.45327   2.45756   2.47297
 Alpha virt. eigenvalues --    2.52363   2.61025   2.62064   2.65599   2.68518
 Alpha virt. eigenvalues --    2.75383   2.82937   2.84658   2.84716   2.91498
 Alpha virt. eigenvalues --    2.93010   2.93447   3.00532   3.07557   3.09704
 Alpha virt. eigenvalues --    3.17449   3.22245   3.29742   3.37610   3.38588
 Alpha virt. eigenvalues --    3.43008   3.44664   3.49497   3.71325   4.36458
 Alpha virt. eigenvalues --    4.40151   4.45251   4.48379   4.60205   4.64389
 Alpha virt. eigenvalues --    4.68874   4.81991   5.01575   5.15670   5.57632
 Alpha virt. eigenvalues --    6.01997
          Condensed to atoms (all electrons):
              1          2          3          4          5          6
     1  F    9.160524   0.267379  -0.033696   0.002210  -0.000015   0.000000
     2  C    0.267379   4.577392   0.569080  -0.026361   0.000847  -0.000019
     3  C   -0.033696   0.569080   5.065887   0.355359  -0.012084   0.002192
     4  C    0.002210  -0.026361   0.355359   5.204622   0.416048  -0.045510
     5  C   -0.000015   0.000847  -0.012084   0.416048   3.549571   0.289173
     6  F    0.000000  -0.000019   0.002192  -0.045510   0.289173   9.188643
     7  F    0.000000   0.000293   0.005007  -0.055265   0.284655  -0.030760
     8  F    0.000000   0.000293   0.005001  -0.055271   0.284664  -0.030762
     9  C    0.000132  -0.023073  -0.055175   0.592044  -0.020900   0.005504
    10  N    0.001383  -0.053226  -0.021182  -0.035767   0.001209   0.000240
    11  C   -0.040813   0.379157  -0.078799  -0.001389   0.000079   0.000002
    12  S    0.003523  -0.083528   0.001608  -0.000055   0.000006   0.000000
    13  H   -0.000267  -0.017582   0.368649  -0.029952  -0.000288   0.000035
    14  H    0.000000  -0.000110   0.001815  -0.022523  -0.000141   0.005047
    15  H   -0.000018   0.003856  -0.000574   0.002342  -0.000015   0.000001
              7          8          9         10         11         12
     1  F    0.000000   0.000000   0.000132   0.001383  -0.040813   0.003523
     2  C    0.000293   0.000293  -0.023073  -0.053226   0.379157  -0.083528
     3  C    0.005007   0.005001  -0.055175  -0.021182  -0.078799   0.001608
     4  C   -0.055265  -0.055271   0.592044  -0.035767  -0.001389  -0.000055
     5  C    0.284655   0.284664  -0.020900   0.001209   0.000079   0.000006
     6  F   -0.030760  -0.030762   0.005504   0.000240   0.000002   0.000000
     7  F    9.201835  -0.033973   0.000528  -0.000006  -0.000002   0.000000
     8  F   -0.033973   9.201847   0.000524  -0.000006  -0.000002   0.000000
     9  C    0.000528   0.000524   4.737414   0.265137  -0.038605   0.003333
    10  N   -0.000006  -0.000006   0.265137   7.234770   0.213461  -0.104489
    11  C   -0.000002  -0.000002  -0.038605   0.213461   4.954014   0.445162
    12  S    0.000000   0.000000   0.003333  -0.104489   0.445162  15.953771
    13  H    0.000908   0.000904   0.002435  -0.000261   0.002625  -0.000056
    14  H    0.000084   0.000084   0.380019  -0.032185   0.000960  -0.000133
    15  H    0.000000   0.000000  -0.021564   0.310018  -0.017942   0.013776
             13         14         15
     1  F   -0.000267   0.000000  -0.000018
     2  C   -0.017582  -0.000110   0.003856
     3  C    0.368649   0.001815  -0.000574
     4  C   -0.029952  -0.022523   0.002342
     5  C   -0.000288  -0.000141  -0.000015
     6  F    0.000035   0.005047   0.000001
     7  F    0.000908   0.000084   0.000000
     8  F    0.000904   0.000084   0.000000
     9  C    0.002435   0.380019  -0.021564
    10  N   -0.000261  -0.032185   0.310018
    11  C    0.002625   0.000960  -0.017942
    12  S   -0.000056  -0.000133   0.013776
    13  H    0.392681  -0.000062   0.000008
    14  H   -0.000062   0.381656  -0.002126
    15  H    0.000008  -0.002126   0.270838
 Mulliken atomic charges:
              1
     1  F   -0.360344
     2  C    0.405601
     3  C   -0.173086
     4  C   -0.300530
     5  C    1.207192
     6  F   -0.383786
     7  F   -0.373305
     8  F   -0.373304
     9  C    0.172247
    10  N   -0.779098
    11  C    0.182091
    12  S   -0.232918
    13  H    0.280223
    14  H    0.287616
    15  H    0.441399
 Sum of Mulliken atomic charges =   0.00000
 Mulliken charges with hydrogens summed into heavy atoms:
              1
     1  F   -0.360344
     2  C    0.405601
     3  C    0.107137
     4  C   -0.300530
     5  C    1.207192
     6  F   -0.383786
     7  F   -0.373305
     8  F   -0.373304
     9  C    0.459863
    10  N   -0.337699
    11  C    0.182091
    12  S   -0.232918
 Sum of Mulliken charges with hydrogens summed into heavy atoms =   0.00000
 Electronic spatial extent (au):  <R**2>=           2631.5175
 Charge=              0.0000 electrons
 Dipole moment (field-independent basis, Debye):
    X=              3.5612    Y=             -2.6289    Z=             -0.0004  Tot=              4.4264
 Quadrupole moment (field-independent basis, Debye-Ang):
   XX=            -99.0035   YY=            -64.7097   ZZ=            -75.3006
   XY=              1.9621   XZ=             -0.0001   YZ=              0.0004
 Traceless Quadrupole moment (field-independent basis, Debye-Ang):
   XX=            -19.3322   YY=             14.9616   ZZ=              4.3707
   XY=              1.9621   XZ=             -0.0001   YZ=              0.0004
 Octapole moment (field-independent basis, Debye-Ang**2):
  XXX=            103.4927  YYY=             -8.4101  ZZZ=             -0.0010  XYY=             22.5150
  XXY=              3.9674  XXZ=             -0.0015  XZZ=             16.8240  YZZ=              4.4540
  YYZ=              0.0005  XYZ=             -0.0002
 Hexadecapole moment (field-independent basis, Debye-Ang**3):
 XXXX=          -2675.4367 YYYY=           -446.9523 ZZZZ=           -138.2216 XXXY=            -40.5686
 XXXZ=              0.0054 YYYX=             -2.7981 YYYZ=             -0.0033 ZZZX=              0.0011
 ZZZY=             -0.0065 XXYY=           -512.5132 XXZZ=           -443.1785 YYZZ=           -110.8797
 XXYZ=             -0.0029 YYXZ=              0.0079 ZZXY=            -16.4123
 N-N= 8.036983345705D+02 E-N=-4.164946613517D+03  KE= 1.076727088573D+03
 1\1\GINC-B1\FOpt\RMP2-FC\6-31G(d)\C6H3F4N1S1\ANA\24-Sep-2021\0\\#MP2/6
 -31G* SCF=Tight Opt=ModRedun\\optimization for geometry 0\\0,1\F,-1.96
 7281813,2.0572940237,0.0000910835\C,-1.2214502657,0.9470329936,0.00004
 7034\C,0.1409594705,1.0587150575,0.000004304\C,0.9275807509,-0.1231840
 84,-0.0000589469\C,2.4144048064,-0.0198268061,0.0000126961\F,3.0055000
 437,-1.2364308053,-0.000536839\F,2.8587679972,0.6528194683,-1.08600318
 43\F,2.858753152,0.651836064,1.0866698557\C,0.3048445466,-1.3403629324
 ,-0.00007153\N,-1.0559201872,-1.3873528542,-0.000039364\C,-1.931069494
 ,-0.308524039,0.0000218623\S,-3.5717599539,-0.5012442017,0.0000515677\
 H,0.59885672,2.0439161553,0.0000049681\H,0.8290300889,-2.2884315865,-0
 .0001235233\H,-1.5242158623,-2.2932564532,-0.0000699838\\Version=EM64L
 -G09RevA.01\State=1-A\HF=-1078.662376\MP2=-1080.3867465\RMSD=9.089e-09
 \RMSF=6.715e-05\Dipole=1.1156981,-0.8954177,-0.0001357\PG=C01 [X(C6H3F
 4N1S1)]\\@


 We're simply so accustomed to the marvels of everyday thought
 that we never wonder about it.
 -- Marvin Minsky in "Why people think computers are smart"
 Job cpu time:  0 days  0 hours 17 minutes 57.7 seconds.
 File lengths (MBytes):  RWF=     25 Int=      0 D2E=      0 Chk=      4 Scr=      1
 Normal termination of Gaussian 09 at Fri Sep 24 07:57:25 2021.
