 Entering Gaussian System, Link 0=g16
 Initial command:
 /home/alexey/programs//g16/l1.exe "/home/alexey/tmp/Gau-1297657.inp" -scrdir="/home/alexey/tmp/"
 Entering Link 1 = /home/alexey/programs//g16/l1.exe PID=   1297659.
  
 Copyright (c) 1988-2021, Gaussian, Inc.  All Rights Reserved.
  
 This is part of the Gaussian(R) 16 program.  It is based on
 the Gaussian(R) 09 system (copyright 2009, Gaussian, Inc.),
 the Gaussian(R) 03 system (copyright 2003, Gaussian, Inc.),
 the Gaussian(R) 98 system (copyright 1998, Gaussian, Inc.),
 the Gaussian(R) 94 system (copyright 1995, Gaussian, Inc.),
 the Gaussian 92(TM) system (copyright 1992, Gaussian, Inc.),
 the Gaussian 90(TM) system (copyright 1990, Gaussian, Inc.),
 the Gaussian 88(TM) system (copyright 1988, Gaussian, Inc.),
 the Gaussian 86(TM) system (copyright 1986, Carnegie Mellon
 University), and the Gaussian 82(TM) system (copyright 1983,
 Carnegie Mellon University). Gaussian is a federally registered
 trademark of Gaussian, Inc.
  
 This software contains proprietary and confidential information,
 including trade secrets, belonging to Gaussian, Inc.
  
 This software is provided under written license and may be
 used, copied, transmitted, or stored only in accord with that
 written license.
  
 The following legend is applicable only to US Government
 contracts under FAR:
  
                    RESTRICTED RIGHTS LEGEND
  
 Use, reproduction and disclosure by the US Government is
 subject to restrictions as set forth in subparagraphs (a)
 and (c) of the Commercial Computer Software - Restricted
 Rights clause in FAR 52.227-19.
  
 Gaussian, Inc.
 340 Quinnipiac St., Bldg. 40, Wallingford CT 06492
  
  
 ---------------------------------------------------------------
 Warning -- This program may not be used in any manner that
 competes with the business of Gaussian, Inc. or will provide
 assistance to any competitor of Gaussian, Inc.  The licensee
 of this program is prohibited from giving any competitor of
 Gaussian, Inc. access to this program.  By using this program,
 the user acknowledges that Gaussian, Inc. is engaged in the
 business of creating and licensing software in the field of
 computational chemistry and represents and warrants to the
 licensee that it is not a competitor of Gaussian, Inc. and that
 it will not use this program in any manner prohibited above.
 ---------------------------------------------------------------
  

 Cite this work as:
 Gaussian 16, Revision C.02,
 M. J. Frisch, G. W. Trucks, H. B. Schlegel, G. E. Scuseria, 
 M. A. Robb, J. R. Cheeseman, G. Scalmani, V. Barone, 
 G. A. Petersson, H. Nakatsuji, X. Li, M. Caricato, A. V. Marenich, 
 J. Bloino, B. G. Janesko, R. Gomperts, B. Mennucci, H. P. Hratchian, 
 J. V. Ortiz, A. F. Izmaylov, J. L. Sonnenberg, D. Williams-Young, 
 F. Ding, F. Lipparini, F. Egidi, J. Goings, B. Peng, A. Petrone, 
 T. Henderson, D. Ranasinghe, V. G. Zakrzewski, J. Gao, N. Rega, 
 G. Zheng, W. Liang, M. Hada, M. Ehara, K. Toyota, R. Fukuda, 
 J. Hasegawa, M. Ishida, T. Nakajima, Y. Honda, O. Kitao, H. Nakai, 
 T. Vreven, K. Throssell, J. A. Montgomery, Jr., J. E. Peralta, 
 F. Ogliaro, M. J. Bearpark, J. J. Heyd, E. N. Brothers, K. N. Kudin, 
 V. N. Staroverov, T. A. Keith, R. Kobayashi, J. Normand, 
 K. Raghavachari, A. P. Rendell, J. C. Burant, S. S. Iyengar, 
 J. Tomasi, M. Cossi, J. M. Millam, M. Klene, C. Adamo, R. Cammi, 
 J. W. Ochterski, R. L. Martin, K. Morokuma, O. Farkas, 
 J. B. Foresman, and D. J. Fox, Gaussian, Inc., Wallingford CT, 2019.
 
 ******************************************
 Gaussian 16:  ES64L-G16RevC.02  7-Dec-2021
                 1-Jul-2023 
 ******************************************
 %mem=8GB
 %NPROCS=4
 Will use up to    4 processors via shared memory.
 %NoSave
 ---------------------------------------------------------
 #MP2/6-31G* SCF=Tight Opt=(ModRedun, MaxCycle=20 ) NoSymm
 ---------------------------------------------------------
 1/6=20,18=120,19=15,38=1/1,3;
 2/9=110,12=2,15=1,17=6,18=5,40=1/2;
 3/5=1,6=6,7=1,11=9,25=1,30=1,71=1/1,2,3;
 4//1;
 5/5=2,32=2,38=5/2;
 8/6=4,10=2/1;
 9/15=2,16=-3/6;
 10/5=1,31=1/2;
 6/7=2,8=2,9=2,10=2/1;
 7/12=2,30=1/1,2,3,16;
 1/6=20,18=20,19=15/3(2);
 2/9=110,15=1/2;
 99//99;
 2/9=110,15=1/2;
 3/5=1,6=6,7=1,11=9,25=1,30=1,71=1/1,2,3;
 4/5=5,16=3,69=1/1;
 5/5=2,32=2,38=5/2;
 8/6=4,10=2/1;
 9/15=2,16=-3/6;
 10/5=1,31=1/2;
 7/12=2,30=1/1,2,3,16;
 1/6=20,18=20,19=15/3(-8);
 2/9=110,15=1/2;
 6/7=2,8=2,9=2,10=2/1;
 99/9=10/99;
 --------
 MolName:
 --------
 Symbolic Z-matrix:
 Charge =  0 Multiplicity = 1
 8                    0    -3.60872  -1.42894  -0.17713 
 7                    0    -3.25308  -0.26259  -0.01629 
 8                    0    -4.04087   0.67272   0.13624 
 6                    0    -1.74837   0.02961  -0.03796 
 6                    0    -1.37509   1.28351   0.26652 
 7                    0    -0.08991   1.75178   0.3853 
 6                    0     1.19634   0.99147   0.35733 
 1                    0     1.85521   1.49333   1.11267 
 6                    0     1.96437   1.04468  -0.98689 
 6                    0     3.37666   0.46048  -0.79306 
 6                    0     3.31451  -0.9558   -0.19934 
 6                    0     2.46183  -0.9914    1.08755 
 6                    0     1.02535  -0.45523   0.83887 
 1                    0     0.47433  -0.4966    1.80776 
 7                    0     0.37324  -1.31809  -0.14703 
 6                    0    -0.86714  -1.10259  -0.44249 
 1                    0    -2.16125   2.0235    0.4911 
 1                    0     0.13334   2.73623   0.21944 
 1                    0     1.41873   0.46814  -1.76382 
 1                    0     2.04998   2.0952   -1.33723 
 1                    0     3.91468   0.43761  -1.76597 
 1                    0     3.95045   1.11484  -0.09936 
 1                    0     2.87041  -1.64521  -0.95253 
 1                    0     4.34213  -1.31866   0.02085 
 1                    0     2.40245  -2.03832   1.4579 
 1                    0     2.95375  -0.38149   1.87404 
 1                    0    -1.37431  -1.84418  -1.07848 
 
 The following ModRedundant input section has been read:
 B       4       5 F                                                           
 D       1       2       4      16 F                                           
 D       7      13      15      16 F                                           
 D       7       9      10      11 F                                           
 D       9      10      11      12 F                                           
 D       6       7      13      15 F                                           
 

 GradGradGradGradGradGradGradGradGradGradGradGradGradGradGradGradGradGrad
 Berny optimization.
 Initialization pass.
                           ----------------------------
                           !    Initial Parameters    !
                           ! (Angstroms and Degrees)  !
 --------------------------                            --------------------------
 ! Name  Definition              Value          Derivative Info.                !
 --------------------------------------------------------------------------------
 ! R1    R(1,2)                  1.2299         estimate D2E/DX2                !
 ! R2    R(2,3)                  1.2323         estimate D2E/DX2                !
 ! R3    R(2,4)                  1.533          estimate D2E/DX2                !
 ! R4    R(4,5)                  1.3432         Frozen                          !
 ! R5    R(4,16)                 1.4907         estimate D2E/DX2                !
 ! R6    R(5,6)                  1.373          estimate D2E/DX2                !
 ! R7    R(5,17)                 1.1028         estimate D2E/DX2                !
 ! R8    R(6,7)                  1.4944         estimate D2E/DX2                !
 ! R9    R(6,18)                 1.023          estimate D2E/DX2                !
 ! R10   R(7,8)                  1.1209         estimate D2E/DX2                !
 ! R11   R(7,9)                  1.5491         estimate D2E/DX2                !
 ! R12   R(7,13)                 1.5343         estimate D2E/DX2                !
 ! R13   R(9,10)                 1.5406         estimate D2E/DX2                !
 ! R14   R(9,19)                 1.1107         estimate D2E/DX2                !
 ! R15   R(9,20)                 1.1107         estimate D2E/DX2                !
 ! R16   R(10,11)                1.5369         estimate D2E/DX2                !
 ! R17   R(10,21)                1.112          estimate D2E/DX2                !
 ! R18   R(10,22)                1.1129         estimate D2E/DX2                !
 ! R19   R(11,12)                1.5442         estimate D2E/DX2                !
 ! R20   R(11,23)                1.1135         estimate D2E/DX2                !
 ! R21   R(11,24)                1.1118         estimate D2E/DX2                !
 ! R22   R(12,13)                1.5533         estimate D2E/DX2                !
 ! R23   R(12,25)                1.1121         estimate D2E/DX2                !
 ! R24   R(12,26)                1.1102         estimate D2E/DX2                !
 ! R25   R(13,14)                1.1154         estimate D2E/DX2                !
 ! R26   R(13,15)                1.4635         estimate D2E/DX2                !
 ! R27   R(15,16)                1.2932         estimate D2E/DX2                !
 ! R28   R(16,27)                1.1008         estimate D2E/DX2                !
 ! A1    A(1,2,3)              123.4407         estimate D2E/DX2                !
 ! A2    A(1,2,4)              117.5636         estimate D2E/DX2                !
 ! A3    A(3,2,4)              118.9834         estimate D2E/DX2                !
 ! A4    A(2,4,5)              116.5833         estimate D2E/DX2                !
 ! A5    A(2,4,16)             116.0611         estimate D2E/DX2                !
 ! A6    A(5,4,16)             127.318          estimate D2E/DX2                !
 ! A7    A(4,5,6)              126.7346         estimate D2E/DX2                !
 ! A8    A(4,5,17)             118.3238         estimate D2E/DX2                !
 ! A9    A(6,5,17)             114.8872         estimate D2E/DX2                !
 ! A10   A(5,6,7)              129.0886         estimate D2E/DX2                !
 ! A11   A(5,6,18)             121.2295         estimate D2E/DX2                !
 ! A12   A(7,6,18)             107.3815         estimate D2E/DX2                !
 ! A13   A(6,7,8)              105.3974         estimate D2E/DX2                !
 ! A14   A(6,7,9)              115.1824         estimate D2E/DX2                !
 ! A15   A(6,7,13)             112.2052         estimate D2E/DX2                !
 ! A16   A(8,7,9)              106.1368         estimate D2E/DX2                !
 ! A17   A(8,7,13)             106.0318         estimate D2E/DX2                !
 ! A18   A(9,7,13)             111.0996         estimate D2E/DX2                !
 ! A19   A(7,9,10)             109.4088         estimate D2E/DX2                !
 ! A20   A(7,9,19)             110.2175         estimate D2E/DX2                !
 ! A21   A(7,9,20)             110.146          estimate D2E/DX2                !
 ! A22   A(10,9,19)            109.9685         estimate D2E/DX2                !
 ! A23   A(10,9,20)            109.1283         estimate D2E/DX2                !
 ! A24   A(19,9,20)            107.949          estimate D2E/DX2                !
 ! A25   A(9,10,11)            111.1595         estimate D2E/DX2                !
 ! A26   A(9,10,21)            109.9535         estimate D2E/DX2                !
 ! A27   A(9,10,22)            109.1529         estimate D2E/DX2                !
 ! A28   A(11,10,21)           109.7911         estimate D2E/DX2                !
 ! A29   A(11,10,22)           108.7755         estimate D2E/DX2                !
 ! A30   A(21,10,22)           107.938          estimate D2E/DX2                !
 ! A31   A(10,11,12)           111.4391         estimate D2E/DX2                !
 ! A32   A(10,11,23)           108.9878         estimate D2E/DX2                !
 ! A33   A(10,11,24)           109.8689         estimate D2E/DX2                !
 ! A34   A(12,11,23)           109.2216         estimate D2E/DX2                !
 ! A35   A(12,11,24)           109.7432         estimate D2E/DX2                !
 ! A36   A(23,11,24)           107.4895         estimate D2E/DX2                !
 ! A37   A(11,12,13)           111.6713         estimate D2E/DX2                !
 ! A38   A(11,12,25)           109.1916         estimate D2E/DX2                !
 ! A39   A(11,12,26)           109.4543         estimate D2E/DX2                !
 ! A40   A(13,12,25)           109.2013         estimate D2E/DX2                !
 ! A41   A(13,12,26)           109.4843         estimate D2E/DX2                !
 ! A42   A(25,12,26)           107.7532         estimate D2E/DX2                !
 ! A43   A(7,13,12)            105.8223         estimate D2E/DX2                !
 ! A44   A(7,13,14)            111.2636         estimate D2E/DX2                !
 ! A45   A(7,13,15)            113.2137         estimate D2E/DX2                !
 ! A46   A(12,13,14)           107.7574         estimate D2E/DX2                !
 ! A47   A(12,13,15)           108.4459         estimate D2E/DX2                !
 ! A48   A(14,13,15)           110.0714         estimate D2E/DX2                !
 ! A49   A(13,15,16)           118.8858         estimate D2E/DX2                !
 ! A50   A(4,16,15)            129.1684         estimate D2E/DX2                !
 ! A51   A(4,16,27)            113.3357         estimate D2E/DX2                !
 ! A52   A(15,16,27)           117.4955         estimate D2E/DX2                !
 ! D1    D(1,2,4,5)           -173.8077         estimate D2E/DX2                !
 ! D2    D(1,2,4,16)             8.2584         Frozen                          !
 ! D3    D(3,2,4,5)              7.4219         estimate D2E/DX2                !
 ! D4    D(3,2,4,16)          -170.5121         estimate D2E/DX2                !
 ! D5    D(2,4,5,6)            175.9789         estimate D2E/DX2                !
 ! D6    D(2,4,5,17)            -1.1889         estimate D2E/DX2                !
 ! D7    D(16,4,5,6)            -6.355          estimate D2E/DX2                !
 ! D8    D(16,4,5,17)          176.4773         estimate D2E/DX2                !
 ! D9    D(2,4,16,15)         -154.5769         estimate D2E/DX2                !
 ! D10   D(2,4,16,27)           25.1694         estimate D2E/DX2                !
 ! D11   D(5,4,16,15)           27.7464         estimate D2E/DX2                !
 ! D12   D(5,4,16,27)         -152.5072         estimate D2E/DX2                !
 ! D13   D(4,5,6,7)             -7.2193         estimate D2E/DX2                !
 ! D14   D(4,5,6,18)           153.2817         estimate D2E/DX2                !
 ! D15   D(17,5,6,7)           170.0323         estimate D2E/DX2                !
 ! D16   D(17,5,6,18)          -29.4666         estimate D2E/DX2                !
 ! D17   D(5,6,7,8)           -142.5126         estimate D2E/DX2                !
 ! D18   D(5,6,7,9)            100.8692         estimate D2E/DX2                !
 ! D19   D(5,6,7,13)           -27.5633         estimate D2E/DX2                !
 ! D20   D(18,6,7,8)            54.8897         estimate D2E/DX2                !
 ! D21   D(18,6,7,9)           -61.7285         estimate D2E/DX2                !
 ! D22   D(18,6,7,13)          169.839          estimate D2E/DX2                !
 ! D23   D(6,7,9,10)           169.123          estimate D2E/DX2                !
 ! D24   D(6,7,9,19)           -69.8389         estimate D2E/DX2                !
 ! D25   D(6,7,9,20)            49.1677         estimate D2E/DX2                !
 ! D26   D(8,7,9,10)            52.9252         estimate D2E/DX2                !
 ! D27   D(8,7,9,19)           173.9633         estimate D2E/DX2                !
 ! D28   D(8,7,9,20)           -67.0301         estimate D2E/DX2                !
 ! D29   D(13,7,9,10)          -61.8967         estimate D2E/DX2                !
 ! D30   D(13,7,9,19)           59.1414         estimate D2E/DX2                !
 ! D31   D(13,7,9,20)          178.148          estimate D2E/DX2                !
 ! D32   D(6,7,13,12)         -166.3329         estimate D2E/DX2                !
 ! D33   D(6,7,13,14)          -49.5612         estimate D2E/DX2                !
 ! D34   D(6,7,13,15)           75.0221         Frozen                          !
 ! D35   D(8,7,13,12)          -51.7708         estimate D2E/DX2                !
 ! D36   D(8,7,13,14)           65.001          estimate D2E/DX2                !
 ! D37   D(8,7,13,15)         -170.4158         estimate D2E/DX2                !
 ! D38   D(9,7,13,12)           63.1165         estimate D2E/DX2                !
 ! D39   D(9,7,13,14)          179.8883         estimate D2E/DX2                !
 ! D40   D(9,7,13,15)          -55.5285         estimate D2E/DX2                !
 ! D41   D(7,9,10,11)           54.8123         Frozen                          !
 ! D42   D(7,9,10,21)          176.6006         estimate D2E/DX2                !
 ! D43   D(7,9,10,22)          -65.1735         estimate D2E/DX2                !
 ! D44   D(19,9,10,11)         -66.3767         estimate D2E/DX2                !
 ! D45   D(19,9,10,21)          55.4116         estimate D2E/DX2                !
 ! D46   D(19,9,10,22)         173.6375         estimate D2E/DX2                !
 ! D47   D(20,9,10,11)         175.3899         estimate D2E/DX2                !
 ! D48   D(20,9,10,21)         -62.8218         estimate D2E/DX2                !
 ! D49   D(20,9,10,22)          55.4041         estimate D2E/DX2                !
 ! D50   D(9,10,11,12)         -52.8225         Frozen                          !
 ! D51   D(9,10,11,23)          67.7859         estimate D2E/DX2                !
 ! D52   D(9,10,11,24)        -174.6791         estimate D2E/DX2                !
 ! D53   D(21,10,11,12)       -174.7053         estimate D2E/DX2                !
 ! D54   D(21,10,11,23)        -54.0968         estimate D2E/DX2                !
 ! D55   D(21,10,11,24)         63.4381         estimate D2E/DX2                !
 ! D56   D(22,10,11,12)         67.3871         estimate D2E/DX2                !
 ! D57   D(22,10,11,23)       -172.0045         estimate D2E/DX2                !
 ! D58   D(22,10,11,24)        -54.4695         estimate D2E/DX2                !
 ! D59   D(10,11,12,13)         56.4945         estimate D2E/DX2                !
 ! D60   D(10,11,12,25)        177.3612         estimate D2E/DX2                !
 ! D61   D(10,11,12,26)        -64.9055         estimate D2E/DX2                !
 ! D62   D(23,11,12,13)        -63.9766         estimate D2E/DX2                !
 ! D63   D(23,11,12,25)         56.8901         estimate D2E/DX2                !
 ! D64   D(23,11,12,26)        174.6234         estimate D2E/DX2                !
 ! D65   D(24,11,12,13)        178.4239         estimate D2E/DX2                !
 ! D66   D(24,11,12,25)        -60.7094         estimate D2E/DX2                !
 ! D67   D(24,11,12,26)         57.0239         estimate D2E/DX2                !
 ! D68   D(11,12,13,7)         -60.1129         estimate D2E/DX2                !
 ! D69   D(11,12,13,14)       -179.2272         estimate D2E/DX2                !
 ! D70   D(11,12,13,15)         61.6493         estimate D2E/DX2                !
 ! D71   D(25,12,13,7)         179.026          estimate D2E/DX2                !
 ! D72   D(25,12,13,14)         59.9118         estimate D2E/DX2                !
 ! D73   D(25,12,13,15)        -59.2118         estimate D2E/DX2                !
 ! D74   D(26,12,13,7)          61.2697         estimate D2E/DX2                !
 ! D75   D(26,12,13,14)        -57.8445         estimate D2E/DX2                !
 ! D76   D(26,12,13,15)       -176.9681         estimate D2E/DX2                !
 ! D77   D(7,13,15,16)         -67.1602         Frozen                          !
 ! D78   D(12,13,15,16)        175.7239         estimate D2E/DX2                !
 ! D79   D(14,13,15,16)         58.0676         estimate D2E/DX2                !
 ! D80   D(13,15,16,4)           7.9453         estimate D2E/DX2                !
 ! D81   D(13,15,16,27)       -171.7921         estimate D2E/DX2                !
 --------------------------------------------------------------------------------
 Trust Radius=3.00D-01 FncErr=1.00D-07 GrdErr=1.00D-07 EigMax=2.50D+02 EigMin=1.00D-04
 Number of steps in this run=     20 maximum allowed number of steps=    162.
 GradGradGradGradGradGradGradGradGradGradGradGradGradGradGradGradGradGrad

                          Input orientation:                          
 ---------------------------------------------------------------------
 Center     Atomic      Atomic             Coordinates (Angstroms)
 Number     Number       Type             X           Y           Z
 ---------------------------------------------------------------------
      1          8           0       -3.608720   -1.428940   -0.177130
      2          7           0       -3.253080   -0.262590   -0.016290
      3          8           0       -4.040870    0.672720    0.136240
      4          6           0       -1.748370    0.029610   -0.037960
      5          6           0       -1.375090    1.283510    0.266520
      6          7           0       -0.089910    1.751780    0.385300
      7          6           0        1.196340    0.991470    0.357330
      8          1           0        1.855210    1.493330    1.112670
      9          6           0        1.964370    1.044680   -0.986890
     10          6           0        3.376660    0.460480   -0.793060
     11          6           0        3.314510   -0.955800   -0.199340
     12          6           0        2.461830   -0.991400    1.087550
     13          6           0        1.025350   -0.455230    0.838870
     14          1           0        0.474330   -0.496600    1.807760
     15          7           0        0.373240   -1.318090   -0.147030
     16          6           0       -0.867140   -1.102590   -0.442490
     17          1           0       -2.161250    2.023500    0.491100
     18          1           0        0.133340    2.736230    0.219440
     19          1           0        1.418730    0.468140   -1.763820
     20          1           0        2.049980    2.095200   -1.337230
     21          1           0        3.914680    0.437610   -1.765970
     22          1           0        3.950450    1.114840   -0.099360
     23          1           0        2.870410   -1.645210   -0.952530
     24          1           0        4.342130   -1.318660    0.020850
     25          1           0        2.402450   -2.038320    1.457900
     26          1           0        2.953750   -0.381490    1.874040
     27          1           0       -1.374310   -1.844180   -1.078480
 ---------------------------------------------------------------------
                    Distance matrix (angstroms):
                    1          2          3          4          5
     1  O    0.000000
     2  N    1.229927   0.000000
     3  O    2.168393   1.232349   0.000000
     4  C    2.368045   1.532972   2.387361   0.000000
     5  C    3.541654   2.448929   2.737959   1.343247   0.000000
     6  N    4.776540   3.771552   4.103229   2.428067   1.372980
     7  C    5.406721   4.637844   5.251557   3.122939   2.589553
     8  H    6.329121   5.518372   6.032460   4.056133   3.345868
     9  C    6.150922   5.465602   6.120677   3.964249   3.574922
    10  C    7.262562   6.714138   7.478529   5.198246   4.937531
    11  C    6.939414   6.606609   7.540975   5.160410   5.217651
    12  C    6.216304   5.865989   6.779336   4.476049   4.535555
    13  C    4.843033   4.367307   5.237609   2.949139   3.018760
    14  H    4.634689   4.156381   4.954626   2.936660   2.994089
    15  N    3.983616   3.779070   4.850560   2.515834   3.161646
    16  C    2.773658   2.565143   3.682284   1.490667   2.540508
    17  H    3.802768   2.583746   2.341688   2.103799   1.102755
    18  H    5.613281   4.529496   4.657148   3.306490   2.094749
    19  H    5.602834   5.041194   5.784403   3.633376   3.548597
    20  H    6.766556   5.952017   6.425964   4.514668   3.868069
    21  H    7.912646   7.411373   8.183181   5.934865   5.729592
    22  H    7.976084   7.334511   8.007008   5.801555   5.340758
    23  H    6.528947   6.347071   7.370482   4.997458   5.299788
    24  H    7.954079   7.668369   8.617053   6.238227   6.286354
    25  H    6.259300   6.108312   7.114274   4.872703   5.169502
    26  H    6.954888   6.489393   7.283956   5.092610   4.908686
    27  H    2.444881   2.675715   3.862755   2.175705   3.404625
                    6          7          8          9         10
     6  N    0.000000
     7  C    1.494421   0.000000
     8  H    2.092691   1.120942   0.000000
     9  C    2.569623   1.549074   2.149734   0.000000
    10  C    3.882408   2.521734   2.648282   1.540592   0.000000
    11  C    4.388948   2.930595   3.138338   2.538707   1.536950
    12  C    3.811767   2.463018   2.557832   2.948964   2.545891
    13  C    2.514045   1.534294   2.135537   2.542614   3.005059
    14  H    2.719737   2.199863   2.519881   3.522191   4.012952
    15  N    3.149918   2.503186   3.418649   2.969805   3.549817
    16  C    3.071930   3.046760   4.070444   3.595078   4.536069
    17  H    2.091764   3.515166   4.098705   4.490354   5.895807
    18  H    1.022982   2.047723   2.303800   2.769340   4.089415
    19  H    2.922746   2.196044   3.084757   1.110739   2.185389
    20  H    2.768425   2.195098   2.530255   1.110702   2.174514
    21  H    4.731992   3.493499   3.693580   2.186140   1.111999
    22  H    4.118871   2.794442   2.449960   2.176498   1.112943
    23  H    4.700300   3.386787   3.891801   2.838591   2.171555
    24  H    5.404017   3.917386   3.909492   3.500665   2.181724
    25  H    4.661243   3.441741   3.590433   3.959015   3.501415
    26  H    4.003880   2.697020   2.302482   3.346305   2.828637
    27  H    4.089409   4.087873   5.135164   4.415958   5.288160
                   11         12         13         14         15
    11  C    0.000000
    12  C    1.544156   0.000000
    13  C    2.562948   1.553317   0.000000
    14  H    3.507982   2.171102   1.115384   0.000000
    15  N    2.963960   2.448085   1.463480   2.122797   0.000000
    16  C    4.191285   3.665437   2.375390   2.688939   1.293166
    17  H    6.271912   5.551418   4.052094   3.876955   4.242296
    18  H    4.891452   4.480034   3.371171   3.618042   4.077912
    19  H    2.840631   3.368772   2.789508   3.818219   2.626343
    20  H    3.493198   3.946679   3.505705   4.369332   3.984794
    21  H    2.180854   3.506482   3.991313   5.047802   4.271445
    22  H    2.168402   2.839189   3.449870   4.279866   4.326413
    23  H    1.113466   2.180902   2.833622   3.831410   2.644181
    24  H    1.111825   2.186430   3.523592   4.339206   3.972439
    25  H    2.179483   1.112082   2.187642   2.493381   2.685559
    26  H    2.181487   1.110199   2.189918   2.482975   3.408955
    27  H    4.852539   4.487192   3.371021   3.682910   2.048976
                   16         17         18         19         20
    16  C    0.000000
    17  H    3.509808   0.000000
    18  H    4.021896   2.418042   0.000000
    19  H    3.072183   4.507778   3.275634   0.000000
    20  H    4.419956   4.591556   2.551010   1.796602   0.000000
    21  H    5.195153   6.672806   4.850159   2.496138   2.531507
    22  H    5.314500   6.207027   4.159431   3.098105   2.470873
    23  H    3.811018   6.392269   5.297366   2.689203   3.848606
    24  H    5.234297   7.327013   5.847690   3.863155   4.330447
    25  H    3.895804   6.185503   5.429454   4.198753   5.002297
    26  H    4.526091   5.818911   4.518030   4.038834   4.154882
    27  H    1.100754   4.247565   4.993772   3.690202   5.226034
                   21         22         23         24         25
    21  H    0.000000
    22  H    1.799308   0.000000
    23  H    2.467858   3.084195   0.000000
    24  H    2.541638   2.467749   1.794453   0.000000
    25  H    4.337097   3.842367   2.486704   2.519004   0.000000
    26  H    3.852789   2.669592   3.097327   2.498039   1.795046
    27  H    5.801088   6.169890   4.251247   5.844860   4.553551
                   26         27
    26  H    0.000000
    27  H    5.439572   0.000000
 Symmetry turned off by external request.
 Stoichiometry    C9H13N3O2
 Framework group  C1[X(C9H13N3O2)]
 Deg. of freedom    75
 Full point group                 C1      NOp   1
 Rotational constants (GHZ):           1.6947496           0.4004415           0.3561629
 Standard basis: 6-31G(d) (6D, 7F)
   236 basis functions,   444 primitive gaussians,   236 cartesian basis functions
    52 alpha electrons       52 beta electrons
       nuclear repulsion energy       919.3074360072 Hartrees.
 NAtoms=   27 NActive=   27 NUniq=   27 SFac= 1.00D+00 NAtFMM=   60 NAOKFM=F Big=F
 Integral buffers will be    131072 words long.
 Raffenetti 1 integral format.
 Two-electron integral symmetry is turned off.
 One-electron integrals computed using PRISM.
 NBasis=   236 RedAO= T EigKep=  1.15D-03  NBF=   236
 NBsUse=   236 1.00D-06 EigRej= -1.00D+00 NBFU=   236
 ExpMin= 1.61D-01 ExpMax= 5.48D+03 ExpMxC= 8.25D+02 IAcc=3 IRadAn=         5 AccDes= 0.00D+00
 Harris functional with IExCor=  205 and IRadAn=       5 diagonalized for initial guess.
 HarFok:  IExCor=  205 AccDes= 0.00D+00 IRadAn=         5 IDoV= 1 UseB2=F ITyADJ=14
 ICtDFT=  3500011 ScaDFX=  1.000000  1.000000  1.000000  1.000000
 FoFCou: FMM=F IPFlag=           0 FMFlag=      100000 FMFlg1=           0
         NFxFlg=           0 DoJE=T BraDBF=F KetDBF=T FulRan=T
         wScrn=  0.000000 ICntrl=       500 IOpCl=  0 I1Cent=   200000004 NGrid=           0
         NMat0=    1 NMatS0=      1 NMatT0=    0 NMatD0=    1 NMtDS0=    0 NMtDT0=    0
 Symmetry not used in FoFCou.
 Keep R1 ints in memory in canonical form, NReq=397720213.
 Requested convergence on RMS density matrix=1.00D-08 within 128 cycles.
 Requested convergence on MAX density matrix=1.00D-06.
 Requested convergence on             energy=1.00D-06.
 No special actions if energy rises.
 SCF Done:  E(RHF) =  -661.282896069     A.U. after   16 cycles
            NFock= 16  Conv=0.82D-08     -V/T= 2.0034
 ExpMin= 1.61D-01 ExpMax= 5.48D+03 ExpMxC= 8.25D+02 IAcc=3 IRadAn=         5 AccDes= 0.00D+00
 HarFok:  IExCor=  205 AccDes= 0.00D+00 IRadAn=         5 IDoV=-2 UseB2=F ITyADJ=14
 ICtDFT= 12500011 ScaDFX=  1.000000  1.000000  1.000000  1.000000
 Range of M.O.s used for correlation:    15   236
 NBasis=   236 NAE=    52 NBE=    52 NFC=    14 NFV=     0
 NROrb=    222 NOA=    38 NOB=    38 NVA=   184 NVB=   184
 Fully direct method using O(ONN) memory.
 JobTyp=1 Pass  1:  I=  15 to  52 NPSUse=  4 ParTrn=T ParDer=T DoDerP=T.
 Spin components of T(2) and E(2):
     alpha-alpha T2 =       0.9161897061D-01 E2=     -0.2715519745D+00
     alpha-beta  T2 =       0.4980148820D+00 E2=     -0.1492731508D+01
     beta-beta   T2 =       0.9161897061D-01 E2=     -0.2715519745D+00
 ANorm=    0.1296631337D+01
 E2 =    -0.2035835457D+01 EUMP2 =    -0.66331873152586D+03
          IDoAtm=111111111111111111111111111
          Differentiating once with respect to electric field.
                with respect to dipole field.
          Differentiating once with respect to nuclear coordinates.
 Keep R1 ints in memory in canonical form, NReq=397723379.
          There are     1 degrees of freedom in the 1st order CPHF.  IDoFFX=0 NUNeed=     1.
 LinEq1:  Iter=  0 NonCon=     1 RMS=4.55D-03 Max=1.22D-01 NDo=     1
 AX will form     1 AO Fock derivatives at one time.
 LinEq1:  Iter=  1 NonCon=     1 RMS=1.55D-03 Max=2.78D-02 NDo=     1
 LinEq1:  Iter=  2 NonCon=     1 RMS=6.29D-04 Max=1.96D-02 NDo=     1
 LinEq1:  Iter=  3 NonCon=     1 RMS=2.78D-04 Max=6.16D-03 NDo=     1
 LinEq1:  Iter=  4 NonCon=     1 RMS=8.58D-05 Max=1.55D-03 NDo=     1
 LinEq1:  Iter=  5 NonCon=     1 RMS=3.43D-05 Max=1.50D-03 NDo=     1
 LinEq1:  Iter=  6 NonCon=     1 RMS=1.43D-05 Max=5.90D-04 NDo=     1
 LinEq1:  Iter=  7 NonCon=     1 RMS=5.56D-06 Max=1.18D-04 NDo=     1
 LinEq1:  Iter=  8 NonCon=     1 RMS=2.33D-06 Max=7.31D-05 NDo=     1
 LinEq1:  Iter=  9 NonCon=     1 RMS=8.99D-07 Max=2.52D-05 NDo=     1
 LinEq1:  Iter= 10 NonCon=     1 RMS=4.47D-07 Max=1.63D-05 NDo=     1
 LinEq1:  Iter= 11 NonCon=     1 RMS=1.53D-07 Max=4.58D-06 NDo=     1
 LinEq1:  Iter= 12 NonCon=     1 RMS=5.52D-08 Max=1.05D-06 NDo=     1
 LinEq1:  Iter= 13 NonCon=     1 RMS=1.86D-08 Max=5.24D-07 NDo=     1
 LinEq1:  Iter= 14 NonCon=     1 RMS=5.92D-09 Max=1.73D-07 NDo=     1
 LinEq1:  Iter= 15 NonCon=     1 RMS=2.04D-09 Max=6.07D-08 NDo=     1
 LinEq1:  Iter= 16 NonCon=     1 RMS=6.54D-10 Max=9.25D-09 NDo=     1
 LinEq1:  Iter= 17 NonCon=     1 RMS=1.94D-10 Max=2.80D-09 NDo=     1
 LinEq1:  Iter= 18 NonCon=     0 RMS=6.27D-11 Max=9.94D-10 NDo=     1
 Linear equations converged to 1.000D-10 1.000D-09 after    18 iterations.
 End of Minotr F.D. properties file   721 does not exist.
 End of Minotr F.D. properties file   722 does not exist.
 End of Minotr F.D. properties file   788 does not exist.

 **********************************************************************

            Population analysis using the SCF Density.

 **********************************************************************

 Alpha  occ. eigenvalues --  -20.60159 -20.59726 -15.85482 -15.62614 -15.57177
 Alpha  occ. eigenvalues --  -11.34662 -11.30618 -11.29865 -11.29864 -11.27648
 Alpha  occ. eigenvalues --  -11.24499 -11.23809 -11.23383 -11.22841  -1.58724
 Alpha  occ. eigenvalues --   -1.38202  -1.28422  -1.22781  -1.13720  -1.08881
 Alpha  occ. eigenvalues --   -1.01749  -1.00573  -0.93859  -0.89138  -0.84888
 Alpha  occ. eigenvalues --   -0.81639  -0.78103  -0.77012  -0.74638  -0.70847
 Alpha  occ. eigenvalues --   -0.70486  -0.69987  -0.67404  -0.64439  -0.63222
 Alpha  occ. eigenvalues --   -0.61530  -0.60402  -0.57335  -0.56438  -0.54865
 Alpha  occ. eigenvalues --   -0.53531  -0.50752  -0.49644  -0.48737  -0.47958
 Alpha  occ. eigenvalues --   -0.47706  -0.46152  -0.45612  -0.44194  -0.42039
 Alpha  occ. eigenvalues --   -0.40165  -0.34412
 Alpha virt. eigenvalues --    0.07700   0.11697   0.18340   0.21447   0.23567
 Alpha virt. eigenvalues --    0.24480   0.26436   0.27925   0.28603   0.28958
 Alpha virt. eigenvalues --    0.30082   0.31090   0.31923   0.32312   0.33358
 Alpha virt. eigenvalues --    0.33836   0.34113   0.35744   0.37589   0.38544
 Alpha virt. eigenvalues --    0.40713   0.41857   0.44867   0.45474   0.45765
 Alpha virt. eigenvalues --    0.46175   0.49867   0.53976   0.57750   0.58877
 Alpha virt. eigenvalues --    0.62807   0.69172   0.69481   0.72123   0.74022
 Alpha virt. eigenvalues --    0.75360   0.75934   0.75979   0.77858   0.79270
 Alpha virt. eigenvalues --    0.80443   0.83854   0.85409   0.85884   0.88064
 Alpha virt. eigenvalues --    0.89432   0.90342   0.90895   0.91838   0.94068
 Alpha virt. eigenvalues --    0.95271   0.97247   0.99066   1.00480   1.01935
 Alpha virt. eigenvalues --    1.02689   1.05181   1.06637   1.07051   1.08920
 Alpha virt. eigenvalues --    1.09487   1.10569   1.11530   1.12038   1.13313
 Alpha virt. eigenvalues --    1.13978   1.14321   1.15388   1.16362   1.17318
 Alpha virt. eigenvalues --    1.18075   1.20034   1.21286   1.22224   1.23174
 Alpha virt. eigenvalues --    1.23629   1.25139   1.25835   1.27143   1.28201
 Alpha virt. eigenvalues --    1.29719   1.31335   1.33168   1.36424   1.39869
 Alpha virt. eigenvalues --    1.42917   1.46193   1.47361   1.49476   1.52829
 Alpha virt. eigenvalues --    1.54711   1.55653   1.60521   1.61411   1.66055
 Alpha virt. eigenvalues --    1.68764   1.70529   1.72970   1.73672   1.77415
 Alpha virt. eigenvalues --    1.78281   1.80265   1.84317   1.89173   1.92736
 Alpha virt. eigenvalues --    1.93445   1.96023   1.97364   1.99028   2.01029
 Alpha virt. eigenvalues --    2.03072   2.03622   2.05958   2.09144   2.11743
 Alpha virt. eigenvalues --    2.13238   2.14568   2.17875   2.19293   2.20285
 Alpha virt. eigenvalues --    2.21400   2.22301   2.24327   2.25549   2.26595
 Alpha virt. eigenvalues --    2.29883   2.32180   2.34073   2.35647   2.36379
 Alpha virt. eigenvalues --    2.38865   2.39978   2.41952   2.43548   2.46604
 Alpha virt. eigenvalues --    2.48900   2.50491   2.52460   2.57233   2.57971
 Alpha virt. eigenvalues --    2.60909   2.63290   2.66495   2.68768   2.69150
 Alpha virt. eigenvalues --    2.69835   2.70644   2.74972   2.77516   2.81091
 Alpha virt. eigenvalues --    2.85279   2.87992   2.90622   2.91744   2.95439
 Alpha virt. eigenvalues --    2.97991   2.98768   3.02905   3.03827   3.05968
 Alpha virt. eigenvalues --    3.07268   3.13155   3.19541   3.22553   3.27347
 Alpha virt. eigenvalues --    3.31089   3.34323   3.37282   3.44942   3.62676
 Alpha virt. eigenvalues --    4.09978   4.23055   4.32585   4.36313   4.43274
 Alpha virt. eigenvalues --    4.54234   4.59754   4.60949   4.71043   4.77904
 Alpha virt. eigenvalues --    4.97234   4.99310   5.03100   5.10062
          Condensed to atoms (all electrons):
               1          2          3          4          5          6
     1  O    8.297015   0.310830  -0.090475  -0.077878   0.004074  -0.000016
     2  N    0.310830   5.693472   0.310259   0.266314  -0.051053   0.000961
     3  O   -0.090475   0.310259   8.325087  -0.087109   0.008243   0.000457
     4  C   -0.077878   0.266314  -0.087109   5.207404   0.581556  -0.046852
     5  C    0.004074  -0.051053   0.008243   0.581556   4.683491   0.303725
     6  N   -0.000016   0.000961   0.000457  -0.046852   0.303725   7.198964
     7  C    0.000003  -0.000101   0.000002   0.004697  -0.029998   0.203670
     8  H   -0.000000   0.000002  -0.000000  -0.000211   0.002360  -0.049815
     9  C   -0.000000  -0.000003   0.000000   0.000453   0.001806  -0.056498
    10  C   -0.000000   0.000000  -0.000000  -0.000019  -0.000067   0.003371
    11  C   -0.000000  -0.000000  -0.000000  -0.000015   0.000016  -0.000156
    12  C   -0.000000   0.000002  -0.000000  -0.000109  -0.000150   0.003663
    13  C   -0.000021  -0.000029  -0.000002  -0.010479   0.000423  -0.045935
    14  H   -0.000002  -0.000055   0.000000   0.002365   0.004903  -0.005513
    15  N    0.000165   0.001626  -0.000012  -0.059969  -0.004378   0.001794
    16  C    0.002640  -0.025353   0.001894   0.311819  -0.045380  -0.001833
    17  H    0.000165  -0.005335   0.013082  -0.029515   0.378184  -0.033608
    18  H    0.000000  -0.000039   0.000009   0.000795  -0.024524   0.329798
    19  H    0.000000   0.000000   0.000000  -0.000805   0.000677   0.000697
    20  H    0.000000  -0.000000   0.000000  -0.000028   0.000026  -0.001673
    21  H   -0.000000  -0.000000   0.000000   0.000000   0.000001  -0.000059
    22  H   -0.000000   0.000000  -0.000000  -0.000000  -0.000002  -0.000097
    23  H    0.000000  -0.000000   0.000000   0.000025  -0.000000  -0.000024
    24  H    0.000000   0.000000   0.000000   0.000000  -0.000000   0.000004
    25  H    0.000000  -0.000000   0.000000   0.000020  -0.000001  -0.000073
    26  H    0.000000  -0.000000   0.000000   0.000006  -0.000000  -0.000070
    27  H    0.005360  -0.000417  -0.000004  -0.066090   0.002312   0.000064
               7          8          9         10         11         12
     1  O    0.000003  -0.000000  -0.000000  -0.000000  -0.000000  -0.000000
     2  N   -0.000101   0.000002  -0.000003   0.000000  -0.000000   0.000002
     3  O    0.000002  -0.000000   0.000000  -0.000000  -0.000000  -0.000000
     4  C    0.004697  -0.000211   0.000453  -0.000019  -0.000015  -0.000109
     5  C   -0.029998   0.002360   0.001806  -0.000067   0.000016  -0.000150
     6  N    0.203670  -0.049815  -0.056498   0.003371  -0.000156   0.003663
     7  C    4.993284   0.417092   0.341365  -0.049629  -0.007614  -0.064381
     8  H    0.417092   0.548682  -0.060914   0.001511  -0.000311  -0.002963
     9  C    0.341365  -0.060914   5.182234   0.317286  -0.053135  -0.006039
    10  C   -0.049629   0.001511   0.317286   5.127629   0.332679  -0.060115
    11  C   -0.007614  -0.000311  -0.053135   0.332679   5.123960   0.330853
    12  C   -0.064381  -0.002963  -0.006039  -0.060115   0.330853   5.136137
    13  C    0.333892  -0.040558  -0.050510  -0.001614  -0.047864   0.368256
    14  H   -0.039491  -0.001031   0.003853  -0.000394   0.003933  -0.040633
    15  N   -0.058169   0.004131  -0.013398   0.001523  -0.007659  -0.073857
    16  C   -0.002453   0.000033  -0.001009  -0.000020   0.000001   0.002625
    17  H    0.001504  -0.000018  -0.000066   0.000001   0.000000   0.000001
    18  H   -0.029052  -0.002646   0.000736  -0.000116   0.000011  -0.000140
    19  H   -0.034852   0.004101   0.385870  -0.032720  -0.002282   0.000641
    20  H   -0.041309  -0.001887   0.397346  -0.037399   0.004147  -0.000362
    21  H    0.004043  -0.000083  -0.035796   0.400031  -0.035884   0.004212
    22  H   -0.004181   0.003508  -0.045593   0.395998  -0.045644  -0.001242
    23  H    0.000437   0.000033  -0.001998  -0.040159   0.396698  -0.036745
    24  H   -0.000145  -0.000098   0.004386  -0.038446   0.400380  -0.037821
    25  H    0.005000  -0.000003  -0.000375   0.004100  -0.034054   0.395380
    26  H   -0.004450   0.001630   0.001024  -0.002363  -0.042244   0.394935
    27  H   -0.000410   0.000009  -0.000062   0.000005   0.000005  -0.000022
              13         14         15         16         17         18
     1  O   -0.000021  -0.000002   0.000165   0.002640   0.000165   0.000000
     2  N   -0.000029  -0.000055   0.001626  -0.025353  -0.005335  -0.000039
     3  O   -0.000002   0.000000  -0.000012   0.001894   0.013082   0.000009
     4  C   -0.010479   0.002365  -0.059969   0.311819  -0.029515   0.000795
     5  C    0.000423   0.004903  -0.004378  -0.045380   0.378184  -0.024524
     6  N   -0.045935  -0.005513   0.001794  -0.001833  -0.033608   0.329798
     7  C    0.333892  -0.039491  -0.058169  -0.002453   0.001504  -0.029052
     8  H   -0.040558  -0.001031   0.004131   0.000033  -0.000018  -0.002646
     9  C   -0.050510   0.003853  -0.013398  -0.001009  -0.000066   0.000736
    10  C   -0.001614  -0.000394   0.001523  -0.000020   0.000001  -0.000116
    11  C   -0.047864   0.003933  -0.007659   0.000001   0.000000   0.000011
    12  C    0.368256  -0.040633  -0.073857   0.002625   0.000001  -0.000140
    13  C    5.030622   0.402837   0.236898  -0.070262  -0.000055   0.003823
    14  H    0.402837   0.517716  -0.035563  -0.005104   0.000067   0.000013
    15  N    0.236898  -0.035563   6.929687   0.589238  -0.000066  -0.000125
    16  C   -0.070262  -0.005104   0.589238   4.712078   0.001900  -0.000222
    17  H   -0.000055   0.000067  -0.000066   0.001900   0.388779  -0.001955
    18  H    0.003823   0.000013  -0.000125  -0.000222  -0.001955   0.327320
    19  H   -0.006346   0.000057   0.006866   0.002561   0.000012  -0.000122
    20  H    0.003870  -0.000049   0.000078  -0.000034  -0.000001   0.002827
    21  H   -0.000375   0.000009  -0.000029   0.000002  -0.000000  -0.000000
    22  H    0.000309  -0.000044   0.000004  -0.000001   0.000000   0.000002
    23  H   -0.005837   0.000003   0.006581   0.000057   0.000000   0.000000
    24  H    0.004141  -0.000058   0.000039   0.000005   0.000000  -0.000000
    25  H   -0.034775  -0.002641   0.000732  -0.000066  -0.000000   0.000002
    26  H   -0.044730  -0.000923   0.004178  -0.000059   0.000000  -0.000001
    27  H    0.004920  -0.000179  -0.039786   0.402247  -0.000069   0.000002
              19         20         21         22         23         24
     1  O    0.000000   0.000000  -0.000000  -0.000000   0.000000   0.000000
     2  N    0.000000  -0.000000  -0.000000   0.000000  -0.000000   0.000000
     3  O    0.000000   0.000000   0.000000  -0.000000   0.000000   0.000000
     4  C   -0.000805  -0.000028   0.000000  -0.000000   0.000025   0.000000
     5  C    0.000677   0.000026   0.000001  -0.000002  -0.000000  -0.000000
     6  N    0.000697  -0.001673  -0.000059  -0.000097  -0.000024   0.000004
     7  C   -0.034852  -0.041309   0.004043  -0.004181   0.000437  -0.000145
     8  H    0.004101  -0.001887  -0.000083   0.003508   0.000033  -0.000098
     9  C    0.385870   0.397346  -0.035796  -0.045593  -0.001998   0.004386
    10  C   -0.032720  -0.037399   0.400031   0.395998  -0.040159  -0.038446
    11  C   -0.002282   0.004147  -0.035884  -0.045644   0.396698   0.400380
    12  C    0.000641  -0.000362   0.004212  -0.001242  -0.036745  -0.037821
    13  C   -0.006346   0.003870  -0.000375   0.000309  -0.005837   0.004141
    14  H    0.000057  -0.000049   0.000009  -0.000044   0.000003  -0.000058
    15  N    0.006866   0.000078  -0.000029   0.000004   0.006581   0.000039
    16  C    0.002561  -0.000034   0.000002  -0.000001   0.000057   0.000005
    17  H    0.000012  -0.000001  -0.000000   0.000000   0.000000   0.000000
    18  H   -0.000122   0.002827  -0.000000   0.000002   0.000000  -0.000000
    19  H    0.508802  -0.024066  -0.002610   0.003772   0.001647  -0.000071
    20  H   -0.024066   0.549433  -0.002595  -0.002977  -0.000050  -0.000090
    21  H   -0.002610  -0.002595   0.526711  -0.024726  -0.002824  -0.002055
    22  H    0.003772  -0.002977  -0.024726   0.568692   0.004071  -0.003587
    23  H    0.001647  -0.000050  -0.002824   0.004071   0.510889  -0.025021
    24  H   -0.000071  -0.000090  -0.002055  -0.003587  -0.025021   0.540825
    25  H   -0.000027   0.000011  -0.000086  -0.000082  -0.002099  -0.002380
    26  H    0.000023  -0.000035  -0.000074   0.002461   0.003822  -0.002777
    27  H    0.000076  -0.000000  -0.000000   0.000000  -0.000021  -0.000000
              25         26         27
     1  O    0.000000   0.000000   0.005360
     2  N   -0.000000  -0.000000  -0.000417
     3  O    0.000000   0.000000  -0.000004
     4  C    0.000020   0.000006  -0.066090
     5  C   -0.000001  -0.000000   0.002312
     6  N   -0.000073  -0.000070   0.000064
     7  C    0.005000  -0.004450  -0.000410
     8  H   -0.000003   0.001630   0.000009
     9  C   -0.000375   0.001024  -0.000062
    10  C    0.004100  -0.002363   0.000005
    11  C   -0.034054  -0.042244   0.000005
    12  C    0.395380   0.394935  -0.000022
    13  C   -0.034775  -0.044730   0.004920
    14  H   -0.002641  -0.000923  -0.000179
    15  N    0.000732   0.004178  -0.039786
    16  C   -0.000066  -0.000059   0.402247
    17  H   -0.000000   0.000000  -0.000069
    18  H    0.000002  -0.000001   0.000002
    19  H   -0.000027   0.000023   0.000076
    20  H    0.000011  -0.000035  -0.000000
    21  H   -0.000086  -0.000074  -0.000000
    22  H   -0.000082   0.002461   0.000000
    23  H   -0.002099   0.003822  -0.000021
    24  H   -0.002380  -0.002777  -0.000000
    25  H    0.511877  -0.023104  -0.000010
    26  H   -0.023104   0.560047   0.000001
    27  H   -0.000010   0.000001   0.452019
 Mulliken charges:
               1
     1  O   -0.451860
     2  N    0.498918
     3  O   -0.481430
     4  C    0.003625
     5  C    0.183756
     6  N   -0.804949
     7  C    0.061244
     8  H    0.177442
     9  C   -0.310965
    10  C   -0.321074
    11  C   -0.315821
    12  C   -0.312124
    13  C   -0.030596
    14  H    0.195923
    15  N   -0.490531
    16  C    0.124697
    17  H    0.286993
    18  H    0.393602
    19  H    0.188097
    20  H    0.154818
    21  H    0.172188
    22  H    0.149359
    23  H    0.190515
    24  H    0.162768
    25  H    0.182652
    26  H    0.152702
    27  H    0.240052
 Sum of Mulliken charges =  -0.00000
 Mulliken charges with hydrogens summed into heavy atoms:
               1
     1  O   -0.451860
     2  N    0.498918
     3  O   -0.481430
     4  C    0.003625
     5  C    0.470750
     6  N   -0.411348
     7  C    0.238686
     9  C    0.031950
    10  C    0.000473
    11  C    0.037462
    12  C    0.023230
    13  C    0.165327
    15  N   -0.490531
    16  C    0.364749
 Electronic spatial extent (au):  <R**2>=           3117.9380
 Charge=             -0.0000 electrons
 Dipole moment (field-independent basis, Debye):
    X=              5.1822    Y=              4.2409    Z=              0.4675  Tot=              6.7126
 Quadrupole moment (field-independent basis, Debye-Ang):
   XX=           -104.9214   YY=            -80.6721   ZZ=            -82.1706
   XY=             -1.6166   XZ=              0.9864   YZ=             -0.0883
 Traceless Quadrupole moment (field-independent basis, Debye-Ang):
   XX=            -15.6667   YY=              8.5826   ZZ=              7.0841
   XY=             -1.6166   XZ=              0.9864   YZ=             -0.0883
 Octapole moment (field-independent basis, Debye-Ang**2):
  XXX=             98.4910  YYY=             34.8154  ZZZ=             -5.2738  XYY=             -1.4880
  XXY=             10.6947  XXZ=             -0.5453  XZZ=             -8.7232  YZZ=             -3.1098
  YYZ=              0.5330  XYZ=             -1.3082
 Hexadecapole moment (field-independent basis, Debye-Ang**3):
 XXXX=          -3549.8830 YYYY=           -614.7086 ZZZZ=           -298.6830 XXXY=            -33.7724
 XXXZ=             27.9313 YYYX=            -15.1849 YYYZ=             11.7147 ZZZX=             22.2085
 ZZZY=              9.6134 XXYY=           -655.2351 XXZZ=           -542.8108 YYZZ=           -163.3327
 XXYZ=              2.6659 YYXZ=             10.7795 ZZXY=              3.8588
 N-N= 9.193074360072D+02 E-N=-3.384741725977D+03  KE= 6.590116855865D+02
 Calling FoFJK, ICntrl=  10002127 FMM=F ISym2X=0 I1Cent= 0 IOpClX= 0 NMat=1 NMatS=1 NMatT=0.
 -------------------------------------------------------------------
 Center     Atomic                   Forces (Hartrees/Bohr)
 Number     Number              X              Y              Z
 -------------------------------------------------------------------
      1        8           0.002975706   -0.019465242   -0.002693457
      2        7           0.036407252    0.012860172   -0.002925311
      3        8          -0.002945974    0.015309421    0.003717879
      4        6          -0.017237654   -0.040874508   -0.001562541
      5        6           0.016142245    0.033514472    0.006179229
      6        7           0.017603319   -0.007582043   -0.005780270
      7        6          -0.005999921    0.005883757    0.003325029
      8        1          -0.009958421   -0.001838338   -0.007678777
      9        6          -0.003794035    0.000050226   -0.001908031
     10        6           0.002832309   -0.000868558    0.000888215
     11        6          -0.001214813   -0.004551200   -0.002424618
     12        6           0.000829856   -0.008981818   -0.002574342
     13        6           0.011521200   -0.001926176    0.004734121
     14        1           0.000980701    0.004552502   -0.010104456
     15        7          -0.002997909    0.001199787    0.001929267
     16        6          -0.020882475    0.005427819    0.002267718
     17        1           0.006989369   -0.005293011   -0.005815796
     18        1          -0.017922619   -0.002435065    0.005740944
     19        1           0.003095539    0.005902618    0.007674615
     20        1          -0.003288061   -0.007366725    0.002664105
     21        1          -0.004316636    0.002374504    0.009617555
     22        1          -0.003966699   -0.004004200   -0.007402702
     23        1           0.004006820    0.006132438    0.009243393
     24        1          -0.009393006    0.002567631   -0.002121738
     25        1          -0.000641632    0.010515238   -0.002361545
     26        1          -0.004807472   -0.004832623   -0.004376417
     27        1           0.005983015    0.003728922    0.001747930
 -------------------------------------------------------------------
 Cartesian Forces:  Max     0.040874508 RMS     0.010196640

 GradGradGradGradGradGradGradGradGradGradGradGradGradGradGradGradGradGrad
 Berny optimization.
 FormGI is forming the generalized inverse of G from B-inverse, IUseBI=4.
 Internal  Forces:  Max     0.037451240 RMS     0.006401194
 Search for a local minimum.
 Step number   1 out of a maximum of   20
 All quantities printed in internal units (Hartrees-Bohrs-Radians)
 Mixed Optimization -- RFO/linear search
 Second derivative matrix not updated -- first step.
 ITU=  0
     Eigenvalues ---    0.00232   0.00771   0.01106   0.01181   0.01290
     Eigenvalues ---    0.01498   0.01538   0.01642   0.01997   0.02230
     Eigenvalues ---    0.02489   0.02707   0.03680   0.04502   0.04692
     Eigenvalues ---    0.04839   0.05090   0.05138   0.05308   0.05909
     Eigenvalues ---    0.06248   0.07234   0.07696   0.07727   0.07873
     Eigenvalues ---    0.07990   0.08053   0.08066   0.10454   0.11731
     Eigenvalues ---    0.12253   0.13473   0.15212   0.15692   0.15990
     Eigenvalues ---    0.16000   0.20065   0.21956   0.23179   0.24984
     Eigenvalues ---    0.25000   0.25000   0.25404   0.26250   0.26648
     Eigenvalues ---    0.27971   0.28086   0.28506   0.29151   0.31468
     Eigenvalues ---    0.31516   0.32037   0.32236   0.32290   0.32381
     Eigenvalues ---    0.32389   0.32408   0.32522   0.32526   0.32579
     Eigenvalues ---    0.33082   0.33379   0.33599   0.35531   0.43866
     Eigenvalues ---    0.48601   0.66800   0.90115   0.911171000.00000
     Eigenvalues --- 1000.000001000.000001000.000001000.000001000.00000
     Eigenvalues --- 1000.000001000.000001000.000001000.000001000.00000
     Eigenvalues --- 1000.000001000.000001000.000001000.000001000.00000
     Eigenvalues --- 1000.000001000.000001000.000001000.000001000.00000
     Eigenvalues --- 1000.000001000.000001000.000001000.000001000.00000
     Eigenvalues --- 1000.000001000.000001000.000001000.000001000.00000
     Eigenvalues --- 1000.000001000.000001000.000001000.000001000.00000
     Eigenvalues --- 1000.000001000.000001000.000001000.000001000.00000
     Eigenvalues --- 1000.000001000.000001000.000001000.000001000.00000
     Eigenvalues --- 1000.000001000.000001000.000001000.000001000.00000
     Eigenvalues --- 1000.000001000.000001000.000001000.000001000.00000
     Eigenvalues --- 1000.000001000.000001000.000001000.000001000.00000
     Eigenvalues --- 1000.000001000.000001000.000001000.000001000.00000
     Eigenvalues --- 1000.000001000.000001000.000001000.000001000.00000
     Eigenvalues --- 1000.000001000.000001000.000001000.000001000.00000
     Eigenvalues --- 1000.000001000.000001000.000001000.000001000.00000
     Eigenvalues --- 1000.000001000.000001000.000001000.000001000.00000
     Eigenvalues --- 1000.000001000.000001000.000001000.000001000.00000
     Eigenvalues --- 1000.00000
 RFO step:  Lambda=-2.14354579D-02 EMin= 2.31641717D-03
 Linear search not attempted -- first point.
 Iteration  1 RMS(Cart)=  0.05480177 RMS(Int)=  0.00099188
 Iteration  2 RMS(Cart)=  0.00110449 RMS(Int)=  0.00021864
 Iteration  3 RMS(Cart)=  0.00000070 RMS(Int)=  0.00021864
 Iteration  1 RMS(Cart)=  0.00003368 RMS(Int)=  0.00002442
 Iteration  2 RMS(Cart)=  0.00001459 RMS(Int)=  0.00002677
 Iteration  3 RMS(Cart)=  0.00000924 RMS(Int)=  0.00002986
 Iteration  4 RMS(Cart)=  0.00000683 RMS(Int)=  0.00003235
 Iteration  5 RMS(Cart)=  0.00000549 RMS(Int)=  0.00003435
 Iteration  6 RMS(Cart)=  0.00000458 RMS(Int)=  0.00003600
 Iteration  7 RMS(Cart)=  0.00000386 RMS(Int)=  0.00003741
 Iteration  8 RMS(Cart)=  0.00000327 RMS(Int)=  0.00003861
 Iteration  9 RMS(Cart)=  0.00000277 RMS(Int)=  0.00003965
 Iteration 10 RMS(Cart)=  0.00000234 RMS(Int)=  0.00004054
 Iteration 11 RMS(Cart)=  0.00000198 RMS(Int)=  0.00004131
 Iteration 12 RMS(Cart)=  0.00000167 RMS(Int)=  0.00004197
 Iteration 13 RMS(Cart)=  0.00000141 RMS(Int)=  0.00004253
 Iteration 14 RMS(Cart)=  0.00000119 RMS(Int)=  0.00004301
 Iteration 15 RMS(Cart)=  0.00000101 RMS(Int)=  0.00004342
 Iteration 16 RMS(Cart)=  0.00000085 RMS(Int)=  0.00004377
 Variable       Old X    -DE/DX   Delta X   Delta X   Delta X     New X
                                 (Linear)    (Quad)   (Total)
    R1        2.32423   0.01795   0.00000   0.01925   0.01925   2.34347
    R2        2.32880   0.01396   0.00000   0.01513   0.01513   2.34394
    R3        2.89690  -0.03745   0.00000  -0.11967  -0.11967   2.77722
    R4        2.53837   0.01785   0.00000   0.00000  -0.00000   2.53837
    R5        2.81695  -0.02359   0.00000  -0.06465  -0.06442   2.75253
    R6        2.59456  -0.02332   0.00000  -0.04380  -0.04376   2.55079
    R7        2.08391  -0.00972   0.00000  -0.02736  -0.02736   2.05655
    R8        2.82405  -0.01826   0.00000  -0.05306  -0.05319   2.77086
    R9        1.93316  -0.00719   0.00000  -0.01562  -0.01562   1.91754
   R10        2.11827  -0.01185   0.00000  -0.03526  -0.03526   2.08302
   R11        2.92732  -0.01281   0.00000  -0.04471  -0.04475   2.88258
   R12        2.89940  -0.00080   0.00000  -0.00406  -0.00406   2.89534
   R13        2.91130  -0.00469   0.00000  -0.01404  -0.01403   2.89726
   R14        2.09899  -0.00995   0.00000  -0.02871  -0.02871   2.07028
   R15        2.09892  -0.00806   0.00000  -0.02325  -0.02325   2.07567
   R16        2.90441  -0.00214   0.00000  -0.00719  -0.00723   2.89718
   R17        2.10137  -0.01055   0.00000  -0.03056  -0.03056   2.07082
   R18        2.10316  -0.00901   0.00000  -0.02618  -0.02618   2.07698
   R19        2.91803  -0.00937   0.00000  -0.02929  -0.02925   2.88878
   R20        2.10415  -0.01165   0.00000  -0.03388  -0.03388   2.07027
   R21        2.10104  -0.00994   0.00000  -0.02877  -0.02877   2.07228
   R22        2.93534  -0.01033   0.00000  -0.03653  -0.03654   2.89880
   R23        2.10153  -0.01065   0.00000  -0.03085  -0.03085   2.07068
   R24        2.09797  -0.00789   0.00000  -0.02271  -0.02271   2.07526
   R25        2.10777  -0.00943   0.00000  -0.02759  -0.02759   2.08018
   R26        2.76558  -0.00144   0.00000  -0.00527  -0.00554   2.76004
   R27        2.44373  -0.00682   0.00000  -0.00949  -0.00949   2.43424
   R28        2.08012  -0.00628   0.00000  -0.01757  -0.01757   2.06256
    A1        2.15445   0.01260   0.00000   0.04669   0.04631   2.20076
    A2        2.05187  -0.00721   0.00000  -0.02630  -0.02667   2.02520
    A3        2.07665  -0.00535   0.00000  -0.01943  -0.01980   2.05685
    A4        2.03476  -0.00432   0.00000  -0.01915  -0.01951   2.01526
    A5        2.02565  -0.00258   0.00000  -0.01264  -0.01301   2.01264
    A6        2.22212   0.00687   0.00000   0.03069   0.03095   2.25307
    A7        2.21194   0.00222   0.00000   0.01463   0.01490   2.22683
    A8        2.06514  -0.00088   0.00000  -0.00577  -0.00596   2.05918
    A9        2.00516  -0.00132   0.00000  -0.00818  -0.00838   1.99678
   A10        2.25302  -0.00590   0.00000  -0.02227  -0.02233   2.23069
   A11        2.11585  -0.01249   0.00000  -0.07290  -0.07319   2.04266
   A12        1.87416   0.01853   0.00000   0.10186   0.10204   1.97620
   A13        1.83953  -0.00244   0.00000  -0.01928  -0.01919   1.82034
   A14        2.01031  -0.00232   0.00000  -0.01348  -0.01343   1.99688
   A15        1.95835   0.00405   0.00000   0.00754   0.00712   1.96547
   A16        1.85244   0.00329   0.00000   0.02302   0.02288   1.87532
   A17        1.85060   0.00042   0.00000   0.01808   0.01795   1.86856
   A18        1.93905  -0.00276   0.00000  -0.01208  -0.01176   1.92730
   A19        1.90954   0.00065   0.00000  -0.00383  -0.00397   1.90558
   A20        1.92366  -0.00083   0.00000  -0.01321  -0.01318   1.91048
   A21        1.92241  -0.00187   0.00000  -0.00802  -0.00802   1.91439
   A22        1.91931  -0.00035   0.00000   0.00603   0.00602   1.92533
   A23        1.90465   0.00273   0.00000   0.02462   0.02462   1.92927
   A24        1.88407  -0.00030   0.00000  -0.00516  -0.00543   1.87863
   A25        1.94010  -0.00025   0.00000   0.00677   0.00667   1.94677
   A26        1.91905  -0.00069   0.00000  -0.00652  -0.00655   1.91250
   A27        1.90508  -0.00002   0.00000  -0.00346  -0.00352   1.90155
   A28        1.91622   0.00055   0.00000   0.00703   0.00707   1.92329
   A29        1.89849   0.00154   0.00000   0.01084   0.01086   1.90935
   A30        1.88387  -0.00113   0.00000  -0.01521  -0.01529   1.86858
   A31        1.94498   0.00059   0.00000   0.00499   0.00512   1.95010
   A32        1.90220   0.00083   0.00000   0.00630   0.00624   1.90844
   A33        1.91757   0.00021   0.00000   0.00531   0.00530   1.92287
   A34        1.90628  -0.00121   0.00000  -0.01382  -0.01387   1.89241
   A35        1.91538  -0.00036   0.00000  -0.00023  -0.00033   1.91505
   A36        1.87605  -0.00009   0.00000  -0.00292  -0.00296   1.87309
   A37        1.94903  -0.00304   0.00000  -0.01967  -0.01971   1.92932
   A38        1.90575   0.00249   0.00000   0.01724   0.01708   1.92284
   A39        1.91034   0.00144   0.00000   0.01372   0.01369   1.92403
   A40        1.90592   0.00011   0.00000  -0.00197  -0.00178   1.90414
   A41        1.91086  -0.00002   0.00000  -0.00466  -0.00460   1.90626
   A42        1.88065  -0.00091   0.00000  -0.00412  -0.00431   1.87634
   A43        1.84695   0.00445   0.00000   0.02521   0.02527   1.87222
   A44        1.94192  -0.00485   0.00000  -0.03434  -0.03475   1.90716
   A45        1.97595   0.00323   0.00000   0.01744   0.01775   1.99371
   A46        1.88072   0.00232   0.00000   0.02960   0.02995   1.91067
   A47        1.89274  -0.00577   0.00000  -0.03021  -0.03043   1.86231
   A48        1.92111   0.00067   0.00000  -0.00562  -0.00541   1.91570
   A49        2.07495  -0.00018   0.00000  -0.00388  -0.00422   2.07073
   A50        2.25441  -0.00739   0.00000  -0.02779  -0.02797   2.22644
   A51        1.97808   0.00677   0.00000   0.03094   0.03033   2.00841
   A52        2.05068   0.00063   0.00000  -0.00294  -0.00354   2.04714
    D1       -3.03352  -0.00022   0.00000  -0.02945  -0.02887  -3.06239
    D2        0.14414   0.00074   0.00000   0.00000  -0.00000   0.14414
    D3        0.12954  -0.00199   0.00000  -0.07809  -0.07779   0.05175
    D4       -2.97600  -0.00102   0.00000  -0.04863  -0.04892  -3.02492
    D5        3.07141   0.00024   0.00000   0.01304   0.01317   3.08458
    D6       -0.02075  -0.00035   0.00000  -0.00453  -0.00452  -0.02527
    D7       -0.11092  -0.00112   0.00000  -0.02144  -0.02174  -0.13266
    D8        3.08011  -0.00171   0.00000  -0.03901  -0.03943   3.04068
    D9       -2.69788  -0.00213   0.00000  -0.04589  -0.04631  -2.74419
   D10        0.43929   0.00024   0.00000   0.01261   0.01244   0.45173
   D11        0.48427  -0.00074   0.00000  -0.01143  -0.01131   0.47296
   D12       -2.66175   0.00163   0.00000   0.04707   0.04744  -2.61431
   D13       -0.12600   0.00031   0.00000   0.02501   0.02524  -0.10077
   D14        2.67527   0.00405   0.00000   0.07006   0.06920   2.74447
   D15        2.96762   0.00089   0.00000   0.04209   0.04242   3.01005
   D16       -0.51429   0.00463   0.00000   0.08714   0.08638  -0.42791
   D17       -2.48731  -0.00094   0.00000  -0.02010  -0.01977  -2.50708
   D18        1.76050  -0.00210   0.00000  -0.02832  -0.02811   1.73239
   D19       -0.48107   0.00016   0.00000  -0.00605  -0.00615  -0.48722
   D20        0.95801  -0.00005   0.00000  -0.03613  -0.03650   0.92150
   D21       -1.07737  -0.00122   0.00000  -0.04435  -0.04484  -1.12221
   D22        2.96425   0.00104   0.00000  -0.02208  -0.02288   2.94137
   D23        2.95175   0.00087   0.00000   0.02240   0.02222   2.97397
   D24       -1.21892   0.00032   0.00000   0.01906   0.01890  -1.20002
   D25        0.85814  -0.00174   0.00000  -0.00056  -0.00063   0.85751
   D26        0.92372   0.00298   0.00000   0.03836   0.03834   0.96206
   D27        3.03623   0.00243   0.00000   0.03502   0.03502   3.07125
   D28       -1.16990   0.00037   0.00000   0.01540   0.01549  -1.15441
   D29       -1.08030   0.00202   0.00000   0.01013   0.01015  -1.07015
   D30        1.03221   0.00147   0.00000   0.00679   0.00683   1.03904
   D31        3.10927  -0.00059   0.00000  -0.01283  -0.01270   3.09657
   D32       -2.90306  -0.00114   0.00000  -0.01098  -0.01070  -2.91375
   D33       -0.86501   0.00171   0.00000   0.02119   0.02104  -0.84397
   D34        1.30938   0.00125   0.00000   0.00000  -0.00001   1.30937
   D35       -0.90357  -0.00176   0.00000  -0.01967  -0.01948  -0.92305
   D36        1.13448   0.00108   0.00000   0.01250   0.01225   1.14673
   D37       -2.97432   0.00062   0.00000  -0.00869  -0.00880  -2.98311
   D38        1.10159   0.00099   0.00000   0.01163   0.01177   1.11336
   D39        3.13964   0.00383   0.00000   0.04380   0.04350  -3.10004
   D40       -0.96915   0.00338   0.00000   0.02261   0.02245  -0.94670
   D41        0.95666   0.00075   0.00000   0.00000   0.00000   0.95666
   D42        3.08226   0.00080   0.00000   0.00896   0.00891   3.09117
   D43       -1.13749  -0.00100   0.00000  -0.01545  -0.01542  -1.15291
   D44       -1.15849   0.00159   0.00000   0.01497   0.01504  -1.14345
   D45        0.96711   0.00164   0.00000   0.02393   0.02395   0.99106
   D46        3.03055  -0.00016   0.00000  -0.00047  -0.00038   3.03017
   D47        3.06113   0.00053   0.00000   0.00296   0.00292   3.06405
   D48       -1.09645   0.00059   0.00000   0.01192   0.01183  -1.08462
   D49        0.96698  -0.00121   0.00000  -0.01248  -0.01250   0.95449
   D50       -0.92193  -0.00057   0.00000   0.00000   0.00000  -0.92193
   D51        1.18309  -0.00115   0.00000  -0.00992  -0.00994   1.17315
   D52       -3.04873  -0.00065   0.00000  -0.00669  -0.00673  -3.05546
   D53       -3.04918   0.00010   0.00000  -0.00105  -0.00104  -3.05022
   D54       -0.94417  -0.00049   0.00000  -0.01097  -0.01098  -0.95515
   D55        1.10720   0.00001   0.00000  -0.00775  -0.00778   1.09943
   D56        1.17613   0.00025   0.00000   0.00691   0.00695   1.18308
   D57       -3.00204  -0.00034   0.00000  -0.00300  -0.00299  -3.00503
   D58       -0.95067   0.00016   0.00000   0.00022   0.00022  -0.95046
   D59        0.98602  -0.00040   0.00000  -0.01123  -0.01130   0.97471
   D60        3.09554  -0.00055   0.00000  -0.01479  -0.01496   3.08058
   D61       -1.13281   0.00064   0.00000  -0.00179  -0.00177  -1.13458
   D62       -1.11660  -0.00101   0.00000  -0.01314  -0.01314  -1.12974
   D63        0.99292  -0.00116   0.00000  -0.01669  -0.01680   0.97612
   D64        3.04775   0.00003   0.00000  -0.00369  -0.00361   3.04414
   D65        3.11408   0.00001   0.00000  -0.00135  -0.00136   3.11272
   D66       -1.05958  -0.00014   0.00000  -0.00490  -0.00502  -1.06460
   D67        0.99526   0.00105   0.00000   0.00810   0.00817   1.00343
   D68       -1.04917  -0.00084   0.00000  -0.00226  -0.00218  -1.05135
   D69       -3.12810   0.00130   0.00000   0.00961   0.00924  -3.11887
   D70        1.07598   0.00239   0.00000   0.01640   0.01629   1.09227
   D71        3.12459  -0.00209   0.00000  -0.00990  -0.00974   3.11485
   D72        1.04566   0.00006   0.00000   0.00198   0.00168   1.04734
   D73       -1.03344   0.00115   0.00000   0.00877   0.00874  -1.02470
   D74        1.06936  -0.00104   0.00000  -0.00107  -0.00087   1.06849
   D75       -1.00958   0.00110   0.00000   0.01081   0.01055  -0.99903
   D76       -3.08868   0.00219   0.00000   0.01760   0.01761  -3.07107
   D77       -1.17217   0.00250   0.00000   0.00000  -0.00001  -1.17218
   D78        3.06696  -0.00117   0.00000  -0.02191  -0.02165   3.04531
   D79        1.01347  -0.00097   0.00000  -0.03670  -0.03692   0.97655
   D80        0.13867   0.00033   0.00000   0.01872   0.01826   0.15694
   D81       -2.99834  -0.00214   0.00000  -0.04190  -0.04169  -3.04003
         Item               Value     Threshold  Converged?
 Maximum Force            0.037451     0.000450     NO 
 RMS     Force            0.006325     0.000300     NO 
 Maximum Displacement     0.289211     0.001800     NO 
 RMS     Displacement     0.054878     0.001200     NO 
 Predicted change in Energy=-1.199824D-02
 GradGradGradGradGradGradGradGradGradGradGradGradGradGradGradGradGradGrad

                          Input orientation:                          
 ---------------------------------------------------------------------
 Center     Atomic      Atomic             Coordinates (Angstroms)
 Number     Number       Type             X           Y           Z
 ---------------------------------------------------------------------
      1          8           0       -3.470660   -1.429964   -0.222708
      2          7           0       -3.127902   -0.251816   -0.042806
      3          8           0       -3.887826    0.707886    0.157126
      4          6           0       -1.680868    0.004823   -0.033848
      5          6           0       -1.319710    1.265722    0.255998
      6          7           0       -0.068311    1.753540    0.390359
      7          6           0        1.194205    1.008209    0.367984
      8          1           0        1.827180    1.522600    1.109454
      9          6           0        1.928208    1.051376   -0.968504
     10          6           0        3.327097    0.448487   -0.794645
     11          6           0        3.261714   -0.963702   -0.201426
     12          6           0        2.439406   -0.999001    1.086759
     13          6           0        1.032118   -0.439561    0.842499
     14          1           0        0.463763   -0.451475    1.785131
     15          7           0        0.392941   -1.321339   -0.130703
     16          6           0       -0.845805   -1.123283   -0.423282
     17          1           0       -2.108017    1.994378    0.434827
     18          1           0        0.054105    2.752156    0.258327
     19          1           0        1.360350    0.485590   -1.715260
     20          1           0        1.997060    2.089916   -1.319463
     21          1           0        3.841386    0.428995   -1.762100
     22          1           0        3.915092    1.096816   -0.129865
     23          1           0        2.797962   -1.640997   -0.926966
     24          1           0        4.273362   -1.338618   -0.005111
     25          1           0        2.357354   -2.027919    1.454559
     26          1           0        2.933069   -0.406969    1.868933
     27          1           0       -1.328254   -1.851852   -1.077279
 ---------------------------------------------------------------------
                    Distance matrix (angstroms):
                    1          2          3          4          5
     1  O    0.000000
     2  N    1.240113   0.000000
     3  O    2.211042   1.240357   0.000000
     4  C    2.301660   1.469643   2.324098   0.000000
     5  C    3.481734   2.379446   2.629862   1.343246   0.000000
     6  N    4.699631   3.683773   3.966924   2.416258   1.349822
     7  C    5.296657   4.520732   5.095262   3.071531   2.529550
     8  H    6.209622   5.387865   5.850810   3.989635   3.270671
     9  C    5.988409   5.302780   5.933909   3.872246   3.477689
    10  C    7.075677   6.536261   7.282052   5.084818   4.833688
    11  C    6.748534   6.431106   7.351101   5.039369   5.115566
    12  C    6.068716   5.729670   6.619029   4.386352   4.466552
    13  C    4.731868   4.257320   5.098256   2.885438   2.963624
    14  H    4.524218   4.035006   4.788617   2.848919   2.909947
    15  N    3.866223   3.680752   4.746111   2.463488   3.126595
    16  C    2.650311   2.472283   3.597770   1.456576   2.528508
    17  H    3.743697   2.512705   2.213572   2.088167   1.088277
    18  H    5.490491   4.386308   4.441632   3.262412   2.024070
    19  H    5.407007   4.846161   5.576612   3.508176   3.417190
    20  H    6.594573   5.777438   6.222716   4.419002   3.763288
    21  H    7.700096   7.210441   7.968810   5.801903   5.604440
    22  H    7.806573   7.171482   7.817875   5.702319   5.251721
    23  H    6.311587   6.150400   7.168840   4.854514   5.177223
    24  H    7.747617   7.480726   8.415432   6.103976   6.175210
    25  H    6.093974   5.956901   6.940478   4.759689   5.079903
    26  H    6.813900   6.357216   7.120239   5.007851   4.846193
    27  H    2.344821   2.620874   3.824581   2.158779   3.390717
                    6          7          8          9         10
     6  N    0.000000
     7  C    1.466276   0.000000
     8  H    2.040421   1.102285   0.000000
     9  C    2.515080   1.525393   2.133113   0.000000
    10  C    3.825728   2.492835   2.651238   1.533165   0.000000
    11  C    4.338511   2.913289   3.155629   2.535190   1.533122
    12  C    3.788152   2.469019   2.594958   2.947792   2.534344
    13  C    2.495008   1.532147   2.133884   2.511096   2.955639
    14  H    2.662815   2.161603   2.492471   3.462032   3.957759
    15  N    3.152640   2.513465   3.418043   2.947666   3.490326
    16  C    3.089113   3.054669   4.061382   3.566729   4.474537
    17  H    2.054357   3.446979   4.020382   4.376037   5.782892
    18  H    1.014717   2.086433   2.319487   2.812477   4.138613
    19  H    2.842956   2.154215   3.045050   1.095546   2.171866
    20  H    2.702294   2.159200   2.500069   1.098398   2.176861
    21  H    4.655451   3.446783   3.674074   2.162731   1.095830
    22  H    4.070555   2.767477   2.465072   2.157102   1.099091
    23  H    4.633977   3.356669   3.885585   2.829677   2.159499
    24  H    5.344900   3.889474   3.925892   3.484243   2.170836
    25  H    4.616904   3.428066   3.606434   3.941758   3.483089
    26  H    3.982746   2.698004   2.350114   3.344782   2.825192
    27  H    4.091487   4.078178   5.111310   4.364070   5.200359
                   11         12         13         14         15
    11  C    0.000000
    12  C    1.528678   0.000000
    13  C    2.517062   1.533980   0.000000
    14  H    3.469483   2.165796   1.100784   0.000000
    15  N    2.891844   2.402942   1.460548   2.105255   0.000000
    16  C    4.116600   3.617772   2.365643   2.653938   1.288146
    17  H    6.163527   5.483100   3.993833   3.797311   4.191490
    18  H    4.930287   4.521851   3.388926   3.572422   4.106034
    19  H    2.829722   3.349579   2.739666   3.732921   2.590694
    20  H    3.489118   3.940429   3.464599   4.295133   3.952595
    21  H    2.170560   3.481482   3.928144   4.976587   4.197249
    22  H    2.162813   2.837300   3.408444   4.239821   4.272356
    23  H    1.095537   2.143784   2.773564   3.770798   2.553496
    24  H    1.096601   2.161230   3.468777   4.301748   3.882491
    25  H    2.166266   1.095756   2.157255   2.485989   2.621303
    26  H    2.168951   1.098182   2.160613   2.471128   3.359593
    27  H    4.756441   4.427829   3.354320   3.655923   2.034690
                   16         17         18         19         20
    16  C    0.000000
    17  H    3.471216   0.000000
    18  H    4.036515   2.297857   0.000000
    19  H    3.020728   4.350734   3.276988   0.000000
    20  H    4.382883   4.465233   2.589026   1.770852   0.000000
    21  H    5.115834   6.532404   4.880851   2.482123   2.521136
    22  H    5.261281   6.115745   4.218776   3.068189   2.465815
    23  H    3.714668   6.256121   5.313517   2.685238   3.836041
    24  H    5.140730   7.212794   5.882684   3.839008   4.320176
    25  H    3.821633   6.095758   5.439214   4.166473   4.978110
    26  H    4.477415   5.765039   4.567555   4.014542   4.156492
    27  H    1.091459   4.205708   4.989153   3.619288   5.162741
                   21         22         23         24         25
    21  H    0.000000
    22  H    1.765109   0.000000
    23  H    2.463950   3.062511   0.000000
    24  H    2.529441   2.464805   1.765802   0.000000
    25  H    4.311110   3.834177   2.452653   2.505366   0.000000
    26  H    3.835138   2.687179   3.059106   2.485236   1.769359
    27  H    5.691785   6.089738   4.134333   5.726347   4.474920
                   26         27
    26  H    0.000000
    27  H    5.378357   0.000000
 Symmetry turned off by external request.
 Stoichiometry    C9H13N3O2
 Framework group  C1[X(C9H13N3O2)]
 Deg. of freedom    75
 Full point group                 C1      NOp   1
 Rotational constants (GHZ):           1.6879380           0.4218655           0.3724460
 Standard basis: 6-31G(d) (6D, 7F)
   236 basis functions,   444 primitive gaussians,   236 cartesian basis functions
    52 alpha electrons       52 beta electrons
       nuclear repulsion energy       932.3321361902 Hartrees.
 NAtoms=   27 NActive=   27 NUniq=   27 SFac= 1.00D+00 NAtFMM=   60 NAOKFM=F Big=F
 Integral buffers will be    131072 words long.
 Raffenetti 1 integral format.
 Two-electron integral symmetry is turned off.
 One-electron integrals computed using PRISM.
 NBasis=   236 RedAO= T EigKep=  9.77D-04  NBF=   236
 NBsUse=   236 1.00D-06 EigRej= -1.00D+00 NBFU=   236
 Initial guess from the checkpoint file:  "/home/alexey/tmp/Gau-1297659.chk"
 B after Tr=     0.054127    0.000692    0.000119
         Rot=    0.999999   -0.001013    0.000717    0.000305 Ang=  -0.15 deg.
 ExpMin= 1.61D-01 ExpMax= 5.48D+03 ExpMxC= 8.25D+02 IAcc=3 IRadAn=         5 AccDes= 0.00D+00
 Harris functional with IExCor=  205 and IRadAn=       5 diagonalized for initial guess.
 HarFok:  IExCor=  205 AccDes= 0.00D+00 IRadAn=         5 IDoV= 1 UseB2=F ITyADJ=14
 ICtDFT=  3500011 ScaDFX=  1.000000  1.000000  1.000000  1.000000
 FoFCou: FMM=F IPFlag=           0 FMFlag=      100000 FMFlg1=           0
         NFxFlg=           0 DoJE=T BraDBF=F KetDBF=T FulRan=T
         wScrn=  0.000000 ICntrl=       500 IOpCl=  0 I1Cent=   200000004 NGrid=           0
         NMat0=    1 NMatS0=      1 NMatT0=    0 NMatD0=    1 NMtDS0=    0 NMtDT0=    0
 Symmetry not used in FoFCou.
 Keep R1 ints in memory in canonical form, NReq=397720213.
 Requested convergence on RMS density matrix=1.00D-08 within 128 cycles.
 Requested convergence on MAX density matrix=1.00D-06.
 Requested convergence on             energy=1.00D-06.
 No special actions if energy rises.
 SCF Done:  E(RHF) =  -661.297838741     A.U. after   15 cycles
            NFock= 15  Conv=0.53D-08     -V/T= 2.0024
 ExpMin= 1.61D-01 ExpMax= 5.48D+03 ExpMxC= 8.25D+02 IAcc=3 IRadAn=         5 AccDes= 0.00D+00
 HarFok:  IExCor=  205 AccDes= 0.00D+00 IRadAn=         5 IDoV=-2 UseB2=F ITyADJ=14
 ICtDFT= 12500011 ScaDFX=  1.000000  1.000000  1.000000  1.000000
 Range of M.O.s used for correlation:    15   236
 NBasis=   236 NAE=    52 NBE=    52 NFC=    14 NFV=     0
 NROrb=    222 NOA=    38 NOB=    38 NVA=   184 NVB=   184
 Fully direct method using O(ONN) memory.
 JobTyp=1 Pass  1:  I=  15 to  52 NPSUse=  4 ParTrn=T ParDer=T DoDerP=T.
 Spin components of T(2) and E(2):
     alpha-alpha T2 =       0.9116956896D-01 E2=     -0.2722499318D+00
     alpha-beta  T2 =       0.4911178197D+00 E2=     -0.1487997423D+01
     beta-beta   T2 =       0.9116956896D-01 E2=     -0.2722499318D+00
 ANorm=    0.1293621644D+01
 E2 =    -0.2032497286D+01 EUMP2 =    -0.66333033602740D+03
          IDoAtm=111111111111111111111111111
          Differentiating once with respect to electric field.
                with respect to dipole field.
          Differentiating once with respect to nuclear coordinates.
 Keep R1 ints in memory in canonical form, NReq=397723379.
          There are     1 degrees of freedom in the 1st order CPHF.  IDoFFX=0 NUNeed=     1.
 LinEq1:  Iter=  0 NonCon=     1 RMS=4.55D-03 Max=1.12D-01 NDo=     1
 AX will form     1 AO Fock derivatives at one time.
 LinEq1:  Iter=  1 NonCon=     1 RMS=1.53D-03 Max=2.68D-02 NDo=     1
 LinEq1:  Iter=  2 NonCon=     1 RMS=6.38D-04 Max=1.88D-02 NDo=     1
 LinEq1:  Iter=  3 NonCon=     1 RMS=2.76D-04 Max=7.36D-03 NDo=     1
 LinEq1:  Iter=  4 NonCon=     1 RMS=8.58D-05 Max=1.77D-03 NDo=     1
[...]
    27  H    4.724447   4.419667   3.355717   3.656229   2.029262
                   16         17         18         19         20
    16  C    0.000000
    17  H    3.448207   0.000000
    18  H    4.073698   2.230587   0.000000
    19  H    2.987514   4.309243   3.516764   0.000000
    20  H    4.368504   4.457159   2.890936   1.768239   0.000000
    21  H    5.094319   6.515290   5.093563   2.499035   2.521664
    22  H    5.244324   6.100965   4.319216   3.070113   2.461284
    23  H    3.697021   6.232563   5.422949   2.705167   3.843322
    24  H    5.134164   7.196932   5.939054   3.850234   4.317263
    25  H    3.822685   6.077837   5.367235   4.172844   4.985437
    26  H    4.493331   5.773485   4.485600   4.038044   4.183516
    27  H    1.089555   4.196253   5.061981   3.575330   5.137366
                   21         22         23         24         25
    21  H    0.000000
    22  H    1.758815   0.000000
    23  H    2.469250   3.062132   0.000000
    24  H    2.517101   2.459820   1.764465   0.000000
    25  H    4.312064   3.839887   2.443958   2.519787   0.000000
    26  H    3.847224   2.705145   3.060437   2.491146   1.767920
    27  H    5.648872   6.055367   4.093026   5.696829   4.458922
                   26         27
    26  H    0.000000
    27  H    5.378679   0.000000
 Symmetry turned off by external request.
 Stoichiometry    C9H13N3O2
 Framework group  C1[X(C9H13N3O2)]
 Deg. of freedom    75
 Full point group                 C1      NOp   1
 Rotational constants (GHZ):           1.6882814           0.4197702           0.3727376

 **********************************************************************

            Population analysis using the SCF Density.

 **********************************************************************

 Alpha  occ. eigenvalues --  -20.59461 -20.59123 -15.84863 -15.63688 -15.56279
 Alpha  occ. eigenvalues --  -11.34424 -11.29613 -11.29489 -11.28513 -11.27109
 Alpha  occ. eigenvalues --  -11.23629 -11.23156 -11.22680 -11.22073  -1.57310
 Alpha  occ. eigenvalues --   -1.36916  -1.30752  -1.23102  -1.14953  -1.09954
 Alpha  occ. eigenvalues --   -1.02722  -1.01252  -0.94632  -0.89738  -0.85526
 Alpha  occ. eigenvalues --   -0.82474  -0.78631  -0.77408  -0.75266  -0.71896
 Alpha  occ. eigenvalues --   -0.69945  -0.69578  -0.67800  -0.64918  -0.63743
 Alpha  occ. eigenvalues --   -0.62242  -0.60337  -0.57620  -0.56974  -0.55042
 Alpha  occ. eigenvalues --   -0.54545  -0.50780  -0.50162  -0.48818  -0.48104
 Alpha  occ. eigenvalues --   -0.47485  -0.46138  -0.46027  -0.43806  -0.41647
 Alpha  occ. eigenvalues --   -0.39917  -0.34142
 Alpha virt. eigenvalues --    0.07550   0.11846   0.17442   0.21884   0.24166
 Alpha virt. eigenvalues --    0.25812   0.27189   0.28735   0.29083   0.29742
 Alpha virt. eigenvalues --    0.30753   0.31820   0.32084   0.32796   0.33998
 Alpha virt. eigenvalues --    0.34413   0.35847   0.37329   0.38630   0.40299
 Alpha virt. eigenvalues --    0.41429   0.42500   0.45300   0.46301   0.46772
 Alpha virt. eigenvalues --    0.47162   0.48924   0.54442   0.57656   0.59312
 Alpha virt. eigenvalues --    0.63714   0.69583   0.69995   0.72853   0.74243
 Alpha virt. eigenvalues --    0.75099   0.75835   0.76700   0.78798   0.79438
 Alpha virt. eigenvalues --    0.81373   0.84894   0.85770   0.86041   0.88681
 Alpha virt. eigenvalues --    0.89568   0.91086   0.92176   0.92888   0.94606
 Alpha virt. eigenvalues --    0.95585   0.98067   0.99772   1.01732   1.02480
 Alpha virt. eigenvalues --    1.03147   1.05925   1.07018   1.07866   1.09252
 Alpha virt. eigenvalues --    1.10222   1.11420   1.11898   1.12579   1.13995
 Alpha virt. eigenvalues --    1.14877   1.15046   1.15818   1.16899   1.18765
 Alpha virt. eigenvalues --    1.19184   1.21376   1.22560   1.23885   1.24630
 Alpha virt. eigenvalues --    1.24889   1.26335   1.26868   1.27696   1.29780
 Alpha virt. eigenvalues --    1.30145   1.33124   1.36126   1.37471   1.41005
 Alpha virt. eigenvalues --    1.42006   1.46754   1.48853   1.51484   1.54345
 Alpha virt. eigenvalues --    1.56410   1.58862   1.59730   1.63648   1.65459
 Alpha virt. eigenvalues --    1.67901   1.68674   1.73298   1.75315   1.77409
 Alpha virt. eigenvalues --    1.81823   1.84665   1.87925   1.90743   1.93655
 Alpha virt. eigenvalues --    1.95825   1.97093   1.99709   2.01336   2.02674
 Alpha virt. eigenvalues --    2.05105   2.05621   2.08348   2.09862   2.12252
 Alpha virt. eigenvalues --    2.13403   2.15450   2.18993   2.20239   2.22499
 Alpha virt. eigenvalues --    2.22946   2.24432   2.25438   2.28273   2.29613
 Alpha virt. eigenvalues --    2.32447   2.33948   2.34928   2.36623   2.38428
 Alpha virt. eigenvalues --    2.40816   2.41943   2.43827   2.45655   2.47565
 Alpha virt. eigenvalues --    2.51175   2.52272   2.53244   2.55791   2.61853
 Alpha virt. eigenvalues --    2.62462   2.65368   2.67944   2.70540   2.70615
 Alpha virt. eigenvalues --    2.72425   2.72914   2.77395   2.78593   2.83756
 Alpha virt. eigenvalues --    2.88941   2.89388   2.93033   2.93558   2.96124
 Alpha virt. eigenvalues --    2.99707   3.01513   3.04587   3.05996   3.07921
 Alpha virt. eigenvalues --    3.09522   3.15283   3.21420   3.25071   3.27574
 Alpha virt. eigenvalues --    3.33504   3.37690   3.39025   3.53079   3.67369
 Alpha virt. eigenvalues --    4.13664   4.27873   4.34921   4.39068   4.46309
 Alpha virt. eigenvalues --    4.57182   4.62107   4.62636   4.73564   4.79886
 Alpha virt. eigenvalues --    4.99698   5.01012   5.05244   5.11207
          Condensed to atoms (all electrons):
               1          2          3          4          5          6
     1  O    8.314100   0.306157  -0.082724  -0.084667   0.004945  -0.000017
     2  N    0.306157   5.726909   0.302187   0.264295  -0.056067   0.001025
     3  O   -0.082724   0.302187   8.349741  -0.092989   0.003815   0.000772
     4  C   -0.084667   0.264295  -0.092989   5.205868   0.568660  -0.046580
     5  C    0.004945  -0.056067   0.003815   0.568660   4.717005   0.314866
     6  N   -0.000017   0.001025   0.000772  -0.046580   0.314866   7.201150
     7  C    0.000004  -0.000146   0.000002   0.004688  -0.030652   0.172318
     8  H   -0.000000   0.000002  -0.000000  -0.000272   0.003125  -0.050582
     9  C   -0.000000  -0.000004  -0.000000   0.000852   0.000713  -0.061674
    10  C    0.000000   0.000000   0.000000  -0.000038  -0.000055   0.003760
    11  C   -0.000000  -0.000000  -0.000000  -0.000030   0.000026  -0.000190
    12  C   -0.000000   0.000002  -0.000000  -0.000121  -0.000188   0.003893
    13  C   -0.000026  -0.000043  -0.000004  -0.011508  -0.000583  -0.048341
    14  H   -0.000003  -0.000105   0.000001   0.002339   0.006184  -0.006907
    15  N    0.000361   0.002391  -0.000016  -0.062893  -0.006944   0.001572
    16  C    0.000417  -0.027083   0.002542   0.325970  -0.052726  -0.002185
    17  H    0.000238  -0.007914   0.017745  -0.023834   0.374618  -0.034168
    18  H    0.000001  -0.000052   0.000012   0.001443  -0.031357   0.339486
    19  H    0.000001  -0.000004   0.000000  -0.001242   0.001230  -0.000303
    20  H    0.000000  -0.000000   0.000000  -0.000082   0.000153  -0.000380
    21  H   -0.000000   0.000000   0.000000   0.000001   0.000001  -0.000077
    22  H   -0.000000   0.000000  -0.000000  -0.000000  -0.000003  -0.000116
    23  H    0.000000  -0.000000   0.000000   0.000040   0.000000  -0.000031
    24  H    0.000000   0.000000   0.000000   0.000000  -0.000000   0.000006
    25  H    0.000000  -0.000000   0.000000   0.000025   0.000000  -0.000092
    26  H    0.000000  -0.000000   0.000000   0.000006  -0.000001  -0.000060
    27  H    0.005918  -0.000949   0.000011  -0.063083   0.002281   0.000026
               7          8          9         10         11         12
     1  O    0.000004  -0.000000  -0.000000   0.000000  -0.000000  -0.000000
     2  N   -0.000146   0.000002  -0.000004   0.000000  -0.000000   0.000002
     3  O    0.000002  -0.000000  -0.000000   0.000000  -0.000000  -0.000000
     4  C    0.004688  -0.000272   0.000852  -0.000038  -0.000030  -0.000121
     5  C   -0.030652   0.003125   0.000713  -0.000055   0.000026  -0.000188
     6  N    0.172318  -0.050582  -0.061674   0.003760  -0.000190   0.003893
     7  C    5.009783   0.418593   0.350940  -0.054839  -0.008955  -0.060957
     8  H    0.418593   0.539291  -0.055369   0.000781  -0.000322  -0.002249
     9  C    0.350940  -0.055369   5.158519   0.324435  -0.050389  -0.005208
    10  C   -0.054839   0.000781   0.324435   5.119868   0.336960  -0.060944
    11  C   -0.008955  -0.000322  -0.050389   0.336960   5.119956   0.336040
    12  C   -0.060957  -0.002249  -0.005208  -0.060944   0.336040   5.117800
    13  C    0.340267  -0.038161  -0.060472  -0.000178  -0.050752   0.371745
    14  H   -0.046112  -0.000791   0.004424  -0.000406   0.004191  -0.036304
    15  N   -0.057837   0.003952  -0.014953   0.001606  -0.013007  -0.081701
    16  C   -0.001678   0.000014  -0.001332  -0.000025   0.000030   0.002644
    17  H    0.001677  -0.000045  -0.000070   0.000001   0.000000   0.000000
    18  H   -0.021419  -0.004485   0.001343  -0.000084   0.000004  -0.000115
    19  H   -0.036740   0.004377   0.390155  -0.032211  -0.002221   0.000700
    20  H   -0.042221  -0.002098   0.399464  -0.035317   0.003934  -0.000415
    21  H    0.004593  -0.000077  -0.036293   0.402374  -0.034940   0.004348
    22  H   -0.004814   0.003567  -0.046905   0.397730  -0.045446  -0.001024
    23  H    0.000581   0.000035  -0.001952  -0.039063   0.399187  -0.037893
    24  H   -0.000132  -0.000102   0.004378  -0.038399   0.402360  -0.038704
    25  H    0.005132  -0.000023  -0.000429   0.004190  -0.033488   0.398257
    26  H   -0.003894   0.001696   0.000958  -0.002211  -0.041421   0.396892
    27  H   -0.000413   0.000009  -0.000058   0.000007   0.000012  -0.000037
              13         14         15         16         17         18
     1  O   -0.000026  -0.000003   0.000361   0.000417   0.000238   0.000001
     2  N   -0.000043  -0.000105   0.002391  -0.027083  -0.007914  -0.000052
     3  O   -0.000004   0.000001  -0.000016   0.002542   0.017745   0.000012
     4  C   -0.011508   0.002339  -0.062893   0.325970  -0.023834   0.001443
     5  C   -0.000583   0.006184  -0.006944  -0.052726   0.374618  -0.031357
     6  N   -0.048341  -0.006907   0.001572  -0.002185  -0.034168   0.339486
     7  C    0.340267  -0.046112  -0.057837  -0.001678   0.001677  -0.021419
     8  H   -0.038161  -0.000791   0.003952   0.000014  -0.000045  -0.004485
     9  C   -0.060472   0.004424  -0.014953  -0.001332  -0.000070   0.001343
    10  C   -0.000178  -0.000406   0.001606  -0.000025   0.000001  -0.000084
    11  C   -0.050752   0.004191  -0.013007   0.000030   0.000000   0.000004
    12  C    0.371745  -0.036304  -0.081701   0.002644   0.000000  -0.000115
    13  C    5.043165   0.403165   0.243306  -0.071256  -0.000015   0.003012
    14  H    0.403165   0.526015  -0.037237  -0.004588   0.000098  -0.000100
    15  N    0.243306  -0.037237   6.960949   0.586332  -0.000086  -0.000133
    16  C   -0.071256  -0.004588   0.586332   4.714943   0.002138  -0.000197
    17  H   -0.000015   0.000098  -0.000086   0.002138   0.378357  -0.002876
    18  H    0.003012  -0.000100  -0.000133  -0.000197  -0.002876   0.311688
    19  H   -0.007600   0.000101   0.007643   0.003004   0.000016  -0.000148
    20  H    0.004352  -0.000066   0.000125  -0.000038   0.000002   0.000784
    21  H   -0.000432   0.000010  -0.000041   0.000004  -0.000000   0.000001
    22  H    0.000035  -0.000055   0.000020  -0.000002   0.000000   0.000001
    23  H   -0.007503  -0.000000   0.008467   0.000103   0.000000   0.000000
    24  H    0.004706  -0.000057   0.000133   0.000007   0.000000  -0.000000
    25  H   -0.035639  -0.002804   0.000366  -0.000023  -0.000000   0.000002
    26  H   -0.047385  -0.001059   0.004886  -0.000063   0.000000  -0.000000
    27  H    0.005066  -0.000178  -0.040269   0.403533  -0.000085   0.000001
              19         20         21         22         23         24
     1  O    0.000001   0.000000  -0.000000  -0.000000   0.000000   0.000000
     2  N   -0.000004  -0.000000   0.000000   0.000000  -0.000000   0.000000
     3  O    0.000000   0.000000   0.000000  -0.000000   0.000000   0.000000
     4  C   -0.001242  -0.000082   0.000001  -0.000000   0.000040   0.000000
     5  C    0.001230   0.000153   0.000001  -0.000003   0.000000  -0.000000
     6  N   -0.000303  -0.000380  -0.000077  -0.000116  -0.000031   0.000006
     7  C   -0.036740  -0.042221   0.004593  -0.004814   0.000581  -0.000132
     8  H    0.004377  -0.002098  -0.000077   0.003567   0.000035  -0.000102
     9  C    0.390155   0.399464  -0.036293  -0.046905  -0.001952   0.004378
    10  C   -0.032211  -0.035317   0.402374   0.397730  -0.039063  -0.038399
    11  C   -0.002221   0.003934  -0.034940  -0.045446   0.399187   0.402360
    12  C    0.000700  -0.000415   0.004348  -0.001024  -0.037893  -0.038704
    13  C   -0.007600   0.004352  -0.000432   0.000035  -0.007503   0.004706
    14  H    0.000101  -0.000066   0.000010  -0.000055  -0.000000  -0.000057
    15  N    0.007643   0.000125  -0.000041   0.000020   0.008467   0.000133
    16  C    0.003004  -0.000038   0.000004  -0.000002   0.000103   0.000007
    17  H    0.000016   0.000002  -0.000000   0.000000   0.000000   0.000000
    18  H   -0.000148   0.000784   0.000001   0.000001   0.000000  -0.000000
    19  H    0.506217  -0.024749  -0.002795   0.003971   0.001516  -0.000067
    20  H   -0.024749   0.540879  -0.002683  -0.002999  -0.000046  -0.000083
    21  H   -0.002795  -0.002683   0.524420  -0.027436  -0.002908  -0.002240
    22  H    0.003971  -0.002999  -0.027436   0.571386   0.004146  -0.003657
    23  H    0.001516  -0.000046  -0.002908   0.004146   0.499706  -0.025495
    24  H   -0.000067  -0.000083  -0.002240  -0.003657  -0.025495   0.538185
    25  H   -0.000028   0.000013  -0.000087  -0.000080  -0.002326  -0.002283
    26  H    0.000020  -0.000030  -0.000081   0.002377   0.004067  -0.003046
    27  H    0.000082   0.000000  -0.000000   0.000000  -0.000035  -0.000000
              25         26         27
     1  O    0.000000   0.000000   0.005918
     2  N   -0.000000  -0.000000  -0.000949
     3  O    0.000000   0.000000   0.000011
     4  C    0.000025   0.000006  -0.063083
     5  C    0.000000  -0.000001   0.002281
     6  N   -0.000092  -0.000060   0.000026
     7  C    0.005132  -0.003894  -0.000413
     8  H   -0.000023   0.001696   0.000009
     9  C   -0.000429   0.000958  -0.000058
    10  C    0.004190  -0.002211   0.000007
    11  C   -0.033488  -0.041421   0.000012
    12  C    0.398257   0.396892  -0.000037
    13  C   -0.035639  -0.047385   0.005066
    14  H   -0.002804  -0.001059  -0.000178
    15  N    0.000366   0.004886  -0.040269
    16  C   -0.000023  -0.000063   0.403533
    17  H   -0.000000   0.000000  -0.000085
    18  H    0.000002  -0.000000   0.000001
    19  H   -0.000028   0.000020   0.000082
    20  H    0.000013  -0.000030   0.000000
    21  H   -0.000087  -0.000081  -0.000000
    22  H   -0.000080   0.002377   0.000000
    23  H   -0.002326   0.004067  -0.000035
    24  H   -0.002283  -0.003046  -0.000000
    25  H    0.506913  -0.024117  -0.000012
    26  H   -0.024117   0.561816   0.000001
    27  H   -0.000012   0.000001   0.439594
 Mulliken charges:
               1
     1  O   -0.464703
     2  N    0.489399
     3  O   -0.501096
     4  C    0.013152
     5  C    0.180956
     6  N   -0.787171
     7  C    0.062230
     8  H    0.179134
     9  C   -0.301070
    10  C   -0.327942
    11  C   -0.321539
    12  C   -0.306463
    13  C   -0.038920
    14  H    0.190245
    15  N   -0.506994
    16  C    0.119516
    17  H    0.294200
    18  H    0.403187
    19  H    0.189077
    20  H    0.161502
    21  H    0.174340
    22  H    0.149307
    23  H    0.199403
    24  H    0.164490
    25  H    0.186533
    26  H    0.150650
    27  H    0.248579
 Sum of Mulliken charges =  -0.00000
 Mulliken charges with hydrogens summed into heavy atoms:
               1
     1  O   -0.464703
     2  N    0.489399
     3  O   -0.501096
     4  C    0.013152
     5  C    0.475155
     6  N   -0.383984
     7  C    0.241364
     9  C    0.049508
    10  C   -0.004295
    11  C    0.042354
    12  C    0.030720
    13  C    0.151325
    15  N   -0.506994
    16  C    0.368094
 Electronic spatial extent (au):  <R**2>=           3000.6123
 Charge=             -0.0000 electrons
 Dipole moment (field-independent basis, Debye):
    X=              5.2878    Y=              4.6558    Z=              1.2497  Tot=              7.1554
 Quadrupole moment (field-independent basis, Debye-Ang):
   XX=           -105.7201   YY=            -79.4676   ZZ=            -81.4249
   XY=             -1.7088   XZ=              0.0158   YZ=              1.8432
 Traceless Quadrupole moment (field-independent basis, Debye-Ang):
   XX=            -16.8492   YY=              9.4032   ZZ=              7.4460
   XY=             -1.7088   XZ=              0.0158   YZ=              1.8432
 Octapole moment (field-independent basis, Debye-Ang**2):
  XXX=             90.2254  YYY=             35.3896  ZZZ=             -1.5184  XYY=             -4.6280
  XXY=              9.2319  XXZ=              4.3662  XZZ=            -10.0962  YZZ=             -0.5583
  YYZ=              7.8780  XYZ=              0.1459
 Hexadecapole moment (field-independent basis, Debye-Ang**3):
 XXXX=          -3372.9792 YYYY=           -599.8447 ZZZZ=           -303.1588 XXXY=            -19.0932
 XXXZ=             -9.3278 YYYX=             -7.7545 YYYZ=             25.3330 ZZZX=              3.6740
 ZZZY=              7.7197 XXYY=           -626.7450 XXZZ=           -522.7883 YYZZ=           -156.7430
 XXYZ=             -3.7619 YYXZ=              2.4582 ZZXY=              5.1955
 N-N= 9.321676158139D+02 E-N=-3.411110583826D+03  KE= 6.597032099251D+02
 Unable to Open any file for archive entry.
 1\1\GINC-LOTUS\FOpt\RMP2-FC\6-31G(d)\C9H13N3O2\ALEXEY\01-Jul-2023\0\\#
 MP2/6-31G* SCF=Tight Opt=(ModRedun, MaxCycle=20 ) NoSymm\\MolName:\\0,
 1\O,-3.4985736244,-1.3896568127,-0.3549861599\N,-3.118453094,-0.228252
 0294,-0.1101157916\O,-3.8967671481,0.7288431961,0.065112309\C,-1.68178
 85363,-0.0098480156,-0.0127675365\C,-1.304609146,1.2478387748,0.270553
 7012\N,-0.0606218215,1.7460451694,0.3790006251\C,1.2043571507,1.023973
 5673,0.3545147725\H,1.8500521499,1.5543513978,1.0708445937\C,1.9125630
 433,1.0336104683,-0.9987229591\C,3.310187364,0.4266195567,-0.829436148
 6\C,3.2599137257,-0.9690299624,-0.2018575695\C,2.4606712062,-0.9789840
 377,1.1031134687\C,1.0526950679,-0.4232697202,0.862783407\H,0.47317174
 2,-0.4012595476,1.7991790968\N,0.4076892149,-1.3138262842,-0.097608352
 6\C,-0.8380963993,-1.1287448389,-0.3943358728\H,-2.0976641234,1.975850
 0039,0.4212076244\H,-0.0072099382,2.7297121902,0.6141059226\H,1.321045
 5115,0.4564780786,-1.7173679153\H,1.980071467,2.0614769241,-1.37629257
 1\H,3.8177603148,0.3875223107,-1.8000461514\H,3.9079361055,1.093187298
 6,-0.1915267811\H,2.7846669168,-1.6662438378,-0.8989590493\H,4.2784206
 639,-1.3325896276,-0.0210566433\H,2.3733952763,-2.0008639846,1.4867939
 544\H,2.9687915478,-0.3815615027,1.8726764331\H,-1.300584637,-1.877378
 7349,-1.0368164065\\Version=ES64L-G16RevC.02\HF=-661.3000876\MP2=-663.
 3339012\RMSD=5.428e-09\RMSF=4.612e-03\Dipole=1.9329711,1.6537241,0.461
 5881\PG=C01 [X(C9H13N3O2)]\\@
 The archive entry for this job was punched.


 FLOATING POINT NUMBERS ARE LIKE SANDPILES:
 EVERY TIME THAT YOU MOVE ONE, YOU LOSE A LITTLE SAND 
 AND YOU PICK UP A LITTLE DIRT.
 Job cpu time:       0 days  1 hours 35 minutes 51.0 seconds.
 Elapsed time:       0 days  0 hours 28 minutes 20.8 seconds.
 File lengths (MBytes):  RWF=     36 Int=      0 D2E=      0 Chk=      7 Scr=      1
 Normal termination of Gaussian 16 at Sat Jul  1 09:29:42 2023.
