 Entering Gaussian System, Link 0=g16
 Initial command:
 /home/alexey/programs//g16/l1.exe "/home/alexey/tmp/Gau-1288733.inp" -scrdir="/home/alexey/tmp/"
 Entering Link 1 = /home/alexey/programs//g16/l1.exe PID=   1288735.
  
 Copyright (c) 1988-2021, Gaussian, Inc.  All Rights Reserved.
  
 This is part of the Gaussian(R) 16 program.  It is based on
 the Gaussian(R) 09 system (copyright 2009, Gaussian, Inc.),
 the Gaussian(R) 03 system (copyright 2003, Gaussian, Inc.),
 the Gaussian(R) 98 system (copyright 1998, Gaussian, Inc.),
 the Gaussian(R) 94 system (copyright 1995, Gaussian, Inc.),
 the Gaussian 92(TM) system (copyright 1992, Gaussian, Inc.),
 the Gaussian 90(TM) system (copyright 1990, Gaussian, Inc.),
 the Gaussian 88(TM) system (copyright 1988, Gaussian, Inc.),
 the Gaussian 86(TM) system (copyright 1986, Carnegie Mellon
 University), and the Gaussian 82(TM) system (copyright 1983,
 Carnegie Mellon University). Gaussian is a federally registered
 trademark of Gaussian, Inc.
  
 This software contains proprietary and confidential information,
 including trade secrets, belonging to Gaussian, Inc.
  
 This software is provided under written license and may be
 used, copied, transmitted, or stored only in accord with that
 written license.
  
 The following legend is applicable only to US Government
 contracts under FAR:
  
                    RESTRICTED RIGHTS LEGEND
  
 Use, reproduction and disclosure by the US Government is
 subject to restrictions as set forth in subparagraphs (a)
 and (c) of the Commercial Computer Software - Restricted
 Rights clause in FAR 52.227-19.
  
 Gaussian, Inc.
 340 Quinnipiac St., Bldg. 40, Wallingford CT 06492
  
  
 ---------------------------------------------------------------
 Warning -- This program may not be used in any manner that
 competes with the business of Gaussian, Inc. or will provide
 assistance to any competitor of Gaussian, Inc.  The licensee
 of this program is prohibited from giving any competitor of
 Gaussian, Inc. access to this program.  By using this program,
 the user acknowledges that Gaussian, Inc. is engaged in the
 business of creating and licensing software in the field of
 computational chemistry and represents and warrants to the
 licensee that it is not a competitor of Gaussian, Inc. and that
 it will not use this program in any manner prohibited above.
 ---------------------------------------------------------------
  

 Cite this work as:
 Gaussian 16, Revision C.02,
 M. J. Frisch, G. W. Trucks, H. B. Schlegel, G. E. Scuseria, 
 M. A. Robb, J. R. Cheeseman, G. Scalmani, V. Barone, 
 G. A. Petersson, H. Nakatsuji, X. Li, M. Caricato, A. V. Marenich, 
 J. Bloino, B. G. Janesko, R. Gomperts, B. Mennucci, H. P. Hratchian, 
 J. V. Ortiz, A. F. Izmaylov, J. L. Sonnenberg, D. Williams-Young, 
 F. Ding, F. Lipparini, F. Egidi, J. Goings, B. Peng, A. Petrone, 
 T. Henderson, D. Ranasinghe, V. G. Zakrzewski, J. Gao, N. Rega, 
 G. Zheng, W. Liang, M. Hada, M. Ehara, K. Toyota, R. Fukuda, 
 J. Hasegawa, M. Ishida, T. Nakajima, Y. Honda, O. Kitao, H. Nakai, 
 T. Vreven, K. Throssell, J. A. Montgomery, Jr., J. E. Peralta, 
 F. Ogliaro, M. J. Bearpark, J. J. Heyd, E. N. Brothers, K. N. Kudin, 
 V. N. Staroverov, T. A. Keith, R. Kobayashi, J. Normand, 
 K. Raghavachari, A. P. Rendell, J. C. Burant, S. S. Iyengar, 
 J. Tomasi, M. Cossi, J. M. Millam, M. Klene, C. Adamo, R. Cammi, 
 J. W. Ochterski, R. L. Martin, K. Morokuma, O. Farkas, 
 J. B. Foresman, and D. J. Fox, Gaussian, Inc., Wallingford CT, 2019.
 
 ******************************************
 Gaussian 16:  ES64L-G16RevC.02  7-Dec-2021
                 1-Jul-2023 
 ******************************************
 %mem=8GB
 %NPROCS=4
 Will use up to    4 processors via shared memory.
 %NoSave
 ---------------------------------------------------------
 #MP2/6-31G* SCF=Tight Opt=(ModRedun, MaxCycle=20 ) NoSymm
 ---------------------------------------------------------
 1/6=20,18=120,19=15,38=1/1,3;
 2/9=110,12=2,15=1,17=6,18=5,40=1/2;
 3/5=1,6=6,7=1,11=9,25=1,30=1,71=1/1,2,3;
 4//1;
 5/5=2,32=2,38=5/2;
 8/6=4,10=2/1;
 9/15=2,16=-3/6;
 10/5=1,31=1/2;
 6/7=2,8=2,9=2,10=2/1;
 7/12=2,30=1/1,2,3,16;
 1/6=20,18=20,19=15/3(2);
 2/9=110,15=1/2;
 99//99;
 2/9=110,15=1/2;
 3/5=1,6=6,7=1,11=9,25=1,30=1,71=1/1,2,3;
 4/5=5,16=3,69=1/1;
 5/5=2,32=2,38=5/2;
 8/6=4,10=2/1;
 9/15=2,16=-3/6;
 10/5=1,31=1/2;
 7/12=2,30=1/1,2,3,16;
 1/6=20,18=20,19=15/3(-8);
 2/9=110,15=1/2;
 6/7=2,8=2,9=2,10=2/1;
 99/9=10/99;
 --------
 MolName:
 --------
 Symbolic Z-matrix:
 Charge =  0 Multiplicity = 1
 8                    0    -3.613    -1.43814  -0.17878 
 7                    0    -3.25535  -0.27253  -0.01748 
 8                    0    -4.03929   0.66486   0.13895 
 6                    0    -1.75298   0.01792  -0.03882 
 6                    0    -1.37248   1.29816   0.27084 
 7                    0    -0.0858    1.76008   0.38633 
 6                    0     1.19695   0.99368   0.35822 
 1                    0     1.85777   1.49315   1.11349 
 6                    0     1.96419   1.04655  -0.98648 
 6                    0     3.37608   0.46081  -0.7942 
 6                    0     3.31327  -0.95567  -0.2011 
 6                    0     2.46182  -0.99092   1.0865 
 6                    0     1.02542  -0.45436   0.83824 
 1                    0     0.47495  -0.49498   1.80742 
 7                    0     0.37178  -1.31965  -0.14545 
 6                    0    -0.8689   -1.10979  -0.44252 
 1                    0    -2.15935   2.03725   0.49565 
 1                    0     0.14154   2.74338   0.21952 
 1                    0     1.4171    0.47058  -1.76287 
 1                    0     2.05065   2.09701  -1.33678 
 1                    0     3.91316   0.43789  -1.76763 
 1                    0     3.95115   1.11434  -0.10077 
 1                    0     2.86799  -1.64443  -0.95417 
 1                    0     4.34082  -1.31942   0.01804 
 1                    0     2.40236  -2.03777   1.45703 
 1                    0     2.95447  -0.38109   1.87259 
 1                    0    -1.37331  -1.85389  -1.07777 
 
 The following ModRedundant input section has been read:
 B       4       5 F                                                           
 D       1       2       4      16 F                                           
 D       7      13      15      16 F                                           
 D       7       9      10      11 F                                           
 D       9      10      11      12 F                                           
 D       6       7      13      15 F                                           
 

 GradGradGradGradGradGradGradGradGradGradGradGradGradGradGradGradGradGrad
 Berny optimization.
 Initialization pass.
                           ----------------------------
                           !    Initial Parameters    !
                           ! (Angstroms and Degrees)  !
 --------------------------                            --------------------------
 ! Name  Definition              Value          Derivative Info.                !
 --------------------------------------------------------------------------------
 ! R1    R(1,2)                  1.2299         estimate D2E/DX2                !
 ! R2    R(2,3)                  1.232          estimate D2E/DX2                !
 ! R3    R(2,4)                  1.5303         estimate D2E/DX2                !
 ! R4    R(4,5)                  1.371          Frozen                          !
 ! R5    R(4,16)                 1.4887         estimate D2E/DX2                !
 ! R6    R(5,6)                  1.372          estimate D2E/DX2                !
 ! R7    R(5,17)                 1.1027         estimate D2E/DX2                !
 ! R8    R(6,7)                  1.4945         estimate D2E/DX2                !
 ! R9    R(6,18)                 1.0229         estimate D2E/DX2                !
 ! R10   R(7,8)                  1.121          estimate D2E/DX2                !
 ! R11   R(7,9)                  1.5491         estimate D2E/DX2                !
 ! R12   R(7,13)                 1.5351         estimate D2E/DX2                !
 ! R13   R(9,10)                 1.5406         estimate D2E/DX2                !
 ! R14   R(9,19)                 1.1108         estimate D2E/DX2                !
 ! R15   R(9,20)                 1.1107         estimate D2E/DX2                !
 ! R16   R(10,11)                1.5369         estimate D2E/DX2                !
 ! R17   R(10,21)                1.112          estimate D2E/DX2                !
 ! R18   R(10,22)                1.1129         estimate D2E/DX2                !
 ! R19   R(11,12)                1.5441         estimate D2E/DX2                !
 ! R20   R(11,23)                1.1135         estimate D2E/DX2                !
 ! R21   R(11,24)                1.1118         estimate D2E/DX2                !
 ! R22   R(12,13)                1.5533         estimate D2E/DX2                !
 ! R23   R(12,25)                1.1121         estimate D2E/DX2                !
 ! R24   R(12,26)                1.1102         estimate D2E/DX2                !
 ! R25   R(13,14)                1.1153         estimate D2E/DX2                !
 ! R26   R(13,15)                1.4641         estimate D2E/DX2                !
 ! R27   R(15,16)                1.2929         estimate D2E/DX2                !
 ! R28   R(16,27)                1.1008         estimate D2E/DX2                !
 ! A1    A(1,2,3)              123.5553         estimate D2E/DX2                !
 ! A2    A(1,2,4)              117.6157         estimate D2E/DX2                !
 ! A3    A(3,2,4)              118.8202         estimate D2E/DX2                !
 ! A4    A(2,4,5)              116.5218         estimate D2E/DX2                !
 ! A5    A(2,4,16)             116.2961         estimate D2E/DX2                !
 ! A6    A(5,4,16)             127.1412         estimate D2E/DX2                !
 ! A7    A(4,5,6)              126.4193         estimate D2E/DX2                !
 ! A8    A(4,5,17)             118.2864         estimate D2E/DX2                !
 ! A9    A(6,5,17)             115.2394         estimate D2E/DX2                !
 ! A10   A(5,6,7)              129.1028         estimate D2E/DX2                !
 ! A11   A(5,6,18)             121.2214         estimate D2E/DX2                !
 ! A12   A(7,6,18)             107.4047         estimate D2E/DX2                !
 ! A13   A(6,7,8)              105.3556         estimate D2E/DX2                !
 ! A14   A(6,7,9)              115.0828         estimate D2E/DX2                !
 ! A15   A(6,7,13)             112.453          estimate D2E/DX2                !
 ! A16   A(8,7,9)              106.1221         estimate D2E/DX2                !
 ! A17   A(8,7,13)             105.9905         estimate D2E/DX2                !
 ! A18   A(9,7,13)             111.0367         estimate D2E/DX2                !
 ! A19   A(7,9,10)             109.4258         estimate D2E/DX2                !
 ! A20   A(7,9,19)             110.1879         estimate D2E/DX2                !
 ! A21   A(7,9,20)             110.1579         estimate D2E/DX2                !
 ! A22   A(10,9,19)            109.9663         estimate D2E/DX2                !
 ! A23   A(10,9,20)            109.1233         estimate D2E/DX2                !
 ! A24   A(19,9,20)            107.957          estimate D2E/DX2                !
 ! A25   A(9,10,11)            111.1687         estimate D2E/DX2                !
 ! A26   A(9,10,21)            109.9507         estimate D2E/DX2                !
 ! A27   A(9,10,22)            109.15           estimate D2E/DX2                !
 ! A28   A(11,10,21)           109.7888         estimate D2E/DX2                !
 ! A29   A(11,10,22)           108.7759         estimate D2E/DX2                !
 ! A30   A(21,10,22)           107.9361         estimate D2E/DX2                !
 ! A31   A(10,11,12)           111.431          estimate D2E/DX2                !
 ! A32   A(10,11,23)           108.9927         estimate D2E/DX2                !
 ! A33   A(10,11,24)           109.8654         estimate D2E/DX2                !
 ! A34   A(12,11,23)           109.2296         estimate D2E/DX2                !
 ! A35   A(12,11,24)           109.7429         estimate D2E/DX2                !
 ! A36   A(23,11,24)           107.4888         estimate D2E/DX2                !
 ! A37   A(11,12,13)           111.6395         estimate D2E/DX2                !
 ! A38   A(11,12,25)           109.1972         estimate D2E/DX2                !
 ! A39   A(11,12,26)           109.4642         estimate D2E/DX2                !
 ! A40   A(13,12,25)           109.2067         estimate D2E/DX2                !
 ! A41   A(13,12,26)           109.498          estimate D2E/DX2                !
 ! A42   A(25,12,26)           107.7515         estimate D2E/DX2                !
 ! A43   A(7,13,12)            105.8119         estimate D2E/DX2                !
 ! A44   A(7,13,14)            111.1746         estimate D2E/DX2                !
 ! A45   A(7,13,15)            113.4074         estimate D2E/DX2                !
 ! A46   A(12,13,14)           107.7543         estimate D2E/DX2                !
 ! A47   A(12,13,15)           108.4256         estimate D2E/DX2                !
 ! A48   A(14,13,15)           109.9964         estimate D2E/DX2                !
 ! A49   A(13,15,16)           119.1343         estimate D2E/DX2                !
 ! A50   A(4,16,15)            129.0882         estimate D2E/DX2                !
 ! A51   A(4,16,27)            113.3553         estimate D2E/DX2                !
 ! A52   A(15,16,27)           117.5557         estimate D2E/DX2                !
 ! D1    D(1,2,4,5)           -173.9005         estimate D2E/DX2                !
 ! D2    D(1,2,4,16)             8.2585         Frozen                          !
 ! D3    D(3,2,4,5)              7.1453         estimate D2E/DX2                !
 ! D4    D(3,2,4,16)          -170.6956         estimate D2E/DX2                !
 ! D5    D(2,4,5,6)            176.0824         estimate D2E/DX2                !
 ! D6    D(2,4,5,17)            -1.0863         estimate D2E/DX2                !
 ! D7    D(16,4,5,6)            -6.3459         estimate D2E/DX2                !
 ! D8    D(16,4,5,17)          176.4853         estimate D2E/DX2                !
 ! D9    D(2,4,16,15)         -154.6288         estimate D2E/DX2                !
 ! D10   D(2,4,16,27)           25.0335         estimate D2E/DX2                !
 ! D11   D(5,4,16,15)           27.7948         estimate D2E/DX2                !
 ! D12   D(5,4,16,27)         -152.5429         estimate D2E/DX2                !
 ! D13   D(4,5,6,7)             -7.3357         estimate D2E/DX2                !
 ! D14   D(4,5,6,18)           153.2905         estimate D2E/DX2                !
 ! D15   D(17,5,6,7)           169.9081         estimate D2E/DX2                !
 ! D16   D(17,5,6,18)          -29.4657         estimate D2E/DX2                !
 ! D17   D(5,6,7,8)           -142.3623         estimate D2E/DX2                !
 ! D18   D(5,6,7,9)            101.1192         estimate D2E/DX2                !
 ! D19   D(5,6,7,13)           -27.3638         estimate D2E/DX2                !
 ! D20   D(18,6,7,8)            54.9331         estimate D2E/DX2                !
 ! D21   D(18,6,7,9)           -61.5855         estimate D2E/DX2                !
 ! D22   D(18,6,7,13)          169.9315         estimate D2E/DX2                !
 ! D23   D(6,7,9,10)           168.9186         estimate D2E/DX2                !
 ! D24   D(6,7,9,19)           -70.054          estimate D2E/DX2                !
 ! D25   D(6,7,9,20)            48.9514         estimate D2E/DX2                !
 ! D26   D(8,7,9,10)            52.8372         estimate D2E/DX2                !
 ! D27   D(8,7,9,19)           173.8646         estimate D2E/DX2                !
 ! D28   D(8,7,9,20)           -67.13           estimate D2E/DX2                !
 ! D29   D(13,7,9,10)          -61.8966         estimate D2E/DX2                !
 ! D30   D(13,7,9,19)           59.1309         estimate D2E/DX2                !
 ! D31   D(13,7,9,20)          178.1363         estimate D2E/DX2                !
 ! D32   D(6,7,13,12)         -166.2565         estimate D2E/DX2                !
 ! D33   D(6,7,13,14)          -49.54           estimate D2E/DX2                !
 ! D34   D(6,7,13,15)           75.0218         Frozen                          !
 ! D35   D(8,7,13,12)          -51.6435         estimate D2E/DX2                !
 ! D36   D(8,7,13,14)           65.073          estimate D2E/DX2                !
 ! D37   D(8,7,13,15)         -170.3652         estimate D2E/DX2                !
 ! D38   D(9,7,13,12)           63.1723         estimate D2E/DX2                !
 ! D39   D(9,7,13,14)          179.8888         estimate D2E/DX2                !
 ! D40   D(9,7,13,15)          -55.5494         estimate D2E/DX2                !
 ! D41   D(7,9,10,11)           54.8121         Frozen                          !
 ! D42   D(7,9,10,21)          176.6017         estimate D2E/DX2                !
 ! D43   D(7,9,10,22)          -65.1781         estimate D2E/DX2                !
 ! D44   D(19,9,10,11)         -66.3496         estimate D2E/DX2                !
 ! D45   D(19,9,10,21)          55.4399         estimate D2E/DX2                !
 ! D46   D(19,9,10,22)         173.6602         estimate D2E/DX2                !
 ! D47   D(20,9,10,11)         175.4116         estimate D2E/DX2                !
 ! D48   D(20,9,10,21)         -62.7989         estimate D2E/DX2                !
 ! D49   D(20,9,10,22)          55.4214         estimate D2E/DX2                !
 ! D50   D(9,10,11,12)         -52.8225         Frozen                          !
 ! D51   D(9,10,11,23)          67.7941         estimate D2E/DX2                !
 ! D52   D(9,10,11,24)        -174.671          estimate D2E/DX2                !
 ! D53   D(21,10,11,12)       -174.7062         estimate D2E/DX2                !
 ! D54   D(21,10,11,23)        -54.0897         estimate D2E/DX2                !
 ! D55   D(21,10,11,24)         63.4453         estimate D2E/DX2                !
 ! D56   D(22,10,11,12)         67.3895         estimate D2E/DX2                !
 ! D57   D(22,10,11,23)       -171.994          estimate D2E/DX2                !
 ! D58   D(22,10,11,24)        -54.4591         estimate D2E/DX2                !
 ! D59   D(10,11,12,13)         56.546          estimate D2E/DX2                !
 ! D60   D(10,11,12,25)        177.4027         estimate D2E/DX2                !
 ! D61   D(10,11,12,26)        -64.8571         estimate D2E/DX2                !
 ! D62   D(23,11,12,13)        -63.9314         estimate D2E/DX2                !
 ! D63   D(23,11,12,25)         56.9252         estimate D2E/DX2                !
 ! D64   D(23,11,12,26)        174.6654         estimate D2E/DX2                !
 ! D65   D(24,11,12,13)        178.4654         estimate D2E/DX2                !
 ! D66   D(24,11,12,25)        -60.6779         estimate D2E/DX2                !
 ! D67   D(24,11,12,26)         57.0623         estimate D2E/DX2                !
 ! D68   D(11,12,13,7)         -60.2064         estimate D2E/DX2                !
 ! D69   D(11,12,13,14)       -179.2101         estimate D2E/DX2                !
 ! D70   D(11,12,13,15)         61.7685         estimate D2E/DX2                !
 ! D71   D(25,12,13,7)         178.9425         estimate D2E/DX2                !
 ! D72   D(25,12,13,14)         59.9387         estimate D2E/DX2                !
 ! D73   D(25,12,13,15)        -59.0826         estimate D2E/DX2                !
 ! D74   D(26,12,13,7)          61.1772         estimate D2E/DX2                !
 ! D75   D(26,12,13,14)        -57.8266         estimate D2E/DX2                !
 ! D76   D(26,12,13,15)       -176.8479         estimate D2E/DX2                !
 ! D77   D(7,13,15,16)         -67.1602         Frozen                          !
 ! D78   D(12,13,15,16)        175.6346         estimate D2E/DX2                !
 ! D79   D(14,13,15,16)         58.0364         estimate D2E/DX2                !
 ! D80   D(13,15,16,4)           7.7851         estimate D2E/DX2                !
 ! D81   D(13,15,16,27)       -171.8652         estimate D2E/DX2                !
 --------------------------------------------------------------------------------
 Trust Radius=3.00D-01 FncErr=1.00D-07 GrdErr=1.00D-07 EigMax=2.50D+02 EigMin=1.00D-04
 Number of steps in this run=     20 maximum allowed number of steps=    162.
 GradGradGradGradGradGradGradGradGradGradGradGradGradGradGradGradGradGrad

                          Input orientation:                          
 ---------------------------------------------------------------------
 Center     Atomic      Atomic             Coordinates (Angstroms)
 Number     Number       Type             X           Y           Z
 ---------------------------------------------------------------------
      1          8           0       -3.613000   -1.438140   -0.178780
      2          7           0       -3.255350   -0.272530   -0.017480
      3          8           0       -4.039290    0.664860    0.138950
      4          6           0       -1.752980    0.017920   -0.038820
      5          6           0       -1.372480    1.298160    0.270840
      6          7           0       -0.085800    1.760080    0.386330
      7          6           0        1.196950    0.993680    0.358220
      8          1           0        1.857770    1.493150    1.113490
      9          6           0        1.964190    1.046550   -0.986480
     10          6           0        3.376080    0.460810   -0.794200
     11          6           0        3.313270   -0.955670   -0.201100
     12          6           0        2.461820   -0.990920    1.086500
     13          6           0        1.025420   -0.454360    0.838240
     14          1           0        0.474950   -0.494980    1.807420
     15          7           0        0.371780   -1.319650   -0.145450
     16          6           0       -0.868900   -1.109790   -0.442520
     17          1           0       -2.159350    2.037250    0.495650
     18          1           0        0.141540    2.743380    0.219520
     19          1           0        1.417100    0.470580   -1.762870
     20          1           0        2.050650    2.097010   -1.336780
     21          1           0        3.913160    0.437890   -1.767630
     22          1           0        3.951150    1.114340   -0.100770
     23          1           0        2.867990   -1.644430   -0.954170
     24          1           0        4.340820   -1.319420    0.018040
     25          1           0        2.402360   -2.037770    1.457030
     26          1           0        2.954470   -0.381090    1.872590
     27          1           0       -1.373310   -1.853890   -1.077770
 ---------------------------------------------------------------------
                    Distance matrix (angstroms):
                    1          2          3          4          5
     1  O    0.000000
     2  N    1.229869   0.000000
     3  O    2.169167   1.231963   0.000000
     4  C    2.366300   1.530337   2.382718   0.000000
     5  C    3.565028   2.468885   2.744146   1.371016   0.000000
     6  N    4.794695   3.786900   4.109840   2.448543   1.371952
     7  C    5.416432   4.644073   5.251134   3.132385   2.588883
     8  H    6.339696   5.526365   6.034162   4.067141   3.344039
     9  C    6.158824   5.470149   6.119972   3.971586   3.574567
    10  C    7.268562   6.716915   7.476638   5.203269   4.938045
    11  C    6.943089   6.606600   7.536703   5.161502   5.220989
    12  C    6.221284   5.866932   6.775241   4.477571   4.539498
    13  C    4.849443   4.369246   5.233827   2.951574   3.023771
    14  H    4.641754   4.158712   4.950493   2.938595   2.998237
    15  N    3.986681   3.777421   4.845276   2.512980   3.173117
    16  C    2.776231   2.564529   3.679519   1.488725   2.561386
    17  H    3.827047   2.607605   2.354753   2.128025   1.102705
    18  H    5.633855   4.548708   4.669698   3.329276   2.093693
    19  H    5.608428   5.042855   5.781596   3.636847   3.550017
    20  H    6.776074   5.958935   6.427768   4.524922   3.865284
    21  H    7.917513   7.413181   8.180955   5.938880   5.730045
    22  H    7.983583   7.339209   8.006662   5.808879   5.339749
    23  H    6.530468   6.344666   7.364662   4.995462   5.304816
    24  H    7.957141   7.668053   8.612678   6.239079   6.289470
    25  H    6.262586   6.107367   7.108896   4.871373   5.175412
    26  H    6.961116   6.491996   7.280948   5.096350   4.909988
    27  H    2.448927   2.677123   3.864189   2.174221   3.428435
                    6          7          8          9         10
     6  N    0.000000
     7  C    1.494526   0.000000
     8  H    2.092242   1.120976   0.000000
     9  C    2.568305   1.549087   2.149570   0.000000
    10  C    3.881542   2.522029   2.647692   1.540616   0.000000
    11  C    4.390222   2.931146   3.137411   2.538843   1.536922
    12  C    3.814264   2.463519   2.556601   2.948926   2.545668
    13  C    2.518487   1.535142   2.135735   2.542366   3.004663
    14  H    2.723827   2.199448   2.519204   3.521367   4.012296
    15  N    3.158624   2.507207   3.421248   2.973551   3.552004
    16  C    3.088105   3.055079   4.078136   3.601679   4.539859
    17  H    2.094847   3.517481   4.100613   4.492413   5.898293
    18  H    1.022931   2.048067   2.303845   2.766897   4.086564
    19  H    2.922427   2.195705   3.084362   1.110779   2.185411
    20  H    2.765330   2.195260   2.530943   1.110699   2.174467
    21  H    4.730688   3.493700   3.693109   2.186126   1.112001
    22  H    4.117185   2.794789   2.449523   2.176485   1.112947
    23  H    4.702393   3.387383   3.891037   2.838886   2.171585
    24  H    5.404991   3.917917   3.908465   3.500749   2.181668
    25  H    4.664869   3.442395   3.589149   3.959263   3.501295
    26  H    4.004600   2.696699   2.300382   3.345608   2.828130
    27  H    4.106343   4.095969   5.142390   4.422645   5.291026
                   11         12         13         14         15
    11  C    0.000000
    12  C    1.544061   0.000000
    13  C    2.562381   1.553311   0.000000
    14  H    3.507485   2.171022   1.115337   0.000000
    15  N    2.964446   2.448271   1.464110   2.122363   0.000000
    16  C    4.191966   3.666842   2.378736   2.691868   1.292895
    17  H    6.276352   5.556449   4.058109   3.882327   4.252812
    18  H    4.890784   4.481110   3.374848   3.622094   4.085881
    19  H    2.840559   3.368432   2.788315   3.816664   2.629385
    20  H    3.493255   3.946728   3.505895   4.368894   3.988914
    21  H    2.180801   3.506272   3.990703   5.047031   4.273381
    22  H    2.168386   2.838985   3.449994   4.279611   4.328763
    23  H    1.113454   2.180913   2.832678   3.830699   2.643969
    24  H    1.111843   2.186358   3.523199   4.338955   3.972406
    25  H    2.179471   1.112080   2.187705   2.493568   2.684566
    26  H    2.181529   1.110196   2.190087   2.482990   3.409350
    27  H    4.851740   4.487427   3.373972   3.686058   2.049383
                   16         17         18         19         20
    16  C    0.000000
    17  H    3.528354   0.000000
    18  H    4.038094   2.422594   0.000000
    19  H    3.076799   4.510694   3.274529   0.000000
    20  H    4.427984   4.591892   2.546481   1.796723   0.000000
    21  H    5.198012   6.675011   4.846562   2.496279   2.531255
    22  H    5.319439   6.208518   4.155657   3.098131   2.470883
    23  H    3.809458   6.397726   5.297542   2.689302   3.848741
    24  H    5.234238   7.331272   5.846443   3.863144   4.330405
    25  H    3.894943   6.191869   5.431587   4.198847   5.002547
    26  H    4.528675   5.821983   4.517469   4.037997   4.154266
    27  H    1.100753   4.270185   5.011250   3.695796   5.234520
                   21         22         23         24         25
    21  H    0.000000
    22  H    1.799292   0.000000
    23  H    2.467824   3.084208   0.000000
    24  H    2.541584   2.467620   1.794450   0.000000
    25  H    4.337031   3.842042   2.487049   2.518799   0.000000
    26  H    3.852404   2.669051   3.097431   2.498357   1.795022
    27  H    5.803010   6.173718   4.248267   5.842751   4.551341
                   26         27
    26  H    0.000000
    27  H    5.440905   0.000000
 Symmetry turned off by external request.
 Stoichiometry    C9H13N3O2
 Framework group  C1[X(C9H13N3O2)]
 Deg. of freedom    75
 Full point group                 C1      NOp   1
 Rotational constants (GHZ):           1.6855663           0.4002737           0.3556473
 Standard basis: 6-31G(d) (6D, 7F)
   236 basis functions,   444 primitive gaussians,   236 cartesian basis functions
    52 alpha electrons       52 beta electrons
       nuclear repulsion energy       918.3842912935 Hartrees.
 NAtoms=   27 NActive=   27 NUniq=   27 SFac= 1.00D+00 NAtFMM=   60 NAOKFM=F Big=F
 Integral buffers will be    131072 words long.
 Raffenetti 1 integral format.
 Two-electron integral symmetry is turned off.
 One-electron integrals computed using PRISM.
 NBasis=   236 RedAO= T EigKep=  1.22D-03  NBF=   236
 NBsUse=   236 1.00D-06 EigRej= -1.00D+00 NBFU=   236
 ExpMin= 1.61D-01 ExpMax= 5.48D+03 ExpMxC= 8.25D+02 IAcc=3 IRadAn=         5 AccDes= 0.00D+00
 Harris functional with IExCor=  205 and IRadAn=       5 diagonalized for initial guess.
 HarFok:  IExCor=  205 AccDes= 0.00D+00 IRadAn=         5 IDoV= 1 UseB2=F ITyADJ=14
 ICtDFT=  3500011 ScaDFX=  1.000000  1.000000  1.000000  1.000000
 FoFCou: FMM=F IPFlag=           0 FMFlag=      100000 FMFlg1=           0
         NFxFlg=           0 DoJE=T BraDBF=F KetDBF=T FulRan=T
         wScrn=  0.000000 ICntrl=       500 IOpCl=  0 I1Cent=   200000004 NGrid=           0
         NMat0=    1 NMatS0=      1 NMatT0=    0 NMatD0=    1 NMtDS0=    0 NMtDT0=    0
 Symmetry not used in FoFCou.
 Keep R1 ints in memory in canonical form, NReq=397720213.
 Requested convergence on RMS density matrix=1.00D-08 within 128 cycles.
 Requested convergence on MAX density matrix=1.00D-06.
 Requested convergence on             energy=1.00D-06.
 No special actions if energy rises.
 SCF Done:  E(RHF) =  -661.282692813     A.U. after   16 cycles
            NFock= 16  Conv=0.82D-08     -V/T= 2.0036
 ExpMin= 1.61D-01 ExpMax= 5.48D+03 ExpMxC= 8.25D+02 IAcc=3 IRadAn=         5 AccDes= 0.00D+00
 HarFok:  IExCor=  205 AccDes= 0.00D+00 IRadAn=         5 IDoV=-2 UseB2=F ITyADJ=14
 ICtDFT= 12500011 ScaDFX=  1.000000  1.000000  1.000000  1.000000
 Range of M.O.s used for correlation:    15   236
 NBasis=   236 NAE=    52 NBE=    52 NFC=    14 NFV=     0
 NROrb=    222 NOA=    38 NOB=    38 NVA=   184 NVB=   184
 Fully direct method using O(ONN) memory.
 JobTyp=1 Pass  1:  I=  15 to  52 NPSUse=  4 ParTrn=T ParDer=T DoDerP=T.
 Spin components of T(2) and E(2):
     alpha-alpha T2 =       0.9179081763D-01 E2=     -0.2716535805D+00
     alpha-beta  T2 =       0.4988402430D+00 E2=     -0.1493242734D+01
     beta-beta   T2 =       0.9179081763D-01 E2=     -0.2716535805D+00
 ANorm=    0.1297082063D+01
 E2 =    -0.2036549895D+01 EUMP2 =    -0.66331924270793D+03
          IDoAtm=111111111111111111111111111
          Differentiating once with respect to electric field.
                with respect to dipole field.
          Differentiating once with respect to nuclear coordinates.
 Keep R1 ints in memory in canonical form, NReq=397723379.
          There are     1 degrees of freedom in the 1st order CPHF.  IDoFFX=0 NUNeed=     1.
 LinEq1:  Iter=  0 NonCon=     1 RMS=4.58D-03 Max=1.17D-01 NDo=     1
 AX will form     1 AO Fock derivatives at one time.
 LinEq1:  Iter=  1 NonCon=     1 RMS=1.56D-03 Max=2.75D-02 NDo=     1
 LinEq1:  Iter=  2 NonCon=     1 RMS=6.34D-04 Max=1.88D-02 NDo=     1
 LinEq1:  Iter=  3 NonCon=     1 RMS=2.85D-04 Max=7.55D-03 NDo=     1
 LinEq1:  Iter=  4 NonCon=     1 RMS=8.77D-05 Max=1.80D-03 NDo=     1
 LinEq1:  Iter=  5 NonCon=     1 RMS=3.57D-05 Max=1.69D-03 NDo=     1
 LinEq1:  Iter=  6 NonCon=     1 RMS=1.48D-05 Max=5.96D-04 NDo=     1
 LinEq1:  Iter=  7 NonCon=     1 RMS=5.73D-06 Max=1.12D-04 NDo=     1
 LinEq1:  Iter=  8 NonCon=     1 RMS=2.35D-06 Max=6.64D-05 NDo=     1
 LinEq1:  Iter=  9 NonCon=     1 RMS=8.91D-07 Max=2.54D-05 NDo=     1
 LinEq1:  Iter= 10 NonCon=     1 RMS=4.39D-07 Max=1.56D-05 NDo=     1
 LinEq1:  Iter= 11 NonCon=     1 RMS=1.53D-07 Max=5.18D-06 NDo=     1
 LinEq1:  Iter= 12 NonCon=     1 RMS=5.44D-08 Max=8.12D-07 NDo=     1
 LinEq1:  Iter= 13 NonCon=     1 RMS=1.78D-08 Max=4.58D-07 NDo=     1
 LinEq1:  Iter= 14 NonCon=     1 RMS=5.70D-09 Max=1.71D-07 NDo=     1
 LinEq1:  Iter= 15 NonCon=     1 RMS=2.03D-09 Max=5.52D-08 NDo=     1
 LinEq1:  Iter= 16 NonCon=     1 RMS=6.85D-10 Max=1.07D-08 NDo=     1
 LinEq1:  Iter= 17 NonCon=     1 RMS=2.18D-10 Max=2.97D-09 NDo=     1
 LinEq1:  Iter= 18 NonCon=     1 RMS=7.42D-11 Max=1.03D-09 NDo=     1
 LinEq1:  Iter= 19 NonCon=     0 RMS=2.72D-11 Max=3.84D-10 NDo=     1
 Linear equations converged to 1.000D-10 1.000D-09 after    19 iterations.
 End of Minotr F.D. properties file   721 does not exist.
 End of Minotr F.D. properties file   722 does not exist.
 End of Minotr F.D. properties file   788 does not exist.

 **********************************************************************

            Population analysis using the SCF Density.

 **********************************************************************

 Alpha  occ. eigenvalues --  -20.60002 -20.59566 -15.85389 -15.62966 -15.57017
 Alpha  occ. eigenvalues --  -11.35262 -11.30548 -11.29981 -11.29971 -11.27671
 Alpha  occ. eigenvalues --  -11.24562 -11.23844 -11.23393 -11.22847  -1.58612
 Alpha  occ. eigenvalues --   -1.38102  -1.28490  -1.22762  -1.13481  -1.08640
 Alpha  occ. eigenvalues --   -1.01779  -1.00624  -0.93719  -0.89057  -0.84912
 Alpha  occ. eigenvalues --   -0.81589  -0.78062  -0.76986  -0.74489  -0.70964
 Alpha  occ. eigenvalues --   -0.70428  -0.69891  -0.67402  -0.64401  -0.63245
 Alpha  occ. eigenvalues --   -0.61589  -0.60395  -0.57378  -0.56456  -0.54876
 Alpha  occ. eigenvalues --   -0.53563  -0.50735  -0.49501  -0.48611  -0.47872
 Alpha  occ. eigenvalues --   -0.47701  -0.46152  -0.45654  -0.44106  -0.42068
 Alpha  occ. eigenvalues --   -0.40069  -0.34101
 Alpha virt. eigenvalues --    0.07534   0.11736   0.18261   0.21419   0.23490
 Alpha virt. eigenvalues --    0.24360   0.26362   0.27860   0.28580   0.28918
 Alpha virt. eigenvalues --    0.30003   0.31085   0.31886   0.32294   0.33349
 Alpha virt. eigenvalues --    0.33810   0.34170   0.35624   0.37583   0.38568
 Alpha virt. eigenvalues --    0.40676   0.41802   0.44695   0.45372   0.45693
 Alpha virt. eigenvalues --    0.46115   0.49810   0.53571   0.57670   0.58928
 Alpha virt. eigenvalues --    0.63055   0.69189   0.69333   0.72166   0.74032
 Alpha virt. eigenvalues --    0.75170   0.75806   0.75904   0.77829   0.79277
 Alpha virt. eigenvalues --    0.80478   0.83743   0.85313   0.85521   0.88025
 Alpha virt. eigenvalues --    0.89232   0.90254   0.90829   0.91839   0.93982
 Alpha virt. eigenvalues --    0.95215   0.97223   0.98953   1.00431   1.01947
 Alpha virt. eigenvalues --    1.02717   1.05135   1.06562   1.07020   1.08803
 Alpha virt. eigenvalues --    1.09527   1.10522   1.11430   1.11988   1.13286
 Alpha virt. eigenvalues --    1.13904   1.14247   1.15396   1.16359   1.17293
 Alpha virt. eigenvalues --    1.18022   1.20016   1.21256   1.22278   1.23084
 Alpha virt. eigenvalues --    1.23672   1.24843   1.25685   1.27117   1.27772
 Alpha virt. eigenvalues --    1.29535   1.31278   1.33086   1.36190   1.39775
 Alpha virt. eigenvalues --    1.42882   1.46184   1.47313   1.49379   1.52738
 Alpha virt. eigenvalues --    1.54688   1.55502   1.60503   1.61428   1.66026
 Alpha virt. eigenvalues --    1.68694   1.70409   1.72902   1.73548   1.77217
 Alpha virt. eigenvalues --    1.77998   1.80112   1.84333   1.89152   1.92684
 Alpha virt. eigenvalues --    1.93569   1.96098   1.97423   1.99023   2.00924
 Alpha virt. eigenvalues --    2.03021   2.03716   2.05954   2.09015   2.11820
 Alpha virt. eigenvalues --    2.13084   2.14190   2.17806   2.19126   2.19866
 Alpha virt. eigenvalues --    2.21089   2.22186   2.24193   2.25324   2.26465
 Alpha virt. eigenvalues --    2.29526   2.32223   2.33775   2.35605   2.36167
 Alpha virt. eigenvalues --    2.38724   2.39885   2.41784   2.43335   2.46456
 Alpha virt. eigenvalues --    2.48771   2.50447   2.51611   2.56979   2.57589
 Alpha virt. eigenvalues --    2.60831   2.63072   2.66235   2.68655   2.68987
 Alpha virt. eigenvalues --    2.69769   2.70399   2.74843   2.77345   2.81000
 Alpha virt. eigenvalues --    2.84978   2.87364   2.90313   2.91549   2.95332
 Alpha virt. eigenvalues --    2.97791   2.98587   3.02544   3.03673   3.05817
 Alpha virt. eigenvalues --    3.07132   3.12931   3.19359   3.22622   3.27284
 Alpha virt. eigenvalues --    3.30878   3.34095   3.37226   3.44103   3.61198
 Alpha virt. eigenvalues --    4.09979   4.23160   4.32330   4.36336   4.43205
 Alpha virt. eigenvalues --    4.53510   4.59695   4.60476   4.70938   4.77741
 Alpha virt. eigenvalues --    4.96808   4.99269   5.02953   5.09999
          Condensed to atoms (all electrons):
               1          2          3          4          5          6
     1  O    8.298332   0.312031  -0.090084  -0.078563   0.003781  -0.000015
     2  N    0.312031   5.688003   0.309681   0.265722  -0.048468   0.000907
     3  O   -0.090084   0.309681   8.327923  -0.087266   0.008113   0.000460
     4  C   -0.078563   0.265722  -0.087266   5.226625   0.574971  -0.047559
     5  C    0.003781  -0.048468   0.008113   0.574971   4.675851   0.305710
     6  N   -0.000015   0.000907   0.000460  -0.047559   0.305710   7.194545
     7  C    0.000003  -0.000097   0.000002   0.004416  -0.029632   0.201097
     8  H   -0.000000   0.000002  -0.000000  -0.000195   0.002328  -0.049900
     9  C   -0.000000  -0.000003   0.000000   0.000463   0.001736  -0.056343
    10  C   -0.000000   0.000000  -0.000000  -0.000019  -0.000065   0.003353
    11  C   -0.000000  -0.000000  -0.000000  -0.000015   0.000016  -0.000155
    12  C   -0.000000   0.000002  -0.000000  -0.000105  -0.000138   0.003631
    13  C   -0.000020  -0.000027  -0.000002  -0.010490   0.000437  -0.045155
    14  H   -0.000002  -0.000055   0.000000   0.002663   0.004861  -0.005544
    15  N    0.000172   0.001632  -0.000013  -0.060628  -0.004032   0.001834
    16  C    0.003050  -0.026094   0.001917   0.314961  -0.043209  -0.001548
    17  H    0.000144  -0.004697   0.012510  -0.028332   0.377770  -0.033757
    18  H    0.000000  -0.000037   0.000009   0.000876  -0.024451   0.329100
    19  H    0.000000   0.000000   0.000000  -0.000785   0.000666   0.000670
    20  H    0.000000  -0.000000   0.000000  -0.000027   0.000028  -0.001692
    21  H   -0.000000  -0.000000   0.000000   0.000000   0.000001  -0.000059
    22  H   -0.000000   0.000000  -0.000000  -0.000000  -0.000002  -0.000097
    23  H    0.000000  -0.000000   0.000000   0.000025  -0.000000  -0.000024
    24  H    0.000000   0.000000   0.000000   0.000000  -0.000000   0.000004
    25  H    0.000000  -0.000000   0.000000   0.000020  -0.000001  -0.000072
    26  H    0.000000  -0.000000   0.000000   0.000006  -0.000001  -0.000068
    27  H    0.005341  -0.000329  -0.000001  -0.066127   0.002222   0.000054
               7          8          9         10         11         12
     1  O    0.000003  -0.000000  -0.000000  -0.000000  -0.000000  -0.000000
     2  N   -0.000097   0.000002  -0.000003   0.000000  -0.000000   0.000002
     3  O    0.000002  -0.000000   0.000000  -0.000000  -0.000000  -0.000000
     4  C    0.004416  -0.000195   0.000463  -0.000019  -0.000015  -0.000105
     5  C   -0.029632   0.002328   0.001736  -0.000065   0.000016  -0.000138
     6  N    0.201097  -0.049900  -0.056343   0.003353  -0.000155   0.003631
     7  C    4.998194   0.416926   0.341079  -0.049484  -0.007659  -0.064261
     8  H    0.416926   0.548072  -0.060746   0.001491  -0.000321  -0.002904
     9  C    0.341079  -0.060746   5.181735   0.317604  -0.053094  -0.006127
    10  C   -0.049484   0.001491   0.317604   5.127200   0.332715  -0.060131
    11  C   -0.007659  -0.000321  -0.053094   0.332715   5.123960   0.330755
    12  C   -0.064261  -0.002904  -0.006127  -0.060131   0.330755   5.136544
    13  C    0.333133  -0.040471  -0.050461  -0.001670  -0.047881   0.368245
    14  H   -0.039856  -0.000986   0.003858  -0.000392   0.003943  -0.040682
    15  N   -0.058196   0.004090  -0.013146   0.001493  -0.007696  -0.074004
    16  C   -0.002394   0.000027  -0.000951  -0.000023   0.000002   0.002567
    17  H    0.001464  -0.000018  -0.000065   0.000001   0.000000   0.000001
    18  H   -0.028754  -0.002657   0.000787  -0.000119   0.000011  -0.000138
    19  H   -0.034923   0.004100   0.385915  -0.032647  -0.002273   0.000635
    20  H   -0.041474  -0.001870   0.397295  -0.037384   0.004143  -0.000362
    21  H    0.004043  -0.000081  -0.035815   0.400088  -0.035863   0.004211
    22  H   -0.004200   0.003509  -0.045639   0.395985  -0.045632  -0.001236
    23  H    0.000433   0.000033  -0.002001  -0.040125   0.396700  -0.036688
    24  H   -0.000143  -0.000098   0.004390  -0.038464   0.400341  -0.037845
    25  H    0.004991  -0.000004  -0.000372   0.004098  -0.033991   0.395410
    26  H   -0.004452   0.001618   0.001032  -0.002382  -0.042279   0.394814
    27  H   -0.000406   0.000009  -0.000061   0.000005   0.000005  -0.000021
              13         14         15         16         17         18
     1  O   -0.000020  -0.000002   0.000172   0.003050   0.000144   0.000000
     2  N   -0.000027  -0.000055   0.001632  -0.026094  -0.004697  -0.000037
     3  O   -0.000002   0.000000  -0.000013   0.001917   0.012510   0.000009
     4  C   -0.010490   0.002663  -0.060628   0.314961  -0.028332   0.000876
     5  C    0.000437   0.004861  -0.004032  -0.043209   0.377770  -0.024451
     6  N   -0.045155  -0.005544   0.001834  -0.001548  -0.033757   0.329100
     7  C    0.333133  -0.039856  -0.058196  -0.002394   0.001464  -0.028754
     8  H   -0.040471  -0.000986   0.004090   0.000027  -0.000018  -0.002657
     9  C   -0.050461   0.003858  -0.013146  -0.000951  -0.000065   0.000787
    10  C   -0.001670  -0.000392   0.001493  -0.000023   0.000001  -0.000119
    11  C   -0.047881   0.003943  -0.007696   0.000002   0.000000   0.000011
    12  C    0.368245  -0.040682  -0.074004   0.002567   0.000001  -0.000138
    13  C    5.027472   0.402578   0.238339  -0.070008  -0.000048   0.003753
    14  H    0.402578   0.518470  -0.035688  -0.004973   0.000065   0.000011
    15  N    0.238339  -0.035688   6.932851   0.588438  -0.000062  -0.000122
    16  C   -0.070008  -0.004973   0.588438   4.705926   0.001774  -0.000218
    17  H   -0.000048   0.000065  -0.000062   0.001774   0.387425  -0.001911
    18  H    0.003753   0.000011  -0.000122  -0.000218  -0.001911   0.325874
    19  H   -0.006311   0.000061   0.006911   0.002547   0.000011  -0.000125
    20  H    0.003867  -0.000049   0.000079  -0.000033  -0.000001   0.002847
    21  H   -0.000376   0.000009  -0.000029   0.000002  -0.000000  -0.000000
    22  H    0.000314  -0.000044   0.000003  -0.000001   0.000000   0.000002
    23  H   -0.005849   0.000006   0.006669   0.000059   0.000000   0.000000
    24  H    0.004142  -0.000058   0.000042   0.000005   0.000000  -0.000000
    25  H   -0.034628  -0.002649   0.000748  -0.000063  -0.000000   0.000002
    26  H   -0.044770  -0.000915   0.004182  -0.000057   0.000000  -0.000001
    27  H    0.004900  -0.000176  -0.039781   0.402328  -0.000064   0.000002
              19         20         21         22         23         24
     1  O    0.000000   0.000000  -0.000000  -0.000000   0.000000   0.000000
     2  N    0.000000  -0.000000  -0.000000   0.000000  -0.000000   0.000000
     3  O    0.000000   0.000000   0.000000  -0.000000   0.000000   0.000000
     4  C   -0.000785  -0.000027   0.000000  -0.000000   0.000025   0.000000
     5  C    0.000666   0.000028   0.000001  -0.000002  -0.000000  -0.000000
     6  N    0.000670  -0.001692  -0.000059  -0.000097  -0.000024   0.000004
     7  C   -0.034923  -0.041474   0.004043  -0.004200   0.000433  -0.000143
     8  H    0.004100  -0.001870  -0.000081   0.003509   0.000033  -0.000098
     9  C    0.385915   0.397295  -0.035815  -0.045639  -0.002001   0.004390
    10  C   -0.032647  -0.037384   0.400088   0.395985  -0.040125  -0.038464
    11  C   -0.002273   0.004143  -0.035863  -0.045632   0.396700   0.400341
    12  C    0.000635  -0.000362   0.004211  -0.001236  -0.036688  -0.037845
    13  C   -0.006311   0.003867  -0.000376   0.000314  -0.005849   0.004142
    14  H    0.000061  -0.000049   0.000009  -0.000044   0.000006  -0.000058
    15  N    0.006911   0.000079  -0.000029   0.000003   0.006669   0.000042
    16  C    0.002547  -0.000033   0.000002  -0.000001   0.000059   0.000005
    17  H    0.000011  -0.000001  -0.000000   0.000000   0.000000   0.000000
    18  H   -0.000125   0.002847  -0.000000   0.000002   0.000000  -0.000000
    19  H    0.507839  -0.024044  -0.002601   0.003764   0.001644  -0.000070
    20  H   -0.024044   0.549774  -0.002605  -0.002971  -0.000050  -0.000090
    21  H   -0.002601  -0.002605   0.526397  -0.024710  -0.002819  -0.002057
    22  H    0.003764  -0.002971  -0.024710   0.568761   0.004066  -0.003591
    23  H    0.001644  -0.000050  -0.002819   0.004066   0.510272  -0.025006
    24  H   -0.000070  -0.000090  -0.002057  -0.003591  -0.025006   0.540923
    25  H   -0.000027   0.000011  -0.000086  -0.000082  -0.002096  -0.002380
    26  H    0.000023  -0.000035  -0.000074   0.002463   0.003822  -0.002772
    27  H    0.000076  -0.000000  -0.000000   0.000000  -0.000021  -0.000000
              25         26         27
     1  O    0.000000   0.000000   0.005341
     2  N   -0.000000  -0.000000  -0.000329
     3  O    0.000000   0.000000  -0.000001
     4  C    0.000020   0.000006  -0.066127
     5  C   -0.000001  -0.000001   0.002222
     6  N   -0.000072  -0.000068   0.000054
     7  C    0.004991  -0.004452  -0.000406
     8  H   -0.000004   0.001618   0.000009
     9  C   -0.000372   0.001032  -0.000061
    10  C    0.004098  -0.002382   0.000005
    11  C   -0.033991  -0.042279   0.000005
    12  C    0.395410   0.394814  -0.000021
    13  C   -0.034628  -0.044770   0.004900
    14  H   -0.002649  -0.000915  -0.000176
    15  N    0.000748   0.004182  -0.039781
    16  C   -0.000063  -0.000057   0.402328
    17  H   -0.000000   0.000000  -0.000064
    18  H    0.000002  -0.000001   0.000002
    19  H   -0.000027   0.000023   0.000076
    20  H    0.000011  -0.000035  -0.000000
    21  H   -0.000086  -0.000074  -0.000000
    22  H   -0.000082   0.002463   0.000000
    23  H   -0.002096   0.003822  -0.000021
    24  H   -0.002380  -0.002772  -0.000000
    25  H    0.511139  -0.023101  -0.000010
    26  H   -0.023101   0.560482   0.000001
    27  H   -0.000010   0.000001   0.452137
 Mulliken charges:
               1
     1  O   -0.454171
     2  N    0.501828
     3  O   -0.483248
     4  C   -0.010639
     5  C    0.191511
     6  N   -0.799378
     7  C    0.060151
     8  H    0.178046
     9  C   -0.311071
    10  C   -0.321130
    11  C   -0.315732
    12  C   -0.312175
    13  C   -0.029011
    14  H    0.195544
    15  N   -0.494087
    16  C    0.125968
    17  H    0.287790
    18  H    0.395255
    19  H    0.188942
    20  H    0.154643
    21  H    0.172424
    22  H    0.149338
    23  H    0.190949
    24  H    0.162728
    25  H    0.183142
    26  H    0.152463
    27  H    0.239918
 Sum of Mulliken charges =  -0.00000
 Mulliken charges with hydrogens summed into heavy atoms:
               1
     1  O   -0.454171
     2  N    0.501828
     3  O   -0.483248
     4  C   -0.010639
     5  C    0.479301
     6  N   -0.404122
     7  C    0.238198
     9  C    0.032514
    10  C    0.000632
    11  C    0.037945
    12  C    0.023430
    13  C    0.166534
    15  N   -0.494087
    16  C    0.365886
 Electronic spatial extent (au):  <R**2>=           3122.0307
 Charge=             -0.0000 electrons
 Dipole moment (field-independent basis, Debye):
    X=              5.2677    Y=              4.3677    Z=              0.4821  Tot=              6.8599
 Quadrupole moment (field-independent basis, Debye-Ang):
   XX=           -105.1794   YY=            -80.4715   ZZ=            -82.2167
   XY=             -1.7431   XZ=              0.9667   YZ=             -0.0221
 Traceless Quadrupole moment (field-independent basis, Debye-Ang):
   XX=            -15.8902   YY=              8.8177   ZZ=              7.0725
   XY=             -1.7431   XZ=              0.9667   YZ=             -0.0221
 Octapole moment (field-independent basis, Debye-Ang**2):
  XXX=             99.9031  YYY=             35.8043  ZZZ=             -5.3333  XYY=             -1.4450
  XXY=             11.2421  XXZ=             -0.5917  XZZ=             -8.5136  YZZ=             -2.9875
  YYZ=              0.6193  XYZ=             -1.3744
 Hexadecapole moment (field-independent basis, Debye-Ang**3):
 XXXX=          -3555.3034 YYYY=           -617.2002 ZZZZ=           -298.8660 XXXY=            -37.7428
 XXXZ=             28.1655 YYYX=            -18.1715 YYYZ=             11.5330 ZZZX=             22.3522
 ZZZY=              9.2135 XXYY=           -656.1052 XXZZ=           -543.2283 YYZZ=           -163.9200
 XXYZ=              2.5168 YYXZ=             10.7078 ZZXY=              3.0680
 N-N= 9.183842912935D+02 E-N=-3.382835541844D+03  KE= 6.589312127887D+02
 Calling FoFJK, ICntrl=  10002127 FMM=F ISym2X=0 I1Cent= 0 IOpClX= 0 NMat=1 NMatS=1 NMatT=0.
 -------------------------------------------------------------------
 Center     Atomic                   Forces (Hartrees/Bohr)
 Number     Number              X              Y              Z
 -------------------------------------------------------------------
      1        8           0.002675817   -0.019372767   -0.002912590
      2        7           0.037872804    0.013346906   -0.002374342
      3        8          -0.004105807    0.015557225    0.003683524
      4        6          -0.009642964   -0.014505645    0.004370906
      5        6           0.009142380    0.006872994    0.000079645
      6        7           0.016170809   -0.008872381   -0.006118706
      7        6          -0.005330864    0.005554326    0.003111282
      8        1          -0.010024456   -0.001781197   -0.007663010
      9        6          -0.003874193    0.000103168   -0.002021366
     10        6           0.002834342   -0.000869791    0.000935852
     11        6          -0.001124092   -0.004579768   -0.002418420
     12        6           0.000823688   -0.008867437   -0.002716497
     13        6           0.010234731   -0.001940528    0.004708655
     14        1           0.000930706    0.004510861   -0.009979829
     15        7          -0.001462183    0.001096401    0.001635844
     16        6          -0.020986060    0.006430504    0.002950916
     17        1           0.007081958   -0.005628981   -0.006069684
     18        1          -0.017759439   -0.002075805    0.005989129
     19        1           0.003103369    0.005898547    0.007690224
     20        1          -0.003267279   -0.007353735    0.002634837
     21        1          -0.004336870    0.002388902    0.009615911
     22        1          -0.003976905   -0.003993015   -0.007403640
     23        1           0.003994448    0.006131493    0.009268635
     24        1          -0.009390578    0.002593806   -0.002126273
     25        1          -0.000708839    0.010551866   -0.002384828
     26        1          -0.004794607   -0.004821958   -0.004375152
     27        1           0.005920085    0.003626010    0.001888978
 -------------------------------------------------------------------
 Cartesian Forces:  Max     0.037872804 RMS     0.008286549

 GradGradGradGradGradGradGradGradGradGradGradGradGradGradGradGradGradGrad
 Berny optimization.
 FormGI is forming the generalized inverse of G from B-inverse, IUseBI=4.
 Internal  Forces:  Max     0.037608174 RMS     0.006310511
 Search for a local minimum.
 Step number   1 out of a maximum of   20
 All quantities printed in internal units (Hartrees-Bohrs-Radians)
 Mixed Optimization -- RFO/linear search
 Second derivative matrix not updated -- first step.
 ITU=  0
     Eigenvalues ---    0.00231   0.00770   0.01088   0.01170   0.01233
     Eigenvalues ---    0.01487   0.01536   0.01629   0.01995   0.02108
     Eigenvalues ---    0.02286   0.02697   0.03672   0.04505   0.04693
     Eigenvalues ---    0.04839   0.05085   0.05138   0.05306   0.05901
     Eigenvalues ---    0.06256   0.07231   0.07698   0.07726   0.07873
     Eigenvalues ---    0.07991   0.08051   0.08061   0.10457   0.11735
     Eigenvalues ---    0.12260   0.13484   0.15231   0.15711   0.15990
     Eigenvalues ---    0.16000   0.20075   0.21953   0.23167   0.24983
     Eigenvalues ---    0.25000   0.25000   0.25390   0.26232   0.26650
     Eigenvalues ---    0.27976   0.28085   0.28491   0.29392   0.31465
     Eigenvalues ---    0.31591   0.32041   0.32237   0.32290   0.32381
     Eigenvalues ---    0.32389   0.32406   0.32518   0.32526   0.32579
     Eigenvalues ---    0.33205   0.33385   0.33599   0.35467   0.43874
     Eigenvalues ---    0.48798   0.66902   0.90273   0.911411000.00000
     Eigenvalues --- 1000.000001000.000001000.000001000.000001000.00000
     Eigenvalues --- 1000.000001000.000001000.000001000.000001000.00000
     Eigenvalues --- 1000.000001000.000001000.000001000.000001000.00000
     Eigenvalues --- 1000.000001000.000001000.000001000.000001000.00000
     Eigenvalues --- 1000.000001000.000001000.000001000.000001000.00000
     Eigenvalues --- 1000.000001000.000001000.000001000.000001000.00000
     Eigenvalues --- 1000.000001000.000001000.000001000.000001000.00000
     Eigenvalues --- 1000.000001000.000001000.000001000.000001000.00000
     Eigenvalues --- 1000.000001000.000001000.000001000.000001000.00000
     Eigenvalues --- 1000.000001000.000001000.000001000.000001000.00000
     Eigenvalues --- 1000.000001000.000001000.000001000.000001000.00000
     Eigenvalues --- 1000.000001000.000001000.000001000.000001000.00000
     Eigenvalues --- 1000.000001000.000001000.000001000.000001000.00000
     Eigenvalues --- 1000.000001000.000001000.000001000.000001000.00000
     Eigenvalues --- 1000.000001000.000001000.000001000.000001000.00000
     Eigenvalues --- 1000.000001000.000001000.000001000.000001000.00000
     Eigenvalues --- 1000.000001000.000001000.000001000.000001000.00000
     Eigenvalues --- 1000.000001000.000001000.000001000.000001000.00000
     Eigenvalues --- 1000.00000
 RFO step:  Lambda=-2.13785561D-02 EMin= 2.31193560D-03
 Linear search not attempted -- first point.
 Iteration  1 RMS(Cart)=  0.05440729 RMS(Int)=  0.00097987
 Iteration  2 RMS(Cart)=  0.00108823 RMS(Int)=  0.00022383
 Iteration  3 RMS(Cart)=  0.00000068 RMS(Int)=  0.00022383
 Iteration  1 RMS(Cart)=  0.00003212 RMS(Int)=  0.00002385
 Iteration  2 RMS(Cart)=  0.00001399 RMS(Int)=  0.00002611
 Iteration  3 RMS(Cart)=  0.00000903 RMS(Int)=  0.00002913
 Iteration  4 RMS(Cart)=  0.00000680 RMS(Int)=  0.00003161
 Iteration  5 RMS(Cart)=  0.00000553 RMS(Int)=  0.00003363
 Iteration  6 RMS(Cart)=  0.00000464 RMS(Int)=  0.00003533
 Iteration  7 RMS(Cart)=  0.00000392 RMS(Int)=  0.00003678
 Iteration  8 RMS(Cart)=  0.00000332 RMS(Int)=  0.00003803
 Iteration  9 RMS(Cart)=  0.00000281 RMS(Int)=  0.00003911
 Iteration 10 RMS(Cart)=  0.00000238 RMS(Int)=  0.00004004
 Iteration 11 RMS(Cart)=  0.00000201 RMS(Int)=  0.00004084
 Iteration 12 RMS(Cart)=  0.00000170 RMS(Int)=  0.00004152
 Iteration 13 RMS(Cart)=  0.00000143 RMS(Int)=  0.00004211
 Iteration 14 RMS(Cart)=  0.00000121 RMS(Int)=  0.00004261
 Iteration 15 RMS(Cart)=  0.00000102 RMS(Int)=  0.00004304
 Iteration 16 RMS(Cart)=  0.00000086 RMS(Int)=  0.00004340
 Variable       Old X    -DE/DX   Delta X   Delta X   Delta X     New X
                                 (Linear)    (Quad)   (Total)
    R1        2.32412   0.01796   0.00000   0.01926   0.01926   2.34337
    R2        2.32807   0.01492   0.00000   0.01614   0.01614   2.34422
    R3        2.89192  -0.03761   0.00000  -0.11928  -0.11928   2.77264
    R4        2.59084  -0.01007   0.00000   0.00000  -0.00000   2.59084
    R5        2.81328  -0.02263   0.00000  -0.06478  -0.06456   2.74872
    R6        2.59261  -0.02387   0.00000  -0.04625  -0.04621   2.54640
    R7        2.08381  -0.01006   0.00000  -0.02833  -0.02833   2.05548
    R8        2.82424  -0.01886   0.00000  -0.05313  -0.05325   2.77100
    R9        1.93306  -0.00692   0.00000  -0.01504  -0.01504   1.91802
   R10        2.11834  -0.01187   0.00000  -0.03531  -0.03531   2.08302
   R11        2.92735  -0.01291   0.00000  -0.04454  -0.04458   2.88277
   R12        2.90100  -0.00272   0.00000  -0.00496  -0.00494   2.89606
   R13        2.91134  -0.00466   0.00000  -0.01421  -0.01421   2.89713
   R14        2.09907  -0.00996   0.00000  -0.02875  -0.02875   2.07032
   R15        2.09892  -0.00804   0.00000  -0.02319  -0.02319   2.07572
   R16        2.90436  -0.00197   0.00000  -0.00730  -0.00734   2.89702
   R17        2.10138  -0.01056   0.00000  -0.03059  -0.03059   2.07079
   R18        2.10317  -0.00901   0.00000  -0.02618  -0.02618   2.07699
   R19        2.91785  -0.00921   0.00000  -0.02925  -0.02922   2.88864
   R20        2.10412  -0.01166   0.00000  -0.03392  -0.03392   2.07021
   R21        2.10108  -0.00995   0.00000  -0.02879  -0.02879   2.07229
   R22        2.93533  -0.01046   0.00000  -0.03665  -0.03666   2.89867
   R23        2.10153  -0.01069   0.00000  -0.03097  -0.03097   2.07056
   R24        2.09797  -0.00787   0.00000  -0.02268  -0.02268   2.07528
   R25        2.10768  -0.00930   0.00000  -0.02720  -0.02720   2.08049
   R26        2.76677  -0.00340   0.00000  -0.00707  -0.00735   2.75941
   R27        2.44322  -0.00627   0.00000  -0.00861  -0.00862   2.43459
   R28        2.08012  -0.00625   0.00000  -0.01750  -0.01750   2.06262
    A1        2.15645   0.01178   0.00000   0.04360   0.04333   2.19977
    A2        2.05278  -0.00742   0.00000  -0.02714  -0.02741   2.02537
    A3        2.07380  -0.00433   0.00000  -0.01576  -0.01604   2.05777
    A4        2.03369  -0.00596   0.00000  -0.02068  -0.02103   2.01266
    A5        2.02975  -0.00291   0.00000  -0.00936  -0.00974   2.02001
    A6        2.21903   0.00882   0.00000   0.02883   0.02905   2.24809
    A7        2.20643   0.00429   0.00000   0.01399   0.01424   2.22067
    A8        2.06449  -0.00213   0.00000  -0.00668  -0.00687   2.05762
    A9        2.01131  -0.00212   0.00000  -0.00656  -0.00676   2.00455
   A10        2.25327  -0.00573   0.00000  -0.02053  -0.02060   2.23267
   A11        2.11571  -0.01250   0.00000  -0.07280  -0.07314   2.04257
   A12        1.87457   0.01839   0.00000   0.10061   0.10078   1.97534
   A13        1.83880  -0.00199   0.00000  -0.01943  -0.01933   1.81947
   A14        2.00857  -0.00169   0.00000  -0.01428  -0.01424   1.99433
   A15        1.96267   0.00246   0.00000   0.00741   0.00700   1.96967
   A16        1.85218   0.00297   0.00000   0.02355   0.02342   1.87560
   A17        1.84988   0.00063   0.00000   0.01825   0.01809   1.86797
   A18        1.93796  -0.00210   0.00000  -0.01156  -0.01124   1.92672
   A19        1.90984   0.00038   0.00000  -0.00412  -0.00425   1.90559
   A20        1.92314  -0.00078   0.00000  -0.01329  -0.01326   1.90988
   A21        1.92262  -0.00176   0.00000  -0.00770  -0.00770   1.91492
   A22        1.91927  -0.00038   0.00000   0.00621   0.00619   1.92546
   A23        1.90456   0.00290   0.00000   0.02447   0.02447   1.92903
   A24        1.88420  -0.00035   0.00000  -0.00514  -0.00541   1.87879
   A25        1.94026  -0.00058   0.00000   0.00658   0.00649   1.94675
   A26        1.91900  -0.00070   0.00000  -0.00675  -0.00678   1.91222
   A27        1.90503   0.00015   0.00000  -0.00336  -0.00343   1.90160
   A28        1.91618   0.00067   0.00000   0.00717   0.00721   1.92339
   A29        1.89850   0.00163   0.00000   0.01098   0.01100   1.90950
   A30        1.88384  -0.00118   0.00000  -0.01516  -0.01524   1.86860
   A31        1.94484   0.00062   0.00000   0.00477   0.00490   1.94973
   A32        1.90228   0.00072   0.00000   0.00642   0.00637   1.90865
   A33        1.91751   0.00031   0.00000   0.00527   0.00525   1.92277
   A34        1.90642  -0.00117   0.00000  -0.01404  -0.01408   1.89234
   A35        1.91538  -0.00042   0.00000   0.00000  -0.00009   1.91529
   A36        1.87603  -0.00008   0.00000  -0.00280  -0.00283   1.87320
   A37        1.94848  -0.00301   0.00000  -0.01921  -0.01925   1.92922
   A38        1.90585   0.00252   0.00000   0.01727   0.01712   1.92297
   A39        1.91051   0.00141   0.00000   0.01365   0.01362   1.92413
   A40        1.90602   0.00016   0.00000  -0.00266  -0.00248   1.90354
   A41        1.91110  -0.00012   0.00000  -0.00455  -0.00449   1.90661
   A42        1.88062  -0.00089   0.00000  -0.00398  -0.00418   1.87644
   A43        1.84677   0.00452   0.00000   0.02439   0.02444   1.87121
   A44        1.94036  -0.00458   0.00000  -0.03396  -0.03436   1.90600
   A45        1.97933   0.00195   0.00000   0.01770   0.01803   1.99736
   A46        1.88067   0.00227   0.00000   0.02985   0.03019   1.91086
   A47        1.89238  -0.00475   0.00000  -0.03043  -0.03064   1.86174
   A48        1.91980   0.00074   0.00000  -0.00547  -0.00526   1.91454
   A49        2.07929  -0.00335   0.00000  -0.00589  -0.00625   2.07303
   A50        2.25301  -0.00616   0.00000  -0.02512  -0.02525   2.22776
   A51        1.97842   0.00618   0.00000   0.02975   0.02919   2.00761
   A52        2.05173  -0.00001   0.00000  -0.00437  -0.00492   2.04682
    D1       -3.03514  -0.00048   0.00000  -0.03118  -0.03061  -3.06575
    D2        0.14414   0.00057   0.00000   0.00000  -0.00000   0.14414
    D3        0.12471  -0.00188   0.00000  -0.07292  -0.07263   0.05207
    D4       -2.97920  -0.00083   0.00000  -0.04174  -0.04202  -3.02122
    D5        3.07322   0.00041   0.00000   0.01424   0.01431   3.08753
    D6       -0.01896  -0.00040   0.00000  -0.00508  -0.00512  -0.02408
    D7       -0.11076  -0.00112   0.00000  -0.02196  -0.02227  -0.13303
    D8        3.08025  -0.00193   0.00000  -0.04127  -0.04171   3.03854
    D9       -2.69878  -0.00205   0.00000  -0.04749  -0.04796  -2.74675
   D10        0.43692   0.00035   0.00000   0.00794   0.00773   0.44465
   D11        0.48511  -0.00046   0.00000  -0.01113  -0.01102   0.47409
   D12       -2.66238   0.00194   0.00000   0.04431   0.04467  -2.61770
   D13       -0.12803   0.00008   0.00000   0.02565   0.02588  -0.10215
   D14        2.67542   0.00391   0.00000   0.07290   0.07193   2.74735
   D15        2.96546   0.00086   0.00000   0.04443   0.04478   3.01024
   D16       -0.51427   0.00469   0.00000   0.09167   0.09083  -0.42345
   D17       -2.48469  -0.00083   0.00000  -0.01987  -0.01950  -2.50419
   D18        1.76486  -0.00225   0.00000  -0.02828  -0.02805   1.73682
   D19       -0.47759  -0.00002   0.00000  -0.00583  -0.00591  -0.48350
   D20        0.95876  -0.00006   0.00000  -0.03815  -0.03859   0.92017
   D21       -1.07487  -0.00149   0.00000  -0.04656  -0.04713  -1.12200
   D22        2.96586   0.00074   0.00000  -0.02411  -0.02499   2.94087
   D23        2.94819   0.00166   0.00000   0.02218   0.02198   2.97017
   D24       -1.22267   0.00094   0.00000   0.01883   0.01865  -1.20402
   D25        0.85436  -0.00107   0.00000  -0.00062  -0.00070   0.85366
   D26        0.92218   0.00307   0.00000   0.03841   0.03840   0.96058
   D27        3.03451   0.00235   0.00000   0.03506   0.03507   3.06958
   D28       -1.17164   0.00034   0.00000   0.01562   0.01571  -1.15593
   D29       -1.08030   0.00172   0.00000   0.00949   0.00952  -1.07078
   D30        1.03203   0.00100   0.00000   0.00614   0.00619   1.03822
   D31        3.10906  -0.00101   0.00000  -0.01330  -0.01317   3.09590
   D32       -2.90172  -0.00109   0.00000  -0.01154  -0.01126  -2.91299
   D33       -0.86464   0.00187   0.00000   0.02060   0.02046  -0.84417
   D34        1.30938   0.00072   0.00000   0.00000  -0.00001   1.30937
   D35       -0.90135  -0.00185   0.00000  -0.02031  -0.02014  -0.92149
   D36        1.13574   0.00111   0.00000   0.01183   0.01159   1.14733
   D37       -2.97343  -0.00005   0.00000  -0.00877  -0.00888  -2.98232
   D38        1.10257   0.00097   0.00000   0.01192   0.01205   1.11461
   D39        3.13965   0.00392   0.00000   0.04406   0.04378  -3.09976
   D40       -0.96952   0.00277   0.00000   0.02346   0.02330  -0.94622
   D41        0.95665   0.00070   0.00000   0.00000   0.00000   0.95665
   D42        3.08228   0.00069   0.00000   0.00885   0.00881   3.09109
   D43       -1.13757  -0.00106   0.00000  -0.01557  -0.01554  -1.15311
   D44       -1.15802   0.00166   0.00000   0.01515   0.01521  -1.14281
   D45        0.96761   0.00165   0.00000   0.02400   0.02402   0.99163
   D46        3.03094  -0.00010   0.00000  -0.00042  -0.00032   3.03062
   D47        3.06151   0.00057   0.00000   0.00310   0.00306   3.06457
   D48       -1.09605   0.00056   0.00000   0.01195   0.01186  -1.08418
   D49        0.96729  -0.00119   0.00000  -0.01247  -0.01248   0.95480
   D50       -0.92193  -0.00069   0.00000   0.00000   0.00000  -0.92193
   D51        1.18323  -0.00128   0.00000  -0.01024  -0.01026   1.17297
   D52       -3.04858  -0.00078   0.00000  -0.00682  -0.00685  -3.05544
   D53       -3.04920   0.00011   0.00000  -0.00074  -0.00072  -3.04992
   D54       -0.94404  -0.00048   0.00000  -0.01098  -0.01098  -0.95503
   D55        1.10733   0.00002   0.00000  -0.00755  -0.00758   1.09975
   D56        1.17617   0.00019   0.00000   0.00701   0.00705   1.18321
   D57       -3.00186  -0.00040   0.00000  -0.00323  -0.00321  -3.00507
   D58       -0.95049   0.00010   0.00000   0.00020   0.00019  -0.95030
   D59        0.98691  -0.00063   0.00000  -0.01093  -0.01099   0.97593
   D60        3.09626  -0.00068   0.00000  -0.01503  -0.01519   3.08107
   D61       -1.13197   0.00053   0.00000  -0.00187  -0.00185  -1.13382
   D62       -1.11581  -0.00115   0.00000  -0.01271  -0.01271  -1.12852
   D63        0.99353  -0.00120   0.00000  -0.01680  -0.01691   0.97662
   D64        3.04849   0.00001   0.00000  -0.00365  -0.00357   3.04492
   D65        3.11481  -0.00012   0.00000  -0.00107  -0.00109   3.11372
   D66       -1.05903  -0.00017   0.00000  -0.00517  -0.00529  -1.06432
   D67        0.99592   0.00104   0.00000   0.00798   0.00805   1.00398
   D68       -1.05080  -0.00037   0.00000  -0.00239  -0.00231  -1.05311
   D69       -3.12781   0.00145   0.00000   0.00939   0.00903  -3.11878
   D70        1.07806   0.00193   0.00000   0.01599   0.01590   1.09396
   D71        3.12314  -0.00170   0.00000  -0.00991  -0.00976   3.11337
   D72        1.04613   0.00013   0.00000   0.00187   0.00158   1.04771
   D73       -1.03119   0.00060   0.00000   0.00847   0.00845  -1.02274
   D74        1.06774  -0.00065   0.00000  -0.00091  -0.00072   1.06703
   D75       -1.00926   0.00118   0.00000   0.01088   0.01063  -0.99864
   D76       -3.08658   0.00165   0.00000   0.01748   0.01750  -3.06908
   D77       -1.17217   0.00320   0.00000   0.00000  -0.00001  -1.17218
   D78        3.06540  -0.00045   0.00000  -0.02086  -0.02059   3.04481
   D79        1.01293  -0.00082   0.00000  -0.03595  -0.03616   0.97677
   D80        0.13588   0.00114   0.00000   0.01856   0.01810   0.15398
   D81       -2.99961  -0.00137   0.00000  -0.03894  -0.03877  -3.03838
         Item               Value     Threshold  Converged?
 Maximum Force            0.037608     0.000450     NO 
 RMS     Force            0.006349     0.000300     NO 
 Maximum Displacement     0.283237     0.001800     NO 
 RMS     Displacement     0.054482     0.001200     NO 
 Predicted change in Energy=-1.196619D-02
 GradGradGradGradGradGradGradGradGradGradGradGradGradGradGradGradGradGrad

                          Input orientation:                          
 ---------------------------------------------------------------------
 Center     Atomic      Atomic             Coordinates (Angstroms)
 Number     Number       Type             X           Y           Z
 ---------------------------------------------------------------------
      1          8           0       -3.477786   -1.435792   -0.225008
      2          7           0       -3.131269   -0.259045   -0.043513
      3          8           0       -3.889407    0.702991    0.152873
      4          6           0       -1.685829   -0.007394   -0.033158
      5          6           0       -1.316950    1.279944    0.260732
      6          7           0       -0.064508    1.759538    0.391613
      7          6           0        1.194894    1.008810    0.369387
      8          1           0        1.829286    1.521187    1.111044
      9          6           0        1.927458    1.052732   -0.967983
     10          6           0        3.326368    0.449496   -0.796116
     11          6           0        3.261364   -0.962996   -0.203798
     12          6           0        2.440445   -0.998436    1.085176
     13          6           0        1.032653   -0.439945    0.842076
     14          1           0        0.464978   -0.451739    1.785307
     15          7           0        0.393090   -1.324019   -0.128291
     16          6           0       -0.846417   -1.130124   -0.421251
     17          1           0       -2.105887    2.007638    0.437252
     18          1           0        0.063161    2.757895    0.260641
     19          1           0        1.358297    0.487228   -1.713991
     20          1           0        1.996359    2.091333   -1.318837
     21          1           0        3.839273    0.430604   -1.764300
     22          1           0        3.915340    1.097352   -0.131734
     23          1           0        2.796529   -1.639831   -0.929026
     24          1           0        4.273203   -1.338146   -0.008889
     25          1           0        2.358718   -2.027286    1.453051
     26          1           0        2.934696   -0.406265    1.866890
     27          1           0       -1.327047   -1.862711   -1.072147
 ---------------------------------------------------------------------
                    Distance matrix (angstroms):
                    1          2          3          4          5
     1  O    0.000000
     2  N    1.240060   0.000000
     3  O    2.210570   1.240505   0.000000
     4  C    2.299616   1.467219   2.322716   0.000000
     5  C    3.504337   2.398500   2.638568   1.371016   0.000000
     6  N    4.716018   3.697166   3.975317   2.435398   1.347499
     7  C    5.306913   4.526989   5.098090   3.081117   2.528771
     8  H    6.220432   5.395307   5.855851   4.000225   3.268032
     9  C    5.996785   5.307176   5.934186   3.879899   3.476716
    10  C    7.083571   6.539840   7.282324   5.090479   4.833940
    11  C    6.755748   6.433273   7.350936   5.041529   5.119330
    12  C    6.077279   5.732768   6.620504   4.388505   4.470877
    13  C    4.740721   4.260897   5.099802   2.888474   2.969279
    14  H    4.533775   4.039147   4.791546   2.851356   2.915189
    15  N    3.873697   3.682725   4.746325   2.462611   3.139459
    16  C    2.656322   2.474270   3.598571   1.454562   2.548515
    17  H    3.765356   2.533850   2.227986   2.111419   1.087713
    18  H    5.510098   4.404409   4.456124   3.285135   2.022139
    19  H    5.413203   4.848053   5.574059   3.512343   3.418315
    20  H    6.603282   5.783018   6.223799   4.429011   3.759177
    21  H    7.706634   7.212848   7.967574   5.806501   5.604353
    22  H    7.815614   7.176509   7.819885   5.709928   5.250165
    23  H    6.316985   6.150568   7.166663   4.853758   5.182791
    24  H    7.754617   7.482771   8.415499   6.105863   6.178747
    25  H    6.101682   5.958720   6.941466   4.758901   5.086250
    26  H    6.823188   6.361387   7.122969   5.011840   4.847633
    27  H    2.350656   2.623938   3.827426   2.156484   3.413642
                    6          7          8          9         10
     6  N    0.000000
     7  C    1.466349   0.000000
     8  H    2.039815   1.102289   0.000000
     9  C    2.513166   1.525496   2.133411   0.000000
    10  C    3.824258   2.492872   2.650856   1.533095   0.000000
    11  C    4.339139   2.913221   3.154493   2.535043   1.533036
    12  C    3.789754   2.468357   2.592814   2.947186   2.533895
    13  C    2.498881   1.532530   2.133778   2.510991   2.955657
    14  H    2.666924   2.161206   2.491667   3.461631   3.957717
    15  N    3.160382   2.516478   3.419622   2.950986   3.492201
    16  C    3.101979   3.060571   4.066542   3.571857   4.477483
    17  H    2.056907   3.449264   4.021967   4.376575   5.784324
    18  H    1.014974   2.086132   2.317721   2.809395   4.134485
    19  H    2.841956   2.153882   3.044951   1.095567   2.171916
    20  H    2.698685   2.159699   2.501460   1.098425   2.176646
    21  H    4.653335   3.446691   3.673830   2.162452   1.095814
    22  H    4.068362   2.767632   2.464905   2.157076   1.099095
    23  H    4.635226   3.356547   3.884518   2.829611   2.159555
    24  H    5.345258   3.889381   3.924636   3.484061   2.170688
    25  H    4.619384   3.427344   3.604015   3.941307   3.482749
    26  H    3.982759   2.696639   2.346978   3.343607   2.824418
    27  H    4.105762   4.084585   5.116594   4.370636   5.203533
                   11         12         13         14         15
    11  C    0.000000
    12  C    1.528600   0.000000
    13  C    2.516861   1.533912   0.000000
    14  H    3.469539   2.165995   1.100945   0.000000
    15  N    2.891892   2.402118   1.460219   2.104257   0.000000
    16  C    4.116927   3.618028   2.367118   2.654969   1.288332
    17  H    6.167901   5.488663   4.000623   3.804620   4.202935
    18  H    4.928412   4.521212   3.391779   3.576006   4.113654
    19  H    2.829399   3.348668   2.738461   3.731590   2.593585
    20  H    3.488907   3.939944   3.464916   4.295120   3.956324
    21  H    2.170545   3.481147   3.927870   4.976355   4.198977
    22  H    2.162848   2.836989   3.409028   4.240251   4.274259
    23  H    1.095506   2.143640   2.772686   3.770319   2.552927
    24  H    1.096606   2.161338   3.468727   4.302027   3.881976
    25  H    2.166248   1.095693   2.156708   2.485759   2.618954
    26  H    2.168966   1.098193   2.160821   2.471484   3.358986
    27  H    4.755737   4.426625   3.355100   3.656124   2.034680
                   16         17         18         19         20
    16  C    0.000000
    17  H    3.488387   0.000000
    18  H    4.050803   2.301922   0.000000
    19  H    3.024528   4.352018   3.276046   0.000000
    20  H    4.389171   4.463102   2.583856   1.770994   0.000000
    21  H    5.118139   6.532901   4.876032   2.482132   2.520473
    22  H    5.264959   6.116170   4.213151   3.068266   2.465704
    23  H    3.713313   6.261344   5.312872   2.684969   3.835857
    24  H    5.140412   7.217071   5.880022   3.838756   4.319873
    25  H    3.819791   6.102881   5.439612   4.165786   4.977718
    26  H    4.478435   5.768732   4.564829   4.013237   4.155397
    27  H    1.091492   4.226640   5.005897   3.625638   5.171107
                   21         22         23         24         25
    21  H    0.000000
    22  H    1.765109   0.000000
    23  H    2.464082   3.062610   0.000000
    24  H    2.529475   2.464712   1.765852   0.000000
    25  H    4.310987   3.833793   2.452772   2.505481   0.000000
    26  H    3.834600   2.686452   3.059073   2.485669   1.769384
    27  H    5.694667   6.093354   4.132074   5.724377   4.470858
                   26         27
    26  H    0.000000
    27  H    5.377883   0.000000
 Symmetry turned off by external request.
 Stoichiometry    C9H13N3O2
 Framework group  C1[X(C9H13N3O2)]
 Deg. of freedom    75
 Full point group                 C1      NOp   1
 Rotational constants (GHZ):           1.6804133           0.4213923           0.3717090
 Standard basis: 6-31G(d) (6D, 7F)
   236 basis functions,   444 primitive gaussians,   236 cartesian basis functions
    52 alpha electrons       52 beta electrons
       nuclear repulsion energy       931.3686754418 Hartrees.
 NAtoms=   27 NActive=   27 NUniq=   27 SFac= 1.00D+00 NAtFMM=   60 NAOKFM=F Big=F
 Integral buffers will be    131072 words long.
 Raffenetti 1 integral format.
 Two-electron integral symmetry is turned off.
 One-electron integrals computed using PRISM.
 NBasis=   236 RedAO= T EigKep=  1.03D-03  NBF=   236
 NBsUse=   236 1.00D-06 EigRej= -1.00D+00 NBFU=   236
 Initial guess from the checkpoint file:  "/home/alexey/tmp/Gau-1288735.chk"
 B after Tr=     0.053643    0.001166   -0.000356
         Rot=    0.999999   -0.000966    0.000831    0.000419 Ang=  -0.15 deg.
 ExpMin= 1.61D-01 ExpMax= 5.48D+03 ExpMxC= 8.25D+02 IAcc=3 IRadAn=         5 AccDes= 0.00D+00
 Harris functional with IExCor=  205 and IRadAn=       5 diagonalized for initial guess.
 HarFok:  IExCor=  205 AccDes= 0.00D+00 IRadAn=         5 IDoV= 1 UseB2=F ITyADJ=14
 ICtDFT=  3500011 ScaDFX=  1.000000  1.000000  1.000000  1.000000
 FoFCou: FMM=F IPFlag=           0 FMFlag=      100000 FMFlg1=           0
         NFxFlg=           0 DoJE=T BraDBF=F KetDBF=T FulRan=T
         wScrn=  0.000000 ICntrl=       500 IOpCl=  0 I1Cent=   200000004 NGrid=           0
         NMat0=    1 NMatS0=      1 NMatT0=    0 NMatD0=    1 NMtDS0=    0 NMtDT0=    0
 Symmetry not used in FoFCou.
 Keep R1 ints in memory in canonical form, NReq=397720213.
 Requested convergence on RMS density matrix=1.00D-08 within 128 cycles.
 Requested convergence on MAX density matrix=1.00D-06.
 Requested convergence on             energy=1.00D-06.
 No special actions if energy rises.
 SCF Done:  E(RHF) =  -661.297950875     A.U. after   15 cycles
            NFock= 15  Conv=0.50D-08     -V/T= 2.0025
 ExpMin= 1.61D-01 ExpMax= 5.48D+03 ExpMxC= 8.25D+02 IAcc=3 IRadAn=         5 AccDes= 0.00D+00
 HarFok:  IExCor=  205 AccDes= 0.00D+00 IRadAn=         5 IDoV=-2 UseB2=F ITyADJ=14
 ICtDFT= 12500011 ScaDFX=  1.000000  1.000000  1.000000  1.000000
 Range of M.O.s used for correlation:    15   236
 NBasis=   236 NAE=    52 NBE=    52 NFC=    14 NFV=     0
 NROrb=    222 NOA=    38 NOB=    38 NVA=   184 NVB=   184
 Fully direct method using O(ONN) memory.
 JobTyp=1 Pass  1:  I=  15 to  52 NPSUse=  4 ParTrn=T ParDer=T DoDerP=T.
 Spin components of T(2) and E(2):
     alpha-alpha T2 =       0.9132343236D-01 E2=     -0.2723331368D+00
     alpha-beta  T2 =       0.4917919263D+00 E2=     -0.1488368623D+01
     beta-beta   T2 =       0.9132343236D-01 E2=     -0.2723331368D+00
 ANorm=    0.1294001078D+01
 E2 =    -0.2033034896D+01 EUMP2 =    -0.66333098577114D+03
          IDoAtm=111111111111111111111111111
          Differentiating once with respect to electric field.
                with respect to dipole field.
          Differentiating once with respect to nuclear coordinates.
 Keep R1 ints in memory in canonical form, NReq=397723379.
          There are     1 degrees of freedom in the 1st order CPHF.  IDoFFX=0 NUNeed=     1.
 LinEq1:  Iter=  0 NonCon=     1 RMS=4.58D-03 Max=1.07D-01 NDo=     1
 AX will form     1 AO Fock derivatives at one time.
 LinEq1:  Iter=  1 NonCon=     1 RMS=1.54D-03 Max=2.67D-02 NDo=     1
 LinEq1:  Iter=  2 NonCon=     1 RMS=6.44D-04 Max=1.80D-02 NDo=     1
 LinEq1:  Iter=  3 NonCon=     1 RMS=2.83D-04 Max=8.66D-03 NDo=     1
[...]
    27  H    4.724003   4.418610   3.356667   3.656521   2.029399
                   16         17         18         19         20
    16  C    0.000000
    17  H    3.464041   0.000000
    18  H    4.088451   2.235757   0.000000
    19  H    2.990723   4.303528   3.511993   0.000000
    20  H    4.375203   4.449406   2.882123   1.768536   0.000000
    21  H    5.096492   6.511315   5.086614   2.499148   2.521029
    22  H    5.248732   6.100586   4.313367   3.070216   2.461428
    23  H    3.694851   6.235005   5.421238   2.704239   3.842939
    24  H    5.133727   7.200846   5.936734   3.849638   4.317108
    25  H    3.821470   6.088169   5.369654   4.171572   4.985037
    26  H    4.495187   5.781067   4.485151   4.035975   4.182185
    27  H    1.089674   4.215549   5.079562   3.583578   5.148179
                   21         22         23         24         25
    21  H    0.000000
    22  H    1.758857   0.000000
    23  H    2.469455   3.062285   0.000000
    24  H    2.517348   2.459893   1.764582   0.000000
    25  H    4.311994   3.839496   2.444105   2.519665   0.000000
    26  H    3.846679   2.704335   3.060423   2.491752   1.767987
    27  H    5.653035   6.060557   4.090365   5.694685   4.454353
                   26         27
    26  H    0.000000
    27  H    5.378471   0.000000
 Symmetry turned off by external request.
 Stoichiometry    C9H13N3O2
 Framework group  C1[X(C9H13N3O2)]
 Deg. of freedom    75
 Full point group                 C1      NOp   1
 Rotational constants (GHZ):           1.6800318           0.4193584           0.3721486

 **********************************************************************

            Population analysis using the SCF Density.

 **********************************************************************

 Alpha  occ. eigenvalues --  -20.59236 -20.58903 -15.84722 -15.64137 -15.56111
 Alpha  occ. eigenvalues --  -11.35019 -11.29622 -11.29559 -11.28628 -11.27134
 Alpha  occ. eigenvalues --  -11.23728 -11.23208 -11.22691 -11.22089  -1.57116
 Alpha  occ. eigenvalues --   -1.36709  -1.30977  -1.23066  -1.14703  -1.09818
 Alpha  occ. eigenvalues --   -1.02806  -1.01308  -0.94481  -0.89685  -0.85565
 Alpha  occ. eigenvalues --   -0.82448  -0.78608  -0.77412  -0.75202  -0.72019
 Alpha  occ. eigenvalues --   -0.69771  -0.69438  -0.67820  -0.64893  -0.63778
 Alpha  occ. eigenvalues --   -0.62367  -0.60282  -0.57701  -0.57001  -0.55077
 Alpha  occ. eigenvalues --   -0.54582  -0.50761  -0.50108  -0.48656  -0.48102
 Alpha  occ. eigenvalues --   -0.47372  -0.46146  -0.46045  -0.43677  -0.41695
 Alpha  occ. eigenvalues --   -0.39847  -0.33829
 Alpha virt. eigenvalues --    0.07464   0.11799   0.17307   0.21848   0.24113
 Alpha virt. eigenvalues --    0.25665   0.27134   0.28695   0.29044   0.29635
 Alpha virt. eigenvalues --    0.30683   0.31798   0.32036   0.32767   0.33951
 Alpha virt. eigenvalues --    0.34386   0.35851   0.37313   0.38581   0.40293
 Alpha virt. eigenvalues --    0.41387   0.42444   0.45025   0.46117   0.46731
 Alpha virt. eigenvalues --    0.47078   0.49001   0.53995   0.57580   0.59406
 Alpha virt. eigenvalues --    0.63914   0.69543   0.69907   0.72862   0.74243
 Alpha virt. eigenvalues --    0.74866   0.75781   0.76677   0.78659   0.79442
 Alpha virt. eigenvalues --    0.81387   0.84691   0.85717   0.85807   0.88530
 Alpha virt. eigenvalues --    0.89423   0.91051   0.92113   0.92854   0.94527
 Alpha virt. eigenvalues --    0.95643   0.98040   0.99639   1.01677   1.02472
 Alpha virt. eigenvalues --    1.03152   1.05874   1.06969   1.07902   1.09014
 Alpha virt. eigenvalues --    1.10284   1.11420   1.11855   1.12443   1.13916
 Alpha virt. eigenvalues --    1.14765   1.14990   1.15831   1.16903   1.18726
 Alpha virt. eigenvalues --    1.19138   1.21338   1.22577   1.23916   1.24538
 Alpha virt. eigenvalues --    1.24825   1.26040   1.26911   1.27485   1.29557
 Alpha virt. eigenvalues --    1.30008   1.33128   1.36070   1.37181   1.40863
 Alpha virt. eigenvalues --    1.41855   1.46500   1.48742   1.51694   1.54292
 Alpha virt. eigenvalues --    1.56369   1.58778   1.59560   1.63470   1.65625
 Alpha virt. eigenvalues --    1.68030   1.68629   1.72989   1.75226   1.77370
 Alpha virt. eigenvalues --    1.81580   1.84600   1.87684   1.90654   1.93492
 Alpha virt. eigenvalues --    1.95812   1.96957   1.99719   2.01571   2.02523
 Alpha virt. eigenvalues --    2.05104   2.05608   2.08498   2.09559   2.12395
 Alpha virt. eigenvalues --    2.13264   2.15298   2.18822   2.20014   2.22450
 Alpha virt. eigenvalues --    2.22637   2.24494   2.25493   2.28217   2.29550
 Alpha virt. eigenvalues --    2.31997   2.33726   2.34702   2.36401   2.38466
 Alpha virt. eigenvalues --    2.40479   2.41928   2.43867   2.45140   2.47364
 Alpha virt. eigenvalues --    2.50720   2.51949   2.53117   2.55572   2.61504
 Alpha virt. eigenvalues --    2.62311   2.65193   2.67627   2.70318   2.70495
 Alpha virt. eigenvalues --    2.72274   2.72649   2.76987   2.78443   2.83804
 Alpha virt. eigenvalues --    2.88565   2.88947   2.92945   2.93137   2.96059
 Alpha virt. eigenvalues --    2.99440   3.01343   3.04313   3.05725   3.07677
 Alpha virt. eigenvalues --    3.09417   3.15048   3.21213   3.25217   3.27459
 Alpha virt. eigenvalues --    3.33446   3.37785   3.38784   3.52165   3.65796
 Alpha virt. eigenvalues --    4.13675   4.28074   4.34719   4.38922   4.46296
 Alpha virt. eigenvalues --    4.56304   4.61872   4.62354   4.73466   4.79739
 Alpha virt. eigenvalues --    4.99415   5.00900   5.05024   5.11167
          Condensed to atoms (all electrons):
               1          2          3          4          5          6
     1  O    8.316128   0.306968  -0.082544  -0.085475   0.004639  -0.000016
     2  N    0.306968   5.722323   0.301251   0.264175  -0.053645   0.000970
     3  O   -0.082544   0.301251   8.353650  -0.092661   0.003643   0.000785
     4  C   -0.085475   0.264175  -0.092661   5.225646   0.560334  -0.047285
     5  C    0.004639  -0.053645   0.003643   0.560334   4.709970   0.317426
     6  N   -0.000016   0.000970   0.000785  -0.047285   0.317426   7.195581
     7  C    0.000004  -0.000140   0.000002   0.004626  -0.030206   0.169255
     8  H   -0.000000   0.000002  -0.000000  -0.000261   0.003094  -0.050663
     9  C   -0.000000  -0.000004  -0.000000   0.000855   0.000627  -0.061670
    10  C    0.000000   0.000000   0.000000  -0.000038  -0.000052   0.003749
    11  C   -0.000000  -0.000000  -0.000000  -0.000028   0.000025  -0.000190
    12  C   -0.000000   0.000002  -0.000000  -0.000127  -0.000176   0.003873
    13  C   -0.000025  -0.000039  -0.000004  -0.011558  -0.000584  -0.047692
    14  H   -0.000004  -0.000105   0.000001   0.002647   0.006078  -0.006959
    15  N    0.000382   0.002363  -0.000016  -0.063527  -0.006397   0.001597
    16  C    0.000839  -0.027274   0.002547   0.328510  -0.050318  -0.001854
    17  H    0.000220  -0.007228   0.017386  -0.023140   0.374517  -0.034185
    18  H    0.000001  -0.000050   0.000012   0.001507  -0.031447   0.338677
    19  H    0.000001  -0.000004   0.000000  -0.001225   0.001232  -0.000353
    20  H    0.000000  -0.000000   0.000000  -0.000079   0.000153  -0.000428
    21  H   -0.000000   0.000000   0.000000   0.000001   0.000001  -0.000077
    22  H   -0.000000   0.000000  -0.000000  -0.000000  -0.000003  -0.000117
    23  H    0.000000  -0.000000   0.000000   0.000041  -0.000000  -0.000031
    24  H    0.000000   0.000000   0.000000   0.000000  -0.000000   0.000006
    25  H    0.000000  -0.000000   0.000000   0.000024   0.000000  -0.000090
    26  H    0.000000  -0.000000   0.000000   0.000006  -0.000002  -0.000060
    27  H    0.006128  -0.000880   0.000018  -0.063397   0.002215   0.000017
               7          8          9         10         11         12
     1  O    0.000004  -0.000000  -0.000000   0.000000  -0.000000  -0.000000
     2  N   -0.000140   0.000002  -0.000004   0.000000  -0.000000   0.000002
     3  O    0.000002  -0.000000  -0.000000   0.000000  -0.000000  -0.000000
     4  C    0.004626  -0.000261   0.000855  -0.000038  -0.000028  -0.000127
     5  C   -0.030206   0.003094   0.000627  -0.000052   0.000025  -0.000176
     6  N    0.169255  -0.050663  -0.061670   0.003749  -0.000190   0.003873
     7  C    5.017599   0.418410   0.350536  -0.054677  -0.009031  -0.061075
     8  H    0.418410   0.538069  -0.055043   0.000777  -0.000325  -0.002230
     9  C    0.350536  -0.055043   5.158241   0.324776  -0.050413  -0.005343
    10  C   -0.054677   0.000777   0.324776   5.119317   0.337003  -0.060997
    11  C   -0.009031  -0.000325  -0.050413   0.337003   5.119933   0.335976
    12  C   -0.061075  -0.002230  -0.005343  -0.060997   0.335976   5.118643
    13  C    0.338605  -0.037931  -0.060250  -0.000283  -0.050693   0.371988
    14  H   -0.046597  -0.000745   0.004423  -0.000405   0.004196  -0.036325
    15  N   -0.057959   0.003900  -0.014619   0.001561  -0.013064  -0.082066
    16  C   -0.001774   0.000009  -0.001270  -0.000029   0.000029   0.002608
    17  H    0.001616  -0.000045  -0.000070   0.000001   0.000000   0.000000
    18  H   -0.021214  -0.004473   0.001328  -0.000083   0.000004  -0.000114
    19  H   -0.036852   0.004361   0.390225  -0.032071  -0.002212   0.000689
    20  H   -0.042415  -0.002077   0.399486  -0.035302   0.003931  -0.000415
    21  H    0.004599  -0.000076  -0.036358   0.402433  -0.034896   0.004349
    22  H   -0.004848   0.003559  -0.046956   0.397753  -0.045403  -0.001021
    23  H    0.000577   0.000035  -0.001958  -0.039017   0.399179  -0.037865
    24  H   -0.000130  -0.000102   0.004388  -0.038436   0.402341  -0.038692
    25  H    0.005152  -0.000025  -0.000423   0.004190  -0.033399   0.398274
    26  H   -0.003907   0.001686   0.000969  -0.002233  -0.041481   0.396734
    27  H   -0.000407   0.000009  -0.000058   0.000007   0.000012  -0.000036
              13         14         15         16         17         18
     1  O   -0.000025  -0.000004   0.000382   0.000839   0.000220   0.000001
     2  N   -0.000039  -0.000105   0.002363  -0.027274  -0.007228  -0.000050
     3  O   -0.000004   0.000001  -0.000016   0.002547   0.017386   0.000012
     4  C   -0.011558   0.002647  -0.063527   0.328510  -0.023140   0.001507
     5  C   -0.000584   0.006078  -0.006397  -0.050318   0.374517  -0.031447
     6  N   -0.047692  -0.006959   0.001597  -0.001854  -0.034185   0.338677
     7  C    0.338605  -0.046597  -0.057959  -0.001774   0.001616  -0.021214
     8  H   -0.037931  -0.000745   0.003900   0.000009  -0.000045  -0.004473
     9  C   -0.060250   0.004423  -0.014619  -0.001270  -0.000070   0.001328
    10  C   -0.000283  -0.000405   0.001561  -0.000029   0.000001  -0.000083
    11  C   -0.050693   0.004196  -0.013064   0.000029   0.000000   0.000004
    12  C    0.371988  -0.036325  -0.082066   0.002608   0.000000  -0.000114
    13  C    5.040235   0.403082   0.244788  -0.071084  -0.000008   0.002970
    14  H    0.403082   0.526784  -0.037369  -0.004542   0.000093  -0.000108
    15  N    0.244788  -0.037369   6.965122   0.585202  -0.000080  -0.000132
    16  C   -0.071084  -0.004542   0.585202   4.709889   0.002012  -0.000197
    17  H   -0.000008   0.000093  -0.000080   0.002012   0.376489  -0.002817
    18  H    0.002970  -0.000108  -0.000132  -0.000197  -0.002817   0.310601
    19  H   -0.007548   0.000106   0.007695   0.003002   0.000016  -0.000149
    20  H    0.004340  -0.000066   0.000126  -0.000036   0.000002   0.000806
    21  H   -0.000433   0.000010  -0.000041   0.000004  -0.000000   0.000001
    22  H    0.000045  -0.000055   0.000019  -0.000002   0.000000   0.000001
    23  H   -0.007526   0.000003   0.008592   0.000106   0.000000   0.000000
    24  H    0.004700  -0.000057   0.000136   0.000007   0.000000  -0.000000
    25  H   -0.035563  -0.002818   0.000409  -0.000022  -0.000000   0.000002
    26  H   -0.047418  -0.001046   0.004900  -0.000061   0.000000  -0.000000
    27  H    0.005059  -0.000174  -0.040313   0.403667  -0.000079   0.000001
              19         20         21         22         23         24
     1  O    0.000001   0.000000  -0.000000  -0.000000   0.000000   0.000000
     2  N   -0.000004  -0.000000   0.000000   0.000000  -0.000000   0.000000
     3  O    0.000000   0.000000   0.000000  -0.000000   0.000000   0.000000
     4  C   -0.001225  -0.000079   0.000001  -0.000000   0.000041   0.000000
     5  C    0.001232   0.000153   0.000001  -0.000003  -0.000000  -0.000000
     6  N   -0.000353  -0.000428  -0.000077  -0.000117  -0.000031   0.000006
     7  C   -0.036852  -0.042415   0.004599  -0.004848   0.000577  -0.000130
     8  H    0.004361  -0.002077  -0.000076   0.003559   0.000035  -0.000102
     9  C    0.390225   0.399486  -0.036358  -0.046956  -0.001958   0.004388
    10  C   -0.032071  -0.035302   0.402433   0.397753  -0.039017  -0.038436
    11  C   -0.002212   0.003931  -0.034896  -0.045403   0.399179   0.402341
    12  C    0.000689  -0.000415   0.004349  -0.001021  -0.037865  -0.038692
    13  C   -0.007548   0.004340  -0.000433   0.000045  -0.007526   0.004700
    14  H    0.000106  -0.000066   0.000010  -0.000055   0.000003  -0.000057
    15  N    0.007695   0.000126  -0.000041   0.000019   0.008592   0.000136
    16  C    0.003002  -0.000036   0.000004  -0.000002   0.000106   0.000007
    17  H    0.000016   0.000002  -0.000000   0.000000   0.000000   0.000000
    18  H   -0.000149   0.000806   0.000001   0.000001   0.000000  -0.000000
    19  H    0.504944  -0.024737  -0.002787   0.003959   0.001514  -0.000066
    20  H   -0.024737   0.541156  -0.002692  -0.002990  -0.000045  -0.000083
    21  H   -0.002787  -0.002692   0.524029  -0.027403  -0.002898  -0.002242
    22  H    0.003959  -0.002990  -0.027403   0.571321   0.004137  -0.003656
    23  H    0.001514  -0.000045  -0.002898   0.004137   0.498948  -0.025449
    24  H   -0.000066  -0.000083  -0.002242  -0.003656  -0.025449   0.538122
    25  H   -0.000029   0.000012  -0.000087  -0.000080  -0.002317  -0.002292
    26  H    0.000019  -0.000030  -0.000081   0.002380   0.004067  -0.003034
    27  H    0.000083   0.000000  -0.000000   0.000000  -0.000035  -0.000000
              25         26         27
     1  O    0.000000   0.000000   0.006128
     2  N   -0.000000  -0.000000  -0.000880
     3  O    0.000000   0.000000   0.000018
     4  C    0.000024   0.000006  -0.063397
     5  C    0.000000  -0.000002   0.002215
     6  N   -0.000090  -0.000060   0.000017
     7  C    0.005152  -0.003907  -0.000407
     8  H   -0.000025   0.001686   0.000009
     9  C   -0.000423   0.000969  -0.000058
    10  C    0.004190  -0.002233   0.000007
    11  C   -0.033399  -0.041481   0.000012
    12  C    0.398274   0.396734  -0.000036
    13  C   -0.035563  -0.047418   0.005059
    14  H   -0.002818  -0.001046  -0.000174
    15  N    0.000409   0.004900  -0.040313
    16  C   -0.000022  -0.000061   0.403667
    17  H   -0.000000   0.000000  -0.000079
    18  H    0.000002  -0.000000   0.000001
    19  H   -0.000029   0.000019   0.000083
    20  H    0.000012  -0.000030   0.000000
    21  H   -0.000087  -0.000081  -0.000000
    22  H   -0.000080   0.002380   0.000000
    23  H   -0.002317   0.004067  -0.000035
    24  H   -0.002292  -0.003034  -0.000000
    25  H    0.506109  -0.024079  -0.000013
    26  H   -0.024079   0.562325   0.000001
    27  H   -0.000013   0.000001   0.439271
 Mulliken charges:
               1
     1  O   -0.467247
     2  N    0.491315
     3  O   -0.504070
     4  C    0.000430
     5  C    0.188875
     6  N   -0.780266
     7  C    0.060250
     8  H    0.180084
     9  C   -0.301421
    10  C   -0.327944
    11  C   -0.321493
    12  C   -0.306656
    13  C   -0.037173
    14  H    0.189952
    15  N   -0.511210
    16  C    0.120032
    17  H    0.295299
    18  H    0.404873
    19  H    0.190186
    20  H    0.161383
    21  H    0.174645
    22  H    0.149360
    23  H    0.199944
    24  H    0.164540
    25  H    0.187062
    26  H    0.150345
    27  H    0.248905
 Sum of Mulliken charges =  -0.00000
 Mulliken charges with hydrogens summed into heavy atoms:
               1
     1  O   -0.467247
     2  N    0.491315
     3  O   -0.504070
     4  C    0.000430
     5  C    0.484174
     6  N   -0.375394
     7  C    0.240334
     9  C    0.050149
    10  C   -0.003940
    11  C    0.042991
    12  C    0.030750
    13  C    0.152779
    15  N   -0.511210
    16  C    0.368937
 Electronic spatial extent (au):  <R**2>=           3005.2770
 Charge=              0.0000 electrons
 Dipole moment (field-independent basis, Debye):
    X=              5.4159    Y=              4.7961    Z=              1.2802  Tot=              7.3467
 Quadrupole moment (field-independent basis, Debye-Ang):
   XX=           -106.1408   YY=            -79.2235   ZZ=            -81.5009
   XY=             -1.7653   XZ=             -0.1279   YZ=              1.8584
 Traceless Quadrupole moment (field-independent basis, Debye-Ang):
   XX=            -17.1858   YY=              9.7316   ZZ=              7.4542
   XY=             -1.7653   XZ=             -0.1279   YZ=              1.8584
 Octapole moment (field-independent basis, Debye-Ang**2):
  XXX=             92.3921  YYY=             36.2755  ZZZ=             -1.4926  XYY=             -4.5784
  XXY=              9.5274  XXZ=              4.9055  XZZ=             -9.7639  YZZ=             -0.3972
  YYZ=              7.9911  XYZ=              0.2485
 Hexadecapole moment (field-independent basis, Debye-Ang**3):
 XXXX=          -3381.9660 YYYY=           -601.0452 ZZZZ=           -303.8029 XXXY=            -20.8489
 XXXZ=            -13.3193 YYYX=             -8.9156 YYYZ=             25.0430 ZZZX=              1.9532
 ZZZY=              7.1143 XXYY=           -627.7526 XXZZ=           -523.7770 YYZZ=           -157.3265
 XXYZ=             -4.2587 YYXZ=              1.7214 ZZXY=              4.7074
 N-N= 9.312409626635D+02 E-N=-3.409198494786D+03  KE= 6.596290114334D+02
 Unable to Open any file for archive entry.
 1\1\GINC-LOTUS\FOpt\RMP2-FC\6-31G(d)\C9H13N3O2\ALEXEY\01-Jul-2023\0\\#
 MP2/6-31G* SCF=Tight Opt=(ModRedun, MaxCycle=20 ) NoSymm\\MolName:\\0,
 1\O,-3.5067899708,-1.3903616716,-0.370270791\N,-3.1210475052,-0.232178
 3307,-0.1181285606\O,-3.8953124903,0.7288523893,0.0560176756\C,-1.6865
 93239,-0.0236750307,-0.0097218561\C,-1.3013126205,1.2608924616,0.27511
 01774\N,-0.0570117998,1.7503847184,0.3859588522\C,1.2057234929,1.02409
 14085,0.359090055\H,1.853590291,1.5530927189,1.0743427653\C,1.90912398
 02,1.0348493706,-0.9967879441\C,3.3074431441,0.4280862278,-0.832687432
 \C,3.259351846,-0.9678875343,-0.2058232103\C,2.4644434968,-0.978118644
 5,1.1016821017\C,1.0547857128,-0.4244199779,0.8651414442\H,0.478241081
 3,-0.4028878306,1.8035552395\N,0.4082153016,-1.3178855511,-0.090899468
 6\C,-0.8391146727,-1.1381020548,-0.3863154322\H,-2.096003849,1.9878271
 442,0.4189034195\H,0.0018493255,2.7355377363,0.6152473878\H,1.31479742
 53,0.4573280417,-1.7128472304\H,1.9751900689,2.0627104294,-1.374693638
 2\H,3.811322434,0.3897407219,-1.8052466757\H,3.9073440693,1.0944574555
 ,-0.1966036175\H,2.7815410459,-1.6647624558,-0.9014895381\H,4.27848701
 9,-1.3314701952,-0.0286681447\H,2.3789597832,-1.999927992,1.485819411\
 H,2.9744483128,-0.3800703466,1.8695288642\H,-1.3006616831,-1.893083208
 6,-1.0222138539\\Version=ES64L-G16RevC.02\HF=-661.3003604\MP2=-663.334
 6494\RMSD=4.157e-09\RMSF=1.751e-05\Dipole=1.9792547,1.6918645,0.470874
 4\PG=C01 [X(C9H13N3O2)]\\@
 The archive entry for this job was punched.


 NEVER TEACH A PIG TO SING.
 IT WASTES YOUR TIME AND ANNOYS THE PIG.
     -- SEEN ON A GREETING CARD
 Job cpu time:       0 days  1 hours 20 minutes 19.8 seconds.
 Elapsed time:       0 days  0 hours 24 minutes  7.3 seconds.
 File lengths (MBytes):  RWF=     36 Int=      0 D2E=      0 Chk=      7 Scr=      1
 Normal termination of Gaussian 16 at Sat Jul  1 08:17:26 2023.
