 Entering Gaussian System, Link 0=g16
 Initial command:
 /home/alexey/programs//g16/l1.exe "/home/alexey/tmp/Gau-1291912.inp" -scrdir="/home/alexey/tmp/"
 Entering Link 1 = /home/alexey/programs//g16/l1.exe PID=   1291914.
  
 Copyright (c) 1988-2021, Gaussian, Inc.  All Rights Reserved.
  
 This is part of the Gaussian(R) 16 program.  It is based on
 the Gaussian(R) 09 system (copyright 2009, Gaussian, Inc.),
 the Gaussian(R) 03 system (copyright 2003, Gaussian, Inc.),
 the Gaussian(R) 98 system (copyright 1998, Gaussian, Inc.),
 the Gaussian(R) 94 system (copyright 1995, Gaussian, Inc.),
 the Gaussian 92(TM) system (copyright 1992, Gaussian, Inc.),
 the Gaussian 90(TM) system (copyright 1990, Gaussian, Inc.),
 the Gaussian 88(TM) system (copyright 1988, Gaussian, Inc.),
 the Gaussian 86(TM) system (copyright 1986, Carnegie Mellon
 University), and the Gaussian 82(TM) system (copyright 1983,
 Carnegie Mellon University). Gaussian is a federally registered
 trademark of Gaussian, Inc.
  
 This software contains proprietary and confidential information,
 including trade secrets, belonging to Gaussian, Inc.
  
 This software is provided under written license and may be
 used, copied, transmitted, or stored only in accord with that
 written license.
  
 The following legend is applicable only to US Government
 contracts under FAR:
  
                    RESTRICTED RIGHTS LEGEND
  
 Use, reproduction and disclosure by the US Government is
 subject to restrictions as set forth in subparagraphs (a)
 and (c) of the Commercial Computer Software - Restricted
 Rights clause in FAR 52.227-19.
  
 Gaussian, Inc.
 340 Quinnipiac St., Bldg. 40, Wallingford CT 06492
  
  
 ---------------------------------------------------------------
 Warning -- This program may not be used in any manner that
 competes with the business of Gaussian, Inc. or will provide
 assistance to any competitor of Gaussian, Inc.  The licensee
 of this program is prohibited from giving any competitor of
 Gaussian, Inc. access to this program.  By using this program,
 the user acknowledges that Gaussian, Inc. is engaged in the
 business of creating and licensing software in the field of
 computational chemistry and represents and warrants to the
 licensee that it is not a competitor of Gaussian, Inc. and that
 it will not use this program in any manner prohibited above.
 ---------------------------------------------------------------
  

 Cite this work as:
 Gaussian 16, Revision C.02,
 M. J. Frisch, G. W. Trucks, H. B. Schlegel, G. E. Scuseria, 
 M. A. Robb, J. R. Cheeseman, G. Scalmani, V. Barone, 
 G. A. Petersson, H. Nakatsuji, X. Li, M. Caricato, A. V. Marenich, 
 J. Bloino, B. G. Janesko, R. Gomperts, B. Mennucci, H. P. Hratchian, 
 J. V. Ortiz, A. F. Izmaylov, J. L. Sonnenberg, D. Williams-Young, 
 F. Ding, F. Lipparini, F. Egidi, J. Goings, B. Peng, A. Petrone, 
 T. Henderson, D. Ranasinghe, V. G. Zakrzewski, J. Gao, N. Rega, 
 G. Zheng, W. Liang, M. Hada, M. Ehara, K. Toyota, R. Fukuda, 
 J. Hasegawa, M. Ishida, T. Nakajima, Y. Honda, O. Kitao, H. Nakai, 
 T. Vreven, K. Throssell, J. A. Montgomery, Jr., J. E. Peralta, 
 F. Ogliaro, M. J. Bearpark, J. J. Heyd, E. N. Brothers, K. N. Kudin, 
 V. N. Staroverov, T. A. Keith, R. Kobayashi, J. Normand, 
 K. Raghavachari, A. P. Rendell, J. C. Burant, S. S. Iyengar, 
 J. Tomasi, M. Cossi, J. M. Millam, M. Klene, C. Adamo, R. Cammi, 
 J. W. Ochterski, R. L. Martin, K. Morokuma, O. Farkas, 
 J. B. Foresman, and D. J. Fox, Gaussian, Inc., Wallingford CT, 2019.
 
 ******************************************
 Gaussian 16:  ES64L-G16RevC.02  7-Dec-2021
                 1-Jul-2023 
 ******************************************
 %mem=8GB
 %NPROCS=4
 Will use up to    4 processors via shared memory.
 %NoSave
 ---------------------------------------------------------
 #MP2/6-31G* SCF=Tight Opt=(ModRedun, MaxCycle=20 ) NoSymm
 ---------------------------------------------------------
 1/6=20,18=120,19=15,38=1/1,3;
 2/9=110,12=2,15=1,17=6,18=5,40=1/2;
 3/5=1,6=6,7=1,11=9,25=1,30=1,71=1/1,2,3;
 4//1;
 5/5=2,32=2,38=5/2;
 8/6=4,10=2/1;
 9/15=2,16=-3/6;
 10/5=1,31=1/2;
 6/7=2,8=2,9=2,10=2/1;
 7/12=2,30=1/1,2,3,16;
 1/6=20,18=20,19=15/3(2);
 2/9=110,15=1/2;
 99//99;
 2/9=110,15=1/2;
 3/5=1,6=6,7=1,11=9,25=1,30=1,71=1/1,2,3;
 4/5=5,16=3,69=1/1;
 5/5=2,32=2,38=5/2;
 8/6=4,10=2/1;
 9/15=2,16=-3/6;
 10/5=1,31=1/2;
 7/12=2,30=1/1,2,3,16;
 1/6=20,18=20,19=15/3(-8);
 2/9=110,15=1/2;
 6/7=2,8=2,9=2,10=2/1;
 99/9=10/99;
 --------
 MolName:
 --------
 Symbolic Z-matrix:
 Charge =  0 Multiplicity = 1
 8                    0    -3.61797  -1.44534  -0.18481 
 7                    0    -3.25795  -0.28065  -0.02258 
 8                    0    -4.03779   0.65914   0.13709 
 6                    0    -1.75771   0.00745  -0.04202 
 6                    0    -1.36971   1.31384   0.27324 
 7                    0    -0.08143   1.76881   0.3868 
 6                    0     1.19748   0.99574   0.35961 
 1                    0     1.85978   1.49247   1.11546 
 6                    0     1.96516   1.04808  -0.98489 
 6                    0     3.37622   0.46017  -0.79295 
 6                    0     3.31161  -0.95654  -0.20068 
 6                    0     2.46021  -0.99121   1.08687 
 6                    0     1.02435  -0.45361   0.83779 
 1                    0     0.47354  -0.49336   1.80676 
 7                    0     0.3697   -1.32098  -0.14435 
 6                    0    -0.87093  -1.11622  -0.4441 
 1                    0    -2.15696   2.05261   0.49754 
 1                    0     0.15062   2.75087   0.21949 
 1                    0     1.41707   0.47303  -1.76127 
 1                    0     2.05326   2.09849  -1.33495 
 1                    0     3.91323   0.43707  -1.76643 
 1                    0     3.95224   1.11253  -0.09921 
 1                    0     2.86551  -1.64438  -0.9541 
 1                    0     4.33872  -1.32166   0.0183 
 1                    0     2.3999   -2.038     1.45743 
 1                    0     2.95315  -0.38175   1.87305 
 1                    0    -1.37231  -1.86259  -1.07908 
 
 The following ModRedundant input section has been read:
 B       4       5 F                                                           
 D       1       2       4      16 F                                           
 D       7      13      15      16 F                                           
 D       7       9      10      11 F                                           
 D       9      10      11      12 F                                           
 D       6       7      13      15 F                                           
 

 GradGradGradGradGradGradGradGradGradGradGradGradGradGradGradGradGradGrad
 Berny optimization.
 Initialization pass.
                           ----------------------------
                           !    Initial Parameters    !
                           ! (Angstroms and Degrees)  !
 --------------------------                            --------------------------
 ! Name  Definition              Value          Derivative Info.                !
 --------------------------------------------------------------------------------
 ! R1    R(1,2)                  1.2298         estimate D2E/DX2                !
 ! R2    R(2,3)                  1.2316         estimate D2E/DX2                !
 ! R3    R(2,4)                  1.5278         estimate D2E/DX2                !
 ! R4    R(4,5)                  1.3988         Frozen                          !
 ! R5    R(4,16)                 1.4868         estimate D2E/DX2                !
 ! R6    R(5,6)                  1.371          estimate D2E/DX2                !
 ! R7    R(5,17)                 1.1027         estimate D2E/DX2                !
 ! R8    R(6,7)                  1.4947         estimate D2E/DX2                !
 ! R9    R(6,18)                 1.0229         estimate D2E/DX2                !
 ! R10   R(7,8)                  1.121          estimate D2E/DX2                !
 ! R11   R(7,9)                  1.5491         estimate D2E/DX2                !
 ! R12   R(7,13)                 1.536          estimate D2E/DX2                !
 ! R13   R(9,10)                 1.5406         estimate D2E/DX2                !
 ! R14   R(9,19)                 1.1108         estimate D2E/DX2                !
 ! R15   R(9,20)                 1.1107         estimate D2E/DX2                !
 ! R16   R(10,11)                1.5369         estimate D2E/DX2                !
 ! R17   R(10,21)                1.112          estimate D2E/DX2                !
 ! R18   R(10,22)                1.1129         estimate D2E/DX2                !
 ! R19   R(11,12)                1.544          estimate D2E/DX2                !
 ! R20   R(11,23)                1.1134         estimate D2E/DX2                !
 ! R21   R(11,24)                1.1119         estimate D2E/DX2                !
 ! R22   R(12,13)                1.5533         estimate D2E/DX2                !
 ! R23   R(12,25)                1.1121         estimate D2E/DX2                !
 ! R24   R(12,26)                1.1102         estimate D2E/DX2                !
 ! R25   R(13,14)                1.1153         estimate D2E/DX2                !
 ! R26   R(13,15)                1.4648         estimate D2E/DX2                !
 ! R27   R(15,16)                1.2926         estimate D2E/DX2                !
 ! R28   R(16,27)                1.1007         estimate D2E/DX2                !
 ! A1    A(1,2,3)              123.669          estimate D2E/DX2                !
 ! A2    A(1,2,4)              117.67           estimate D2E/DX2                !
 ! A3    A(3,2,4)              118.6549         estimate D2E/DX2                !
 ! A4    A(2,4,5)              116.4641         estimate D2E/DX2                !
 ! A5    A(2,4,16)             116.5256         estimate D2E/DX2                !
 ! A6    A(5,4,16)             126.9659         estimate D2E/DX2                !
 ! A7    A(4,5,6)              126.1047         estimate D2E/DX2                !
 ! A8    A(4,5,17)             118.2645         estimate D2E/DX2                !
 ! A9    A(6,5,17)             115.5756         estimate D2E/DX2                !
 ! A10   A(5,6,7)              129.1162         estimate D2E/DX2                !
 ! A11   A(5,6,18)             121.2146         estimate D2E/DX2                !
 ! A12   A(7,6,18)             107.4272         estimate D2E/DX2                !
 ! A13   A(6,7,8)              105.3118         estimate D2E/DX2                !
 ! A14   A(6,7,9)              114.9826         estimate D2E/DX2                !
 ! A15   A(6,7,13)             112.7022         estimate D2E/DX2                !
 ! A16   A(8,7,9)              106.1077         estimate D2E/DX2                !
 ! A17   A(8,7,13)             105.95           estimate D2E/DX2                !
 ! A18   A(9,7,13)             110.9736         estimate D2E/DX2                !
 ! A19   A(7,9,10)             109.4424         estimate D2E/DX2                !
 ! A20   A(7,9,19)             110.1581         estimate D2E/DX2                !
 ! A21   A(7,9,20)             110.1696         estimate D2E/DX2                !
 ! A22   A(10,9,19)            109.9651         estimate D2E/DX2                !
 ! A23   A(10,9,20)            109.1173         estimate D2E/DX2                !
 ! A24   A(19,9,20)            107.9655         estimate D2E/DX2                !
 ! A25   A(9,10,11)            111.1782         estimate D2E/DX2                !
 ! A26   A(9,10,21)            109.9477         estimate D2E/DX2                !
 ! A27   A(9,10,22)            109.1482         estimate D2E/DX2                !
 ! A28   A(11,10,21)           109.7863         estimate D2E/DX2                !
 ! A29   A(11,10,22)           108.7757         estimate D2E/DX2                !
 ! A30   A(21,10,22)           107.9338         estimate D2E/DX2                !
 ! A31   A(10,11,12)           111.4228         estimate D2E/DX2                !
 ! A32   A(10,11,23)           108.9977         estimate D2E/DX2                !
 ! A33   A(10,11,24)           109.8631         estimate D2E/DX2                !
 ! A34   A(12,11,23)           109.2367         estimate D2E/DX2                !
 ! A35   A(12,11,24)           109.7422         estimate D2E/DX2                !
 ! A36   A(23,11,24)           107.4884         estimate D2E/DX2                !
 ! A37   A(11,12,13)           111.6074         estimate D2E/DX2                !
 ! A38   A(11,12,25)           109.2029         estimate D2E/DX2                !
 ! A39   A(11,12,26)           109.4733         estimate D2E/DX2                !
 ! A40   A(13,12,25)           109.2131         estimate D2E/DX2                !
 ! A41   A(13,12,26)           109.5118         estimate D2E/DX2                !
 ! A42   A(25,12,26)           107.7495         estimate D2E/DX2                !
 ! A43   A(7,13,12)            105.8017         estimate D2E/DX2                !
 ! A44   A(7,13,14)            111.0862         estimate D2E/DX2                !
 ! A45   A(7,13,15)            113.6029         estimate D2E/DX2                !
 ! A46   A(12,13,14)           107.7508         estimate D2E/DX2                !
 ! A47   A(12,13,15)           108.4041         estimate D2E/DX2                !
 ! A48   A(14,13,15)           109.9204         estimate D2E/DX2                !
 ! A49   A(13,15,16)           119.3823         estimate D2E/DX2                !
 ! A50   A(4,16,15)            129.0076         estimate D2E/DX2                !
 ! A51   A(4,16,27)            113.3766         estimate D2E/DX2                !
 ! A52   A(15,16,27)           117.6145         estimate D2E/DX2                !
 ! D1    D(1,2,4,5)           -173.9951         estimate D2E/DX2                !
 ! D2    D(1,2,4,16)             8.2589         Frozen                          !
 ! D3    D(3,2,4,5)              6.8645         estimate D2E/DX2                !
 ! D4    D(3,2,4,16)          -170.8815         estimate D2E/DX2                !
 ! D5    D(2,4,5,6)            176.1853         estimate D2E/DX2                !
 ! D6    D(2,4,5,17)            -0.9853         estimate D2E/DX2                !
 ! D7    D(16,4,5,6)            -6.339          estimate D2E/DX2                !
 ! D8    D(16,4,5,17)          176.4905         estimate D2E/DX2                !
 ! D9    D(2,4,16,15)         -154.6928         estimate D2E/DX2                !
 ! D10   D(2,4,16,27)           24.891          estimate D2E/DX2                !
 ! D11   D(5,4,16,15)           27.8328         estimate D2E/DX2                !
 ! D12   D(5,4,16,27)         -152.5834         estimate D2E/DX2                !
 ! D13   D(4,5,6,7)             -7.4402         estimate D2E/DX2                !
 ! D14   D(4,5,6,18)           153.3109         estimate D2E/DX2                !
 ! D15   D(17,5,6,7)           169.7971         estimate D2E/DX2                !
 ! D16   D(17,5,6,18)          -29.4519         estimate D2E/DX2                !
 ! D17   D(5,6,7,8)           -142.2209         estimate D2E/DX2                !
 ! D18   D(5,6,7,9)            101.361          estimate D2E/DX2                !
 ! D19   D(5,6,7,13)           -27.1727         estimate D2E/DX2                !
 ! D20   D(18,6,7,8)            54.9673         estimate D2E/DX2                !
 ! D21   D(18,6,7,9)           -61.4508         estimate D2E/DX2                !
 ! D22   D(18,6,7,13)          170.0155         estimate D2E/DX2                !
 ! D23   D(6,7,9,10)           168.7129         estimate D2E/DX2                !
 ! D24   D(6,7,9,19)           -70.2693         estimate D2E/DX2                !
 ! D25   D(6,7,9,20)            48.7354         estimate D2E/DX2                !
 ! D26   D(8,7,9,10)            52.75           estimate D2E/DX2                !
 ! D27   D(8,7,9,19)           173.7678         estimate D2E/DX2                !
 ! D28   D(8,7,9,20)           -67.2275         estimate D2E/DX2                !
 ! D29   D(13,7,9,10)          -61.8968         estimate D2E/DX2                !
 ! D30   D(13,7,9,19)           59.121          estimate D2E/DX2                !
 ! D31   D(13,7,9,20)          178.1258         estimate D2E/DX2                !
 ! D32   D(6,7,13,12)         -166.1794         estimate D2E/DX2                !
 ! D33   D(6,7,13,14)          -49.5181         estimate D2E/DX2                !
 ! D34   D(6,7,13,15)           75.0223         Frozen                          !
 ! D35   D(8,7,13,12)          -51.5165         estimate D2E/DX2                !
 ! D36   D(8,7,13,14)           65.1447         estimate D2E/DX2                !
 ! D37   D(8,7,13,15)         -170.3149         estimate D2E/DX2                !
 ! D38   D(9,7,13,12)           63.2287         estimate D2E/DX2                !
 ! D39   D(9,7,13,14)          179.8899         estimate D2E/DX2                !
 ! D40   D(9,7,13,15)          -55.5697         estimate D2E/DX2                !
 ! D41   D(7,9,10,11)           54.8122         Frozen                          !
 ! D42   D(7,9,10,21)          176.6028         estimate D2E/DX2                !
 ! D43   D(7,9,10,22)          -65.1825         estimate D2E/DX2                !
 ! D44   D(19,9,10,11)         -66.3226         estimate D2E/DX2                !
 ! D45   D(19,9,10,21)          55.4681         estimate D2E/DX2                !
 ! D46   D(19,9,10,22)         173.6827         estimate D2E/DX2                !
 ! D47   D(20,9,10,11)         175.4325         estimate D2E/DX2                !
 ! D48   D(20,9,10,21)         -62.7769         estimate D2E/DX2                !
 ! D49   D(20,9,10,22)          55.4378         estimate D2E/DX2                !
 ! D50   D(9,10,11,12)         -52.8225         Frozen                          !
 ! D51   D(9,10,11,23)          67.801          estimate D2E/DX2                !
 ! D52   D(9,10,11,24)        -174.663          estimate D2E/DX2                !
 ! D53   D(21,10,11,12)       -174.7071         estimate D2E/DX2                !
 ! D54   D(21,10,11,23)        -54.0836         estimate D2E/DX2                !
 ! D55   D(21,10,11,24)         63.4524         estimate D2E/DX2                !
 ! D56   D(22,10,11,12)         67.3929         estimate D2E/DX2                !
 ! D57   D(22,10,11,23)       -171.9836         estimate D2E/DX2                !
 ! D58   D(22,10,11,24)        -54.4475         estimate D2E/DX2                !
 ! D59   D(10,11,12,13)         56.5972         estimate D2E/DX2                !
 ! D60   D(10,11,12,25)        177.4452         estimate D2E/DX2                !
 ! D61   D(10,11,12,26)        -64.8084         estimate D2E/DX2                !
 ! D62   D(23,11,12,13)        -63.8859         estimate D2E/DX2                !
 ! D63   D(23,11,12,25)         56.962          estimate D2E/DX2                !
 ! D64   D(23,11,12,26)        174.7084         estimate D2E/DX2                !
 ! D65   D(24,11,12,13)        178.5076         estimate D2E/DX2                !
 ! D66   D(24,11,12,25)        -60.6444         estimate D2E/DX2                !
 ! D67   D(24,11,12,26)         57.102          estimate D2E/DX2                !
 ! D68   D(11,12,13,7)         -60.3001         estimate D2E/DX2                !
 ! D69   D(11,12,13,14)       -179.1939         estimate D2E/DX2                !
 ! D70   D(11,12,13,15)         61.889          estimate D2E/DX2                !
 ! D71   D(25,12,13,7)         178.8579         estimate D2E/DX2                !
 ! D72   D(25,12,13,14)         59.9642         estimate D2E/DX2                !
 ! D73   D(25,12,13,15)        -58.953          estimate D2E/DX2                !
 ! D74   D(26,12,13,7)          61.0833         estimate D2E/DX2                !
 ! D75   D(26,12,13,14)        -57.8105         estimate D2E/DX2                !
 ! D76   D(26,12,13,15)       -176.7276         estimate D2E/DX2                !
 ! D77   D(7,13,15,16)         -67.1604         Frozen                          !
 ! D78   D(12,13,15,16)        175.5444         estimate D2E/DX2                !
 ! D79   D(14,13,15,16)         58.0061         estimate D2E/DX2                !
 ! D80   D(13,15,16,4)           7.6332         estimate D2E/DX2                !
 ! D81   D(13,15,16,27)       -171.9357         estimate D2E/DX2                !
 --------------------------------------------------------------------------------
 Trust Radius=3.00D-01 FncErr=1.00D-07 GrdErr=1.00D-07 EigMax=2.50D+02 EigMin=1.00D-04
 Number of steps in this run=     20 maximum allowed number of steps=    162.
 GradGradGradGradGradGradGradGradGradGradGradGradGradGradGradGradGradGrad

                          Input orientation:                          
 ---------------------------------------------------------------------
 Center     Atomic      Atomic             Coordinates (Angstroms)
 Number     Number       Type             X           Y           Z
 ---------------------------------------------------------------------
      1          8           0       -3.617970   -1.445340   -0.184810
      2          7           0       -3.257950   -0.280650   -0.022580
      3          8           0       -4.037790    0.659140    0.137090
      4          6           0       -1.757710    0.007450   -0.042020
      5          6           0       -1.369710    1.313840    0.273240
      6          7           0       -0.081430    1.768810    0.386800
      7          6           0        1.197480    0.995740    0.359610
      8          1           0        1.859780    1.492470    1.115460
      9          6           0        1.965160    1.048080   -0.984890
     10          6           0        3.376220    0.460170   -0.792950
     11          6           0        3.311610   -0.956540   -0.200680
     12          6           0        2.460210   -0.991210    1.086870
     13          6           0        1.024350   -0.453610    0.837790
     14          1           0        0.473540   -0.493360    1.806760
     15          7           0        0.369700   -1.320980   -0.144350
     16          6           0       -0.870930   -1.116220   -0.444100
     17          1           0       -2.156960    2.052610    0.497540
     18          1           0        0.150620    2.750870    0.219490
     19          1           0        1.417070    0.473030   -1.761270
     20          1           0        2.053260    2.098490   -1.334950
     21          1           0        3.913230    0.437070   -1.766430
     22          1           0        3.952240    1.112530   -0.099210
     23          1           0        2.865510   -1.644380   -0.954100
     24          1           0        4.338720   -1.321660    0.018300
     25          1           0        2.399900   -2.038000    1.457430
     26          1           0        2.953150   -0.381750    1.873050
     27          1           0       -1.372310   -1.862590   -1.079080
 ---------------------------------------------------------------------
                    Distance matrix (angstroms):
                    1          2          3          4          5
     1  O    0.000000
     2  N    1.229811   0.000000
     3  O    2.169955   1.231605   0.000000
     4  C    2.364647   1.527776   2.378139   0.000000
     5  C    3.588531   2.489048   2.750604   1.398781   0.000000
     6  N    4.812963   3.802388   4.116614   2.469046   1.370970
     7  C    5.426216   4.650387   5.250797   3.141842   2.588264
     8  H    6.350368   5.534460   6.035974   4.078146   3.342282
     9  C    6.166734   5.474709   6.119275   3.978904   3.574196
    10  C    7.274579   6.719710   7.474765   5.208271   4.938559
    11  C    6.946816   6.606638   7.532476   5.162602   5.224364
    12  C    6.226369   5.867975   6.771244   4.479125   4.543516
    13  C    4.855963   4.371298   5.230149   2.954065   3.028881
    14  H    4.648986   4.161220   4.946529   2.940625   3.002537
    15  N    3.989814   3.775839   4.840047   2.510193   3.184683
    16  C    2.778809   2.563927   3.676777   1.486836   2.582354
    17  H    3.851728   2.631883   2.368376   2.152488   1.102658
    18  H    5.654548   4.568048   4.682403   3.352084   2.092689
    19  H    5.614000   5.044491   5.778746   3.640304   3.551385
    20  H    6.785603   5.965867   6.429582   4.535153   3.862470
    21  H    7.922371   7.414982   8.178718   5.942872   5.730483
    22  H    7.991127   7.343954   8.006371   5.816184   5.338764
    23  H    6.531993   6.342259   7.358835   4.993455   5.309851
    24  H    7.960243   7.667775   8.608345   6.239922   6.292617
    25  H    6.266016   6.106552   7.103641   4.870106   5.181418
    26  H    6.967469   6.494721   7.278066   5.100115   4.911368
    27  H    2.452918   2.678500   3.865614   2.172804   3.452316
                    6          7          8          9         10
     6  N    0.000000
     7  C    1.494653   0.000000
     8  H    2.091795   1.121022   0.000000
     9  C    2.567005   1.549113   2.149432   0.000000
    10  C    3.880682   2.522328   2.647123   1.540639   0.000000
    11  C    4.391513   2.931700   3.136508   2.538979   1.536888
    12  C    3.816771   2.464014   2.555386   2.948893   2.545447
    13  C    2.522953   1.535984   2.135947   2.542117   3.004264
    14  H    2.727946   2.199034   2.518547   3.520551   4.011641
    15  N    3.167403   2.511252   3.423881   2.977322   3.554200
    16  C    3.104368   3.063437   4.085862   3.608331   4.543675
    17  H    2.097768   3.519697   4.102412   4.494280   5.900620
    18  H    1.022879   2.048422   2.303814   2.764522   4.083728
    19  H    2.922114   2.195354   3.083963   1.110788   2.185424
    20  H    2.762248   2.195439   2.531641   1.110705   2.174415
    21  H    4.729402   3.493917   3.692671   2.186119   1.112015
    22  H    4.115508   2.795149   2.449115   2.176481   1.112946
    23  H    4.704501   3.387978   3.890296   2.839176   2.171618
    24  H    5.405971   3.918447   3.907458   3.500835   2.181617
    25  H    4.668517   3.443051   3.587881   3.959522   3.501180
    26  H    4.005312   2.696360   2.298282   3.344900   2.827609
    27  H    4.123377   4.104108   5.149645   4.429399   5.293923
                   11         12         13         14         15
    11  C    0.000000
    12  C    1.543978   0.000000
    13  C    2.561819   1.553302   0.000000
    14  H    3.506992   2.170934   1.115291   0.000000
    15  N    2.964932   2.448445   1.464751   2.121926   0.000000
    16  C    4.192659   3.668241   2.382096   2.694796   1.292648
    17  H    6.280745   5.561511   4.064190   3.887872   4.263466
    18  H    4.890122   4.482155   3.378519   3.626118   4.093939
    19  H    2.840492   3.368092   2.787114   3.815101   2.632468
    20  H    3.493311   3.946779   3.506090   4.368472   3.993079
    21  H    2.180750   3.506076   3.990100   5.046271   4.275335
    22  H    2.168353   2.838778   3.450116   4.279364   4.331120
    23  H    1.113450   2.180930   2.831726   3.829976   2.643738
    24  H    1.111854   2.186284   3.522800   4.338696   3.972351
    25  H    2.179472   1.112080   2.187780   2.493754   2.683566
    26  H    2.181567   1.110185   2.190250   2.483006   3.409732
    27  H    4.850940   4.487633   3.376921   3.689177   2.049795
                   16         17         18         19         20
    16  C    0.000000
    17  H    3.547118   0.000000
    18  H    4.054417   2.426892   0.000000
    19  H    3.081493   4.513423   3.273509   0.000000
    20  H    4.436086   4.591958   2.542031   1.796832   0.000000
    21  H    5.200909   6.677030   4.843014   2.496424   2.531004
    22  H    5.324401   6.209846   4.151872   3.098143   2.470890
    23  H    3.807891   6.403140   5.297751   2.689410   3.848879
    24  H    5.234164   7.335477   5.845183   3.863136   4.330362
    25  H    3.894075   6.198343   5.433694   4.198959   5.002809
    26  H    4.531249   5.825063   4.516829   4.037137   4.153632
    27  H    1.100750   4.293041   5.028878   3.701506   5.243105
                   21         22         23         24         25
    21  H    0.000000
    22  H    1.799275   0.000000
    23  H    2.467799   3.084213   0.000000
    24  H    2.541542   2.467480   1.794452   0.000000
    25  H    4.336982   3.841709   2.487410   2.518583   0.000000
    26  H    3.852017   2.668495   3.097530   2.498666   1.794990
    27  H    5.804982   6.177566   4.245274   5.840609   4.549090
                   26         27
    26  H    0.000000
    27  H    5.442202   0.000000
 Symmetry turned off by external request.
 Stoichiometry    C9H13N3O2
 Framework group  C1[X(C9H13N3O2)]
 Deg. of freedom    75
 Full point group                 C1      NOp   1
 Rotational constants (GHZ):           1.6763681           0.4000997           0.3551233
 Standard basis: 6-31G(d) (6D, 7F)
   236 basis functions,   444 primitive gaussians,   236 cartesian basis functions
    52 alpha electrons       52 beta electrons
       nuclear repulsion energy       917.4686618541 Hartrees.
 NAtoms=   27 NActive=   27 NUniq=   27 SFac= 1.00D+00 NAtFMM=   60 NAOKFM=F Big=F
 Integral buffers will be    131072 words long.
 Raffenetti 1 integral format.
 Two-electron integral symmetry is turned off.
 One-electron integrals computed using PRISM.
 NBasis=   236 RedAO= T EigKep=  1.27D-03  NBF=   236
 NBsUse=   236 1.00D-06 EigRej= -1.00D+00 NBFU=   236
 ExpMin= 1.61D-01 ExpMax= 5.48D+03 ExpMxC= 8.25D+02 IAcc=3 IRadAn=         5 AccDes= 0.00D+00
 Harris functional with IExCor=  205 and IRadAn=       5 diagonalized for initial guess.
 HarFok:  IExCor=  205 AccDes= 0.00D+00 IRadAn=         5 IDoV= 1 UseB2=F ITyADJ=14
 ICtDFT=  3500011 ScaDFX=  1.000000  1.000000  1.000000  1.000000
 FoFCou: FMM=F IPFlag=           0 FMFlag=      100000 FMFlg1=           0
         NFxFlg=           0 DoJE=T BraDBF=F KetDBF=T FulRan=T
         wScrn=  0.000000 ICntrl=       500 IOpCl=  0 I1Cent=   200000004 NGrid=           0
         NMat0=    1 NMatS0=      1 NMatT0=    0 NMatD0=    1 NMtDS0=    0 NMtDT0=    0
 Symmetry not used in FoFCou.
 Keep R1 ints in memory in canonical form, NReq=397720213.
 Requested convergence on RMS density matrix=1.00D-08 within 128 cycles.
 Requested convergence on MAX density matrix=1.00D-06.
 Requested convergence on             energy=1.00D-06.
 No special actions if energy rises.
 SCF Done:  E(RHF) =  -661.281047904     A.U. after   16 cycles
            NFock= 16  Conv=0.80D-08     -V/T= 2.0037
 ExpMin= 1.61D-01 ExpMax= 5.48D+03 ExpMxC= 8.25D+02 IAcc=3 IRadAn=         5 AccDes= 0.00D+00
 HarFok:  IExCor=  205 AccDes= 0.00D+00 IRadAn=         5 IDoV=-2 UseB2=F ITyADJ=14
 ICtDFT= 12500011 ScaDFX=  1.000000  1.000000  1.000000  1.000000
 Range of M.O.s used for correlation:    15   236
 NBasis=   236 NAE=    52 NBE=    52 NFC=    14 NFV=     0
 NROrb=    222 NOA=    38 NOB=    38 NVA=   184 NVB=   184
 Fully direct method using O(ONN) memory.
 JobTyp=1 Pass  1:  I=  15 to  52 NPSUse=  4 ParTrn=T ParDer=T DoDerP=T.
 Spin components of T(2) and E(2):
     alpha-alpha T2 =       0.9196623439D-01 E2=     -0.2717567319D+00
     alpha-beta  T2 =       0.4996692172D+00 E2=     -0.1493747638D+01
     beta-beta   T2 =       0.9196623439D-01 E2=     -0.2717567319D+00
 ANorm=    0.1297536776D+01
 E2 =    -0.2037261102D+01 EUMP2 =    -0.66331830900584D+03
          IDoAtm=111111111111111111111111111
          Differentiating once with respect to electric field.
                with respect to dipole field.
          Differentiating once with respect to nuclear coordinates.
 Keep R1 ints in memory in canonical form, NReq=397723379.
          There are     1 degrees of freedom in the 1st order CPHF.  IDoFFX=0 NUNeed=     1.
 LinEq1:  Iter=  0 NonCon=     1 RMS=4.61D-03 Max=1.12D-01 NDo=     1
 AX will form     1 AO Fock derivatives at one time.
 LinEq1:  Iter=  1 NonCon=     1 RMS=1.56D-03 Max=2.95D-02 NDo=     1
 LinEq1:  Iter=  2 NonCon=     1 RMS=6.40D-04 Max=1.80D-02 NDo=     1
 LinEq1:  Iter=  3 NonCon=     1 RMS=2.93D-04 Max=9.05D-03 NDo=     1
 LinEq1:  Iter=  4 NonCon=     1 RMS=9.02D-05 Max=2.08D-03 NDo=     1
 LinEq1:  Iter=  5 NonCon=     1 RMS=3.74D-05 Max=1.88D-03 NDo=     1
 LinEq1:  Iter=  6 NonCon=     1 RMS=1.54D-05 Max=5.85D-04 NDo=     1
 LinEq1:  Iter=  7 NonCon=     1 RMS=5.93D-06 Max=1.02D-04 NDo=     1
 LinEq1:  Iter=  8 NonCon=     1 RMS=2.37D-06 Max=6.03D-05 NDo=     1
 LinEq1:  Iter=  9 NonCon=     1 RMS=8.84D-07 Max=2.53D-05 NDo=     1
 LinEq1:  Iter= 10 NonCon=     1 RMS=4.34D-07 Max=1.50D-05 NDo=     1
 LinEq1:  Iter= 11 NonCon=     1 RMS=1.54D-07 Max=5.71D-06 NDo=     1
 LinEq1:  Iter= 12 NonCon=     1 RMS=5.41D-08 Max=7.62D-07 NDo=     1
 LinEq1:  Iter= 13 NonCon=     1 RMS=1.71D-08 Max=3.45D-07 NDo=     1
 LinEq1:  Iter= 14 NonCon=     1 RMS=5.44D-09 Max=1.46D-07 NDo=     1
 LinEq1:  Iter= 15 NonCon=     1 RMS=2.01D-09 Max=4.82D-08 NDo=     1
 LinEq1:  Iter= 16 NonCon=     1 RMS=7.57D-10 Max=1.29D-08 NDo=     1
 LinEq1:  Iter= 17 NonCon=     1 RMS=2.53D-10 Max=3.71D-09 NDo=     1
 LinEq1:  Iter= 18 NonCon=     1 RMS=8.76D-11 Max=1.04D-09 NDo=     1
 LinEq1:  Iter= 19 NonCon=     0 RMS=2.93D-11 Max=3.82D-10 NDo=     1
 Linear equations converged to 1.000D-10 1.000D-09 after    19 iterations.
 End of Minotr F.D. properties file   721 does not exist.
 End of Minotr F.D. properties file   722 does not exist.
 End of Minotr F.D. properties file   788 does not exist.

 **********************************************************************

            Population analysis using the SCF Density.

 **********************************************************************

 Alpha  occ. eigenvalues --  -20.59841 -20.59402 -15.85289 -15.63325 -15.56853
 Alpha  occ. eigenvalues --  -11.35851 -11.30476 -11.30084 -11.30078 -11.27693
 Alpha  occ. eigenvalues --  -11.24627 -11.23879 -11.23402 -11.22854  -1.58494
 Alpha  occ. eigenvalues --   -1.37995  -1.28581  -1.22733  -1.13283  -1.08382
 Alpha  occ. eigenvalues --   -1.01811  -1.00670  -0.93594  -0.88968  -0.84935
 Alpha  occ. eigenvalues --   -0.81542  -0.78028  -0.76960  -0.74326  -0.71113
 Alpha  occ. eigenvalues --   -0.70337  -0.69786  -0.67403  -0.64368  -0.63265
 Alpha  occ. eigenvalues --   -0.61642  -0.60375  -0.57426  -0.56472  -0.54887
 Alpha  occ. eigenvalues --   -0.53594  -0.50729  -0.49366  -0.48488  -0.47789
 Alpha  occ. eigenvalues --   -0.47686  -0.46148  -0.45694  -0.44016  -0.42097
 Alpha  occ. eigenvalues --   -0.39966  -0.33789
 Alpha virt. eigenvalues --    0.07361   0.11780   0.18174   0.21389   0.23409
 Alpha virt. eigenvalues --    0.24250   0.26290   0.27796   0.28559   0.28873
 Alpha virt. eigenvalues --    0.29927   0.31080   0.31851   0.32275   0.33340
 Alpha virt. eigenvalues --    0.33784   0.34231   0.35476   0.37580   0.38580
 Alpha virt. eigenvalues --    0.40628   0.41746   0.44452   0.45268   0.45662
 Alpha virt. eigenvalues --    0.46066   0.49714   0.53190   0.57587   0.58987
 Alpha virt. eigenvalues --    0.63290   0.69139   0.69242   0.72200   0.74022
 Alpha virt. eigenvalues --    0.74935   0.75694   0.75856   0.77775   0.79275
 Alpha virt. eigenvalues --    0.80533   0.83638   0.85029   0.85357   0.87984
 Alpha virt. eigenvalues --    0.89078   0.90172   0.90791   0.91849   0.93903
 Alpha virt. eigenvalues --    0.95182   0.97201   0.98853   1.00378   1.01955
 Alpha virt. eigenvalues --    1.02751   1.05093   1.06479   1.07001   1.08677
 Alpha virt. eigenvalues --    1.09570   1.10469   1.11333   1.11954   1.13256
 Alpha virt. eigenvalues --    1.13832   1.14179   1.15407   1.16357   1.17265
 Alpha virt. eigenvalues --    1.17975   1.19987   1.21226   1.22332   1.22987
 Alpha virt. eigenvalues --    1.23710   1.24300   1.25655   1.27068   1.27518
 Alpha virt. eigenvalues --    1.29418   1.31232   1.33019   1.36016   1.39703
 Alpha virt. eigenvalues --    1.42854   1.46170   1.47258   1.49319   1.52670
 Alpha virt. eigenvalues --    1.54649   1.55399   1.60473   1.61456   1.65975
 Alpha virt. eigenvalues --    1.68639   1.70308   1.72807   1.73439   1.77034
 Alpha virt. eigenvalues --    1.77732   1.79973   1.84355   1.89128   1.92612
 Alpha virt. eigenvalues --    1.93689   1.96118   1.97509   1.99021   2.00839
 Alpha virt. eigenvalues --    2.02967   2.03809   2.05967   2.08868   2.11900
 Alpha virt. eigenvalues --    2.12901   2.13757   2.17742   2.18876   2.19421
 Alpha virt. eigenvalues --    2.20763   2.22068   2.24106   2.25119   2.26383
 Alpha virt. eigenvalues --    2.29198   2.32264   2.33460   2.35562   2.35971
 Alpha virt. eigenvalues --    2.38563   2.39843   2.41607   2.43204   2.46333
 Alpha virt. eigenvalues --    2.48663   2.50384   2.50793   2.56775   2.57205
 Alpha virt. eigenvalues --    2.60760   2.62861   2.65968   2.68541   2.68821
 Alpha virt. eigenvalues --    2.69707   2.70176   2.74720   2.77167   2.80939
 Alpha virt. eigenvalues --    2.84691   2.86760   2.90007   2.91388   2.95243
 Alpha virt. eigenvalues --    2.97610   2.98442   3.02220   3.03567   3.05685
 Alpha virt. eigenvalues --    3.07020   3.12714   3.19221   3.22697   3.27198
 Alpha virt. eigenvalues --    3.30695   3.33784   3.37231   3.43409   3.59881
 Alpha virt. eigenvalues --    4.09979   4.23260   4.32061   4.36361   4.43134
 Alpha virt. eigenvalues --    4.52671   4.59654   4.60161   4.70842   4.77587
 Alpha virt. eigenvalues --    4.96393   4.99235   5.02811   5.09941
          Condensed to atoms (all electrons):
               1          2          3          4          5          6
     1  O    8.299711   0.313162  -0.089689  -0.079217   0.003516  -0.000013
     2  N    0.313162   5.682854   0.309063   0.265358  -0.046190   0.000856
     3  O   -0.089689   0.309063   8.330823  -0.087445   0.008007   0.000463
     4  C   -0.079217   0.265358  -0.087445   5.244394   0.567573  -0.047998
     5  C    0.003516  -0.046190   0.008007   0.567573   4.671050   0.307546
     6  N   -0.000013   0.000856   0.000463  -0.047998   0.307546   7.190000
     7  C    0.000003  -0.000093   0.000002   0.004154  -0.029307   0.198482
     8  H   -0.000000   0.000002  -0.000000  -0.000181   0.002296  -0.049978
     9  C   -0.000000  -0.000003   0.000000   0.000472   0.001667  -0.056182
    10  C   -0.000000   0.000000  -0.000000  -0.000019  -0.000063   0.003335
    11  C   -0.000000  -0.000000  -0.000000  -0.000014   0.000015  -0.000154
    12  C   -0.000000   0.000002  -0.000000  -0.000100  -0.000127   0.003600
    13  C   -0.000019  -0.000025  -0.000003  -0.010501   0.000464  -0.044378
    14  H   -0.000003  -0.000055   0.000000   0.002958   0.004820  -0.005571
    15  N    0.000178   0.001640  -0.000013  -0.061295  -0.003718   0.001871
    16  C    0.003438  -0.026810   0.001943   0.318245  -0.041265  -0.001278
    17  H    0.000126  -0.004117   0.011963  -0.027196   0.377324  -0.033896
    18  H    0.000000  -0.000035   0.000008   0.000942  -0.024358   0.328382
    19  H    0.000000   0.000000   0.000000  -0.000766   0.000657   0.000642
    20  H    0.000000  -0.000000   0.000000  -0.000026   0.000029  -0.001710
    21  H   -0.000000  -0.000000   0.000000   0.000000   0.000001  -0.000059
    22  H   -0.000000   0.000000  -0.000000  -0.000000  -0.000002  -0.000098
    23  H    0.000000  -0.000000   0.000000   0.000025  -0.000000  -0.000024
    24  H    0.000000   0.000000   0.000000   0.000000  -0.000000   0.000004
    25  H    0.000000  -0.000000   0.000000   0.000019  -0.000001  -0.000071
    26  H    0.000000  -0.000000   0.000000   0.000006  -0.000001  -0.000067
    27  H    0.005324  -0.000248   0.000002  -0.066125   0.002143   0.000045
               7          8          9         10         11         12
     1  O    0.000003  -0.000000  -0.000000  -0.000000  -0.000000  -0.000000
     2  N   -0.000093   0.000002  -0.000003   0.000000  -0.000000   0.000002
     3  O    0.000002  -0.000000   0.000000  -0.000000  -0.000000  -0.000000
     4  C    0.004154  -0.000181   0.000472  -0.000019  -0.000014  -0.000100
     5  C   -0.029307   0.002296   0.001667  -0.000063   0.000015  -0.000127
     6  N    0.198482  -0.049978  -0.056182   0.003335  -0.000154   0.003600
     7  C    5.003331   0.416750   0.340757  -0.049334  -0.007708  -0.064140
     8  H    0.416750   0.547446  -0.060573   0.001472  -0.000330  -0.002845
     9  C    0.340757  -0.060573   5.181263   0.317915  -0.053053  -0.006214
    10  C   -0.049334   0.001472   0.317915   5.126775   0.332750  -0.060150
    11  C   -0.007708  -0.000330  -0.053053   0.332750   5.123960   0.330659
    12  C   -0.064140  -0.002845  -0.006214  -0.060150   0.330659   5.136968
    13  C    0.332314  -0.040378  -0.050409  -0.001727  -0.047893   0.368230
    14  H   -0.040234  -0.000942   0.003864  -0.000391   0.003955  -0.040733
    15  N   -0.058219   0.004048  -0.012888   0.001461  -0.007734  -0.074157
    16  C   -0.002336   0.000022  -0.000895  -0.000025   0.000003   0.002510
    17  H    0.001428  -0.000019  -0.000065   0.000001   0.000000   0.000001
    18  H   -0.028463  -0.002670   0.000839  -0.000121   0.000011  -0.000136
    19  H   -0.034994   0.004098   0.385963  -0.032569  -0.002264   0.000629
    20  H   -0.041643  -0.001853   0.397242  -0.037369   0.004139  -0.000361
    21  H    0.004043  -0.000080  -0.035834   0.400144  -0.035842   0.004211
    22  H   -0.004218   0.003510  -0.045685   0.395974  -0.045621  -0.001230
    23  H    0.000429   0.000033  -0.002004  -0.040092   0.396699  -0.036630
    24  H   -0.000141  -0.000098   0.004395  -0.038481   0.400300  -0.037869
    25  H    0.004981  -0.000005  -0.000369   0.004097  -0.033925   0.395436
    26  H   -0.004453   0.001605   0.001041  -0.002402  -0.042316   0.394689
    27  H   -0.000402   0.000009  -0.000059   0.000005   0.000005  -0.000019
              13         14         15         16         17         18
     1  O   -0.000019  -0.000003   0.000178   0.003438   0.000126   0.000000
     2  N   -0.000025  -0.000055   0.001640  -0.026810  -0.004117  -0.000035
     3  O   -0.000003   0.000000  -0.000013   0.001943   0.011963   0.000008
     4  C   -0.010501   0.002958  -0.061295   0.318245  -0.027196   0.000942
     5  C    0.000464   0.004820  -0.003718  -0.041265   0.377324  -0.024358
     6  N   -0.044378  -0.005571   0.001871  -0.001278  -0.033896   0.328382
     7  C    0.332314  -0.040234  -0.058219  -0.002336   0.001428  -0.028463
     8  H   -0.040378  -0.000942   0.004048   0.000022  -0.000019  -0.002670
     9  C   -0.050409   0.003864  -0.012888  -0.000895  -0.000065   0.000839
    10  C   -0.001727  -0.000391   0.001461  -0.000025   0.000001  -0.000121
    11  C   -0.047893   0.003955  -0.007734   0.000003   0.000000   0.000011
    12  C    0.368230  -0.040733  -0.074157   0.002510   0.000001  -0.000136
    13  C    5.024298   0.402317   0.239802  -0.069758  -0.000042   0.003684
    14  H    0.402317   0.519273  -0.035820  -0.004841   0.000064   0.000010
    15  N    0.239802  -0.035820   6.936175   0.587594  -0.000059  -0.000119
    16  C   -0.069758  -0.004841   0.587594   4.700044   0.001656  -0.000213
    17  H   -0.000042   0.000064  -0.000059   0.001656   0.386144  -0.001871
    18  H    0.003684   0.000010  -0.000119  -0.000213  -0.001871   0.324457
    19  H   -0.006275   0.000065   0.006957   0.002533   0.000011  -0.000127
    20  H    0.003863  -0.000049   0.000079  -0.000031  -0.000001   0.002868
    21  H   -0.000377   0.000009  -0.000029   0.000002  -0.000000  -0.000000
    22  H    0.000319  -0.000044   0.000003  -0.000001   0.000000   0.000002
    23  H   -0.005860   0.000008   0.006760   0.000062   0.000000   0.000000
    24  H    0.004142  -0.000058   0.000044   0.000005   0.000000  -0.000000
    25  H   -0.034474  -0.002657   0.000764  -0.000061  -0.000000   0.000002
    26  H   -0.044813  -0.000906   0.004187  -0.000055   0.000000  -0.000001
    27  H    0.004880  -0.000174  -0.039788   0.402361  -0.000059   0.000002
              19         20         21         22         23         24
     1  O    0.000000   0.000000  -0.000000  -0.000000   0.000000   0.000000
     2  N    0.000000  -0.000000  -0.000000   0.000000  -0.000000   0.000000
     3  O    0.000000   0.000000   0.000000  -0.000000   0.000000   0.000000
     4  C   -0.000766  -0.000026   0.000000  -0.000000   0.000025   0.000000
     5  C    0.000657   0.000029   0.000001  -0.000002  -0.000000  -0.000000
     6  N    0.000642  -0.001710  -0.000059  -0.000098  -0.000024   0.000004
     7  C   -0.034994  -0.041643   0.004043  -0.004218   0.000429  -0.000141
     8  H    0.004098  -0.001853  -0.000080   0.003510   0.000033  -0.000098
     9  C    0.385963   0.397242  -0.035834  -0.045685  -0.002004   0.004395
    10  C   -0.032569  -0.037369   0.400144   0.395974  -0.040092  -0.038481
    11  C   -0.002264   0.004139  -0.035842  -0.045621   0.396699   0.400300
    12  C    0.000629  -0.000361   0.004211  -0.001230  -0.036630  -0.037869
    13  C   -0.006275   0.003863  -0.000377   0.000319  -0.005860   0.004142
    14  H    0.000065  -0.000049   0.000009  -0.000044   0.000008  -0.000058
    15  N    0.006957   0.000079  -0.000029   0.000003   0.006760   0.000044
    16  C    0.002533  -0.000031   0.000002  -0.000001   0.000062   0.000005
    17  H    0.000011  -0.000001  -0.000000   0.000000   0.000000   0.000000
    18  H   -0.000127   0.002868  -0.000000   0.000002   0.000000  -0.000000
    19  H    0.506848  -0.024023  -0.002593   0.003757   0.001641  -0.000070
    20  H   -0.024023   0.550131  -0.002614  -0.002966  -0.000049  -0.000090
    21  H   -0.002593  -0.002614   0.526087  -0.024694  -0.002813  -0.002059
    22  H    0.003757  -0.002966  -0.024694   0.568831   0.004061  -0.003596
    23  H    0.001641  -0.000049  -0.002813   0.004061   0.509650  -0.024991
    24  H   -0.000070  -0.000090  -0.002059  -0.003596  -0.024991   0.541023
    25  H   -0.000027   0.000011  -0.000086  -0.000082  -0.002093  -0.002380
    26  H    0.000023  -0.000035  -0.000074   0.002465   0.003821  -0.002767
    27  H    0.000076  -0.000000  -0.000000   0.000000  -0.000022  -0.000000
              25         26         27
     1  O    0.000000   0.000000   0.005324
     2  N   -0.000000  -0.000000  -0.000248
     3  O    0.000000   0.000000   0.000002
     4  C    0.000019   0.000006  -0.066125
     5  C   -0.000001  -0.000001   0.002143
     6  N   -0.000071  -0.000067   0.000045
     7  C    0.004981  -0.004453  -0.000402
     8  H   -0.000005   0.001605   0.000009
     9  C   -0.000369   0.001041  -0.000059
    10  C    0.004097  -0.002402   0.000005
    11  C   -0.033925  -0.042316   0.000005
    12  C    0.395436   0.394689  -0.000019
    13  C   -0.034474  -0.044813   0.004880
    14  H   -0.002657  -0.000906  -0.000174
    15  N    0.000764   0.004187  -0.039788
    16  C   -0.000061  -0.000055   0.402361
    17  H   -0.000000   0.000000  -0.000059
    18  H    0.000002  -0.000001   0.000002
    19  H   -0.000027   0.000023   0.000076
    20  H    0.000011  -0.000035  -0.000000
    21  H   -0.000086  -0.000074  -0.000000
    22  H   -0.000082   0.002465   0.000000
    23  H   -0.002093   0.003821  -0.000022
    24  H   -0.002380  -0.002767  -0.000000
    25  H    0.510392  -0.023099  -0.000010
    26  H   -0.023099   0.560941   0.000001
    27  H   -0.000010   0.000001   0.452265
 Mulliken charges:
               1
     1  O   -0.456516
     2  N    0.504640
     3  O   -0.485125
     4  C   -0.023262
     5  C    0.197923
     6  N   -0.793750
     7  C    0.059011
     8  H    0.178661
     9  C   -0.311186
    10  C   -0.321185
    11  C   -0.315642
    12  C   -0.312224
    13  C   -0.027381
    14  H    0.195136
    15  N   -0.497723
    16  C    0.127151
    17  H    0.288609
    18  H    0.396906
    19  H    0.189811
    20  H    0.154459
    21  H    0.172659
    22  H    0.149317
    23  H    0.191388
    24  H    0.162686
    25  H    0.183637
    26  H    0.152211
    27  H    0.239788
 Sum of Mulliken charges =  -0.00000
 Mulliken charges with hydrogens summed into heavy atoms:
               1
     1  O   -0.456516
     2  N    0.504640
     3  O   -0.485125
     4  C   -0.023262
     5  C    0.486532
     6  N   -0.396845
     7  C    0.237672
     9  C    0.033085
    10  C    0.000792
    11  C    0.038432
    12  C    0.023623
    13  C    0.167755
    15  N   -0.497723
    16  C    0.366940
 Electronic spatial extent (au):  <R**2>=           3126.1875
 Charge=             -0.0000 electrons
 Dipole moment (field-independent basis, Debye):
    X=              5.3562    Y=              4.4961    Z=              0.5027  Tot=              7.0112
 Quadrupole moment (field-independent basis, Debye-Ang):
   XX=           -105.4495   YY=            -80.2572   ZZ=            -82.2583
   XY=             -1.8618   XZ=              0.9202   YZ=              0.0406
 Traceless Quadrupole moment (field-independent basis, Debye-Ang):
   XX=            -16.1279   YY=              9.0645   ZZ=              7.0634
   XY=             -1.8618   XZ=              0.9202   YZ=              0.0406
 Octapole moment (field-independent basis, Debye-Ang**2):
  XXX=            101.4223  YYY=             36.7226  ZZZ=             -5.2294  XYY=             -1.3894
  XXY=             11.7167  XXZ=             -0.4454  XZZ=             -8.2925  YZZ=             -2.8912
  YYZ=              0.7764  XYZ=             -1.4228
 Hexadecapole moment (field-independent basis, Debye-Ang**3):
 XXXX=          -3561.1413 YYYY=           -619.6109 ZZZZ=           -298.9445 XXXY=            -41.0395
 XXXZ=             26.4948 YYYX=            -20.6326 YYYZ=             11.2922 ZZZX=             21.2608
 ZZZY=              8.7904 XXYY=           -656.9794 XXZZ=           -543.6298 YYZZ=           -164.4973
 XXYZ=              2.2976 YYXZ=             10.1692 ZZXY=              2.4246
 N-N= 9.174686618541D+02 E-N=-3.380948979026D+03  KE= 6.588573809568D+02
 Calling FoFJK, ICntrl=  10002127 FMM=F ISym2X=0 I1Cent= 0 IOpClX= 0 NMat=1 NMatS=1 NMatT=0.
 -------------------------------------------------------------------
 Center     Atomic                   Forces (Hartrees/Bohr)
 Number     Number              X              Y              Z
 -------------------------------------------------------------------
      1        8           0.002381489   -0.019274413   -0.003129409
      2        7           0.039225011    0.013803285   -0.001785500
      3        8          -0.005209267    0.015788400    0.003645835
      4        6          -0.003208368    0.007995196    0.009314528
      5        6           0.003316793   -0.015918646   -0.005050537
      6        7           0.014805067   -0.010122701   -0.006415664
      7        6          -0.004676358    0.005242677    0.002890264
      8        1          -0.010086851   -0.001724990   -0.007661841
      9        6          -0.003940759    0.000175745   -0.002120323
     10        6           0.002839403   -0.000876350    0.000975477
     11        6          -0.001045686   -0.004613620   -0.002412057
     12        6           0.000822272   -0.008752601   -0.002865066
     13        6           0.008949028   -0.001970644    0.004699513
     14        1           0.000892765    0.004471288   -0.009855080
     15        7           0.000031826    0.001005637    0.001345795
     16        6          -0.021041602    0.007417544    0.003608443
     17        1           0.007144739   -0.005966711   -0.006303072
     18        1          -0.017596792   -0.001708457    0.006201124
     19        1           0.003099103    0.005882263    0.007695935
     20        1          -0.003254054   -0.007345304    0.002603333
     21        1          -0.004367760    0.002404250    0.009616295
     22        1          -0.003982031   -0.003975172   -0.007406363
     23        1           0.003979323    0.006130282    0.009300652
     24        1          -0.009380523    0.002623751   -0.002139311
     25        1          -0.000770524    0.010589416   -0.002408964
     26        1          -0.004778362   -0.004806235   -0.004374950
     27        1           0.005852115    0.003526110    0.002030942
 -------------------------------------------------------------------
 Cartesian Forces:  Max     0.039225011 RMS     0.008355315

 GradGradGradGradGradGradGradGradGradGradGradGradGradGradGradGradGradGrad
 Berny optimization.
 FormGI is forming the generalized inverse of G from B-inverse, IUseBI=4.
 Internal  Forces:  Max     0.037702950 RMS     0.006861342
 Search for a local minimum.
 Step number   1 out of a maximum of   20
 All quantities printed in internal units (Hartrees-Bohrs-Radians)
 Mixed Optimization -- RFO/linear search
 Second derivative matrix not updated -- first step.
 ITU=  0
     Eigenvalues ---    0.00231   0.00770   0.01045   0.01146   0.01198
     Eigenvalues ---    0.01483   0.01531   0.01603   0.01974   0.02019
     Eigenvalues ---    0.02093   0.02689   0.03665   0.04507   0.04695
     Eigenvalues ---    0.04838   0.05081   0.05138   0.05304   0.05894
     Eigenvalues ---    0.06265   0.07228   0.07700   0.07725   0.07874
     Eigenvalues ---    0.07993   0.08050   0.08056   0.10459   0.11738
     Eigenvalues ---    0.12267   0.13493   0.15249   0.15731   0.15991
     Eigenvalues ---    0.16000   0.20085   0.21951   0.23155   0.24981
     Eigenvalues ---    0.25000   0.25000   0.25374   0.26214   0.26651
     Eigenvalues ---    0.27979   0.28084   0.28476   0.29630   0.31460
     Eigenvalues ---    0.31654   0.32046   0.32237   0.32290   0.32381
     Eigenvalues ---    0.32388   0.32404   0.32517   0.32526   0.32580
     Eigenvalues ---    0.33335   0.33390   0.33599   0.35403   0.43882
     Eigenvalues ---    0.48989   0.66997   0.90421   0.911651000.00000
     Eigenvalues --- 1000.000001000.000001000.000001000.000001000.00000
     Eigenvalues --- 1000.000001000.000001000.000001000.000001000.00000
     Eigenvalues --- 1000.000001000.000001000.000001000.000001000.00000
     Eigenvalues --- 1000.000001000.000001000.000001000.000001000.00000
     Eigenvalues --- 1000.000001000.000001000.000001000.000001000.00000
     Eigenvalues --- 1000.000001000.000001000.000001000.000001000.00000
     Eigenvalues --- 1000.000001000.000001000.000001000.000001000.00000
     Eigenvalues --- 1000.000001000.000001000.000001000.000001000.00000
     Eigenvalues --- 1000.000001000.000001000.000001000.000001000.00000
     Eigenvalues --- 1000.000001000.000001000.000001000.000001000.00000
     Eigenvalues --- 1000.000001000.000001000.000001000.000001000.00000
     Eigenvalues --- 1000.000001000.000001000.000001000.000001000.00000
     Eigenvalues --- 1000.000001000.000001000.000001000.000001000.00000
     Eigenvalues --- 1000.000001000.000001000.000001000.000001000.00000
     Eigenvalues --- 1000.000001000.000001000.000001000.000001000.00000
     Eigenvalues --- 1000.000001000.000001000.000001000.000001000.00000
     Eigenvalues --- 1000.000001000.000001000.000001000.000001000.00000
     Eigenvalues --- 1000.000001000.000001000.000001000.000001000.00000
     Eigenvalues --- 1000.00000
 RFO step:  Lambda=-2.13499519D-02 EMin= 2.30810255D-03
 Linear search not attempted -- first point.
 Iteration  1 RMS(Cart)=  0.05406642 RMS(Int)=  0.00097369
 Iteration  2 RMS(Cart)=  0.00107686 RMS(Int)=  0.00023063
 Iteration  3 RMS(Cart)=  0.00000067 RMS(Int)=  0.00023063
 Iteration  1 RMS(Cart)=  0.00003050 RMS(Int)=  0.00002323
 Iteration  2 RMS(Cart)=  0.00001337 RMS(Int)=  0.00002540
 Iteration  3 RMS(Cart)=  0.00000881 RMS(Int)=  0.00002834
 Iteration  4 RMS(Cart)=  0.00000676 RMS(Int)=  0.00003080
 Iteration  5 RMS(Cart)=  0.00000556 RMS(Int)=  0.00003284
 Iteration  6 RMS(Cart)=  0.00000468 RMS(Int)=  0.00003458
 Iteration  7 RMS(Cart)=  0.00000396 RMS(Int)=  0.00003607
 Iteration  8 RMS(Cart)=  0.00000335 RMS(Int)=  0.00003736
 Iteration  9 RMS(Cart)=  0.00000284 RMS(Int)=  0.00003848
 Iteration 10 RMS(Cart)=  0.00000240 RMS(Int)=  0.00003944
 Iteration 11 RMS(Cart)=  0.00000203 RMS(Int)=  0.00004026
 Iteration 12 RMS(Cart)=  0.00000171 RMS(Int)=  0.00004097
 Iteration 13 RMS(Cart)=  0.00000145 RMS(Int)=  0.00004158
 Iteration 14 RMS(Cart)=  0.00000122 RMS(Int)=  0.00004209
 Iteration 15 RMS(Cart)=  0.00000103 RMS(Int)=  0.00004253
 Iteration 16 RMS(Cart)=  0.00000087 RMS(Int)=  0.00004291
 Variable       Old X    -DE/DX   Delta X   Delta X   Delta X     New X
                                 (Linear)    (Quad)   (Total)
    R1        2.32401   0.01797   0.00000   0.01926   0.01926   2.34327
    R2        2.32740   0.01582   0.00000   0.01709   0.01709   2.34449
    R3        2.88708  -0.03770   0.00000  -0.11869  -0.11869   2.76838
    R4        2.64331  -0.03403   0.00000   0.00000  -0.00000   2.64331
    R5        2.80971  -0.02184   0.00000  -0.06487  -0.06466   2.74506
    R6        2.59076  -0.02447   0.00000  -0.04854  -0.04851   2.54225
    R7        2.08372  -0.01038   0.00000  -0.02922  -0.02922   2.05450
    R8        2.82448  -0.01940   0.00000  -0.05324  -0.05334   2.77115
    R9        1.93296  -0.00665   0.00000  -0.01444  -0.01444   1.91852
   R10        2.11843  -0.01189   0.00000  -0.03539  -0.03539   2.08303
   R11        2.92740  -0.01299   0.00000  -0.04438  -0.04442   2.88298
   R12        2.90259  -0.00439   0.00000  -0.00584  -0.00579   2.89680
   R13        2.91139  -0.00463   0.00000  -0.01439  -0.01439   2.89700
   R14        2.09909  -0.00995   0.00000  -0.02872  -0.02872   2.07036
   R15        2.09893  -0.00803   0.00000  -0.02315  -0.02315   2.07577
   R16        2.90430  -0.00183   0.00000  -0.00741  -0.00745   2.89685
   R17        2.10140  -0.01058   0.00000  -0.03064  -0.03064   2.07076
   R18        2.10316  -0.00901   0.00000  -0.02617  -0.02617   2.07700
   R19        2.91770  -0.00908   0.00000  -0.02924  -0.02920   2.88849
   R20        2.10412  -0.01167   0.00000  -0.03397  -0.03397   2.07015
   R21        2.10110  -0.00995   0.00000  -0.02880  -0.02880   2.07230
   R22        2.93532  -0.01056   0.00000  -0.03676  -0.03676   2.89855
   R23        2.10153  -0.01073   0.00000  -0.03108  -0.03108   2.07044
   R24        2.09795  -0.00786   0.00000  -0.02264  -0.02264   2.07531
   R25        2.10760  -0.00916   0.00000  -0.02681  -0.02681   2.08079
   R26        2.76798  -0.00519   0.00000  -0.00886  -0.00916   2.75882
   R27        2.44275  -0.00577   0.00000  -0.00779  -0.00781   2.43494
   R28        2.08012  -0.00623   0.00000  -0.01743  -0.01743   2.06269
    A1        2.15843   0.01098   0.00000   0.04061   0.04042   2.19885
    A2        2.05373  -0.00762   0.00000  -0.02794  -0.02813   2.02560
    A3        2.07092  -0.00335   0.00000  -0.01219  -0.01238   2.05854
    A4        2.03268  -0.00741   0.00000  -0.02215  -0.02251   2.01017
    A5        2.03376  -0.00307   0.00000  -0.00611  -0.00650   2.02725
    A6        2.21597   0.01043   0.00000   0.02693   0.02711   2.24308
    A7        2.20094   0.00606   0.00000   0.01341   0.01363   2.21457
    A8        2.06411  -0.00326   0.00000  -0.00772  -0.00791   2.05619
    A9        2.01718  -0.00276   0.00000  -0.00485  -0.00506   2.01211
   A10        2.25350  -0.00553   0.00000  -0.01886  -0.01894   2.23456
   A11        2.11559  -0.01251   0.00000  -0.07268  -0.07307   2.04252
   A12        1.87496   0.01823   0.00000   0.09934   0.09950   1.97446
   A13        1.83804  -0.00161   0.00000  -0.01955  -0.01945   1.81859
   A14        2.00683  -0.00114   0.00000  -0.01508  -0.01504   1.99178
   A15        1.96702   0.00108   0.00000   0.00728   0.00688   1.97391
   A16        1.85193   0.00269   0.00000   0.02407   0.02393   1.87586
   A17        1.84918   0.00081   0.00000   0.01841   0.01823   1.86740
   A18        1.93685  -0.00151   0.00000  -0.01104  -0.01073   1.92613
   A19        1.91013   0.00015   0.00000  -0.00439  -0.00452   1.90561
   A20        1.92262  -0.00074   0.00000  -0.01336  -0.01334   1.90928
   A21        1.92282  -0.00165   0.00000  -0.00738  -0.00738   1.91545
   A22        1.91925  -0.00040   0.00000   0.00636   0.00634   1.92559
   A23        1.90446   0.00305   0.00000   0.02432   0.02432   1.92877
   A24        1.88435  -0.00038   0.00000  -0.00513  -0.00539   1.87896
   A25        1.94042  -0.00086   0.00000   0.00639   0.00630   1.94673
   A26        1.91895  -0.00070   0.00000  -0.00697  -0.00701   1.91194
   A27        1.90500   0.00030   0.00000  -0.00328  -0.00335   1.90164
   A28        1.91613   0.00079   0.00000   0.00731   0.00735   1.92348
   A29        1.89849   0.00171   0.00000   0.01114   0.01115   1.90965
   A30        1.88380  -0.00122   0.00000  -0.01510  -0.01518   1.86862
   A31        1.94469   0.00064   0.00000   0.00455   0.00467   1.94936
   A32        1.90237   0.00062   0.00000   0.00655   0.00649   1.90886
   A33        1.91747   0.00038   0.00000   0.00522   0.00520   1.92267
   A34        1.90654  -0.00113   0.00000  -0.01424  -0.01428   1.89226
   A35        1.91536  -0.00047   0.00000   0.00024   0.00016   1.91552
   A36        1.87603  -0.00007   0.00000  -0.00268  -0.00271   1.87332
   A37        1.94792  -0.00297   0.00000  -0.01875  -0.01878   1.92913
   A38        1.90595   0.00254   0.00000   0.01730   0.01715   1.92310
   A39        1.91067   0.00139   0.00000   0.01359   0.01356   1.92423
   A40        1.90613   0.00019   0.00000  -0.00335  -0.00318   1.90295
   A41        1.91134  -0.00020   0.00000  -0.00444  -0.00438   1.90697
   A42        1.88058  -0.00087   0.00000  -0.00385  -0.00404   1.87654
   A43        1.84659   0.00455   0.00000   0.02356   0.02360   1.87019
   A44        1.93882  -0.00434   0.00000  -0.03356  -0.03396   1.90486
   A45        1.98274   0.00086   0.00000   0.01795   0.01829   2.00103
   A46        1.88061   0.00223   0.00000   0.03009   0.03043   1.91103
   A47        1.89201  -0.00390   0.00000  -0.03065  -0.03085   1.86116
   A48        1.91847   0.00081   0.00000  -0.00530  -0.00509   1.91338
   A49        2.08361  -0.00614   0.00000  -0.00785  -0.00823   2.07539
   A50        2.25161  -0.00503   0.00000  -0.02247  -0.02257   2.22903
   A51        1.97880   0.00563   0.00000   0.02852   0.02801   2.00680
   A52        2.05276  -0.00059   0.00000  -0.00574  -0.00624   2.04652
    D1       -3.03679  -0.00073   0.00000  -0.03301  -0.03246  -3.06924
    D2        0.14414   0.00039   0.00000   0.00000  -0.00000   0.14414
    D3        0.11981  -0.00177   0.00000  -0.06768  -0.06741   0.05240
    D4       -2.98245  -0.00065   0.00000  -0.03468  -0.03495  -3.01740
    D5        3.07501   0.00056   0.00000   0.01556   0.01557   3.09058
    D6       -0.01720  -0.00044   0.00000  -0.00561  -0.00571  -0.02290
    D7       -0.11064  -0.00110   0.00000  -0.02243  -0.02277  -0.13340
    D8        3.08034  -0.00210   0.00000  -0.04360  -0.04404   3.03630
    D9       -2.69990  -0.00199   0.00000  -0.04910  -0.04962  -2.74952
   D10        0.43443   0.00043   0.00000   0.00330   0.00304   0.43747
   D11        0.48577  -0.00023   0.00000  -0.01073  -0.01063   0.47515
   D12       -2.66308   0.00219   0.00000   0.04167   0.04203  -2.62105
   D13       -0.12986  -0.00011   0.00000   0.02618   0.02641  -0.10345
   D14        2.67578   0.00381   0.00000   0.07543   0.07436   2.75014
   D15        2.96352   0.00085   0.00000   0.04676   0.04713   3.01065
   D16       -0.51403   0.00477   0.00000   0.09601   0.09508  -0.41895
   D17       -2.48222  -0.00072   0.00000  -0.01960  -0.01920  -2.50142
   D18        1.76908  -0.00236   0.00000  -0.02821  -0.02795   1.74114
   D19       -0.47425  -0.00017   0.00000  -0.00555  -0.00561  -0.47986
   D20        0.95936  -0.00008   0.00000  -0.03996  -0.04046   0.91890
   D21       -1.07252  -0.00171   0.00000  -0.04856  -0.04920  -1.12172
   D22        2.96733   0.00048   0.00000  -0.02591  -0.02687   2.94046
   D23        2.94459   0.00232   0.00000   0.02196   0.02176   2.96635
   D24       -1.22643   0.00145   0.00000   0.01858   0.01840  -1.20803
   D25        0.85059  -0.00051   0.00000  -0.00068  -0.00078   0.84981
   D26        0.92066   0.00315   0.00000   0.03845   0.03844   0.95910
   D27        3.03282   0.00229   0.00000   0.03507   0.03508   3.06790
   D28       -1.17334   0.00032   0.00000   0.01581   0.01590  -1.15744
   D29       -1.08030   0.00145   0.00000   0.00885   0.00889  -1.07142
   D30        1.03186   0.00058   0.00000   0.00547   0.00553   1.03739
   D31        3.10888  -0.00138   0.00000  -0.01379  -0.01365   3.09523
   D32       -2.90038  -0.00103   0.00000  -0.01211  -0.01184  -2.91222
   D33       -0.86425   0.00201   0.00000   0.01999   0.01986  -0.84439
   D34        1.30939   0.00030   0.00000   0.00000  -0.00001   1.30938
   D35       -0.89913  -0.00193   0.00000  -0.02093  -0.02077  -0.91990
   D36        1.13699   0.00112   0.00000   0.01118   0.01094   1.14793
   D37       -2.97256  -0.00060   0.00000  -0.00881  -0.00893  -2.98149
   D38        1.10355   0.00095   0.00000   0.01220   0.01233   1.11588
   D39        3.13967   0.00399   0.00000   0.04431   0.04403  -3.09948
   D40       -0.96987   0.00228   0.00000   0.02432   0.02416  -0.94571
   D41        0.95665   0.00065   0.00000   0.00000   0.00000   0.95665
   D42        3.08230   0.00060   0.00000   0.00874   0.00870   3.09100
   D43       -1.13765  -0.00112   0.00000  -0.01569  -0.01566  -1.15331
   D44       -1.15755   0.00172   0.00000   0.01531   0.01538  -1.14217
   D45        0.96810   0.00166   0.00000   0.02406   0.02408   0.99218
   D46        3.03134  -0.00005   0.00000  -0.00037  -0.00028   3.03106
   D47        3.06187   0.00060   0.00000   0.00324   0.00320   3.06507
   D48       -1.09566   0.00054   0.00000   0.01199   0.01190  -1.08377
   D49        0.96757  -0.00118   0.00000  -0.01244  -0.01246   0.95511
   D50       -0.92193  -0.00080   0.00000   0.00000   0.00000  -0.92193
   D51        1.18335  -0.00140   0.00000  -0.01055  -0.01057   1.17278
   D52       -3.04844  -0.00089   0.00000  -0.00693  -0.00697  -3.05542
   D53       -3.04921   0.00012   0.00000  -0.00042  -0.00040  -3.04962
   D54       -0.94394  -0.00047   0.00000  -0.01096  -0.01097  -0.95491
   D55        1.10745   0.00003   0.00000  -0.00735  -0.00738   1.10008
   D56        1.17623   0.00014   0.00000   0.00709   0.00713   1.18335
   D57       -3.00168  -0.00045   0.00000  -0.00346  -0.00344  -3.00512
   D58       -0.95029   0.00005   0.00000   0.00016   0.00015  -0.95013
   D59        0.98781  -0.00082   0.00000  -0.01060  -0.01065   0.97715
   D60        3.09700  -0.00079   0.00000  -0.01526  -0.01542   3.08159
   D61       -1.13112   0.00044   0.00000  -0.00195  -0.00192  -1.13304
   D62       -1.11502  -0.00126   0.00000  -0.01226  -0.01226  -1.12728
   D63        0.99417  -0.00123   0.00000  -0.01692  -0.01702   0.97715
   D64        3.04924   0.00000   0.00000  -0.00361  -0.00352   3.04571
   D65        3.11555  -0.00024   0.00000  -0.00080  -0.00080   3.11474
   D66       -1.05844  -0.00021   0.00000  -0.00545  -0.00557  -1.06401
   D67        0.99662   0.00102   0.00000   0.00786   0.00793   1.00455
   D68       -1.05243   0.00003   0.00000  -0.00254  -0.00246  -1.05490
   D69       -3.12752   0.00158   0.00000   0.00916   0.00880  -3.11872
   D70        1.08017   0.00152   0.00000   0.01554   0.01547   1.09564
   D71        3.12166  -0.00137   0.00000  -0.00993  -0.00979   3.11187
   D72        1.04657   0.00019   0.00000   0.00177   0.00148   1.04805
   D73       -1.02892   0.00013   0.00000   0.00815   0.00814  -1.02078
   D74        1.06610  -0.00031   0.00000  -0.00074  -0.00057   1.06554
   D75       -1.00898   0.00125   0.00000   0.01095   0.01070  -0.99828
   D76       -3.08448   0.00119   0.00000   0.01733   0.01736  -3.06711
   D77       -1.17217   0.00375   0.00000   0.00000  -0.00001  -1.17218
   D78        3.06383   0.00016   0.00000  -0.01978  -0.01951   3.04432
   D79        1.01240  -0.00071   0.00000  -0.03517  -0.03537   0.97702
   D80        0.13323   0.00184   0.00000   0.01829   0.01782   0.15105
   D81       -3.00084  -0.00069   0.00000  -0.03611  -0.03599  -3.03683
         Item               Value     Threshold  Converged?
 Maximum Force            0.037703     0.000450     NO 
 RMS     Force            0.006376     0.000300     NO 
 Maximum Displacement     0.277252     0.001800     NO 
 RMS     Displacement     0.054146     0.001200     NO 
 Predicted change in Energy=-1.195202D-02
 GradGradGradGradGradGradGradGradGradGradGradGradGradGradGradGradGradGrad

                          Input orientation:                          
 ---------------------------------------------------------------------
 Center     Atomic      Atomic             Coordinates (Angstroms)
 Number     Number       Type             X           Y           Z
 ---------------------------------------------------------------------
      1          8           0       -3.485614   -1.439734   -0.231715
      2          7           0       -3.135031   -0.264597   -0.047999
      3          8           0       -3.891075    0.700131    0.144115
      4          6           0       -1.690955   -0.018444   -0.034656
      5          6           0       -1.314008    1.295135    0.263689
      6          7           0       -0.060395    1.766018    0.392375
      7          6           0        1.195529    1.009302    0.371323
      8          1           0        1.830931    1.519308    1.113759
      9          6           0        1.927850    1.053772   -0.966291
     10          6           0        3.326355    0.449537   -0.795262
     11          6           0        3.260571   -0.963284   -0.204043
     12          6           0        2.439899   -0.998611    1.085004
     13          6           0        1.032061   -0.440420    0.841887
     14          1           0        0.464243   -0.451956    1.785224
     15          7           0        0.392580   -1.326424   -0.126302
     16          6           0       -0.847328   -1.136179   -0.420753
     17          1           0       -2.103322    2.022380    0.437156
     18          1           0        0.073139    2.764032    0.262602
     19          1           0        1.357780    0.488887   -1.712106
     20          1           0        1.997592    2.092438   -1.316871
     21          1           0        3.838710    0.431103   -1.763731
     22          1           0        3.916024    1.096584   -0.130702
     23          1           0        2.794967   -1.639375   -0.929428
     24          1           0        4.272256   -1.339153   -0.009690
     25          1           0        2.357729   -2.027390    1.452791
     26          1           0        2.934327   -0.406588    1.866737
     27          1           0       -1.325823   -1.872463   -1.069104
 ---------------------------------------------------------------------
                    Distance matrix (angstroms):
                    1          2          3          4          5
     1  O    0.000000
     2  N    1.240003   0.000000
     3  O    2.210129   1.240649   0.000000
     4  C    2.297760   1.464966   2.321386   0.000000
     5  C    3.527153   2.417858   2.647564   1.398781   0.000000
     6  N    4.732702   3.710891   3.983949   2.454667   1.345302
     7  C    5.317381   4.533476   5.101054   3.090772   2.528055
     8  H    6.231523   5.403034   5.861110   4.010888   3.265504
     9  C    6.005229   5.311697   5.934471   3.887589   3.475738
    10  C    7.091535   6.543539   7.282618   5.096169   4.834190
    11  C    6.763045   6.435545   7.350795   5.043711   5.123085
    12  C    6.086054   5.736055   6.622101   4.390709   4.475226
    13  C    4.749804   4.264677   5.101471   2.891575   2.974979
    14  H    4.543691   4.043586   4.794720   2.853906   2.920544
    15  N    3.881281   3.684786   4.746551   2.461774   3.152318
    16  C    2.662412   2.476326   3.599376   1.452622   2.568567
    17  H    3.787394   2.555398   2.242827   2.134857   1.087195
    18  H    5.529984   4.422830   4.470874   3.307955   2.020356
    19  H    5.419373   4.849984   5.571414   3.516534   3.419394
    20  H    6.612061   5.788736   6.224901   4.439063   3.755071
    21  H    7.713160   7.215317   7.966293   5.811110   5.604239
    22  H    7.824792   7.181715   7.821988   5.717581   5.248639
    23  H    6.322370   6.150757   7.164422   4.852992   5.188309
    24  H    7.761699   7.484921   8.415599   6.107764   6.182278
    25  H    6.109629   5.960724   6.942590   4.758173   5.092621
    26  H    6.832755   6.365806   7.125894   5.015893   4.849121
    27  H    2.356517   2.626999   3.830229   2.154249   3.436590
                    6          7          8          9         10
     6  N    0.000000
     7  C    1.466427   0.000000
     8  H    2.039209   1.102294   0.000000
     9  C    2.511253   1.525609   2.133712   0.000000
    10  C    3.822785   2.492925   2.650484   1.533026   0.000000
    11  C    4.339772   2.913166   3.153368   2.534892   1.532948
    12  C    3.791356   2.467694   2.590672   2.946571   2.533443
    13  C    2.502777   1.532921   2.133692   2.510887   2.955684
    14  H    2.671083   2.160827   2.490900   3.461243   3.957687
    15  N    3.168187   2.519519   3.421227   2.954313   3.494078
    16  C    3.114994   3.066551   4.071782   3.577025   4.480444
    17  H    2.059436   3.451533   4.023583   4.377010   5.785679
    18  H    1.015236   2.085823   2.315953   2.806265   4.130300
    19  H    2.840973   2.153563   3.044856   1.095588   2.171967
    20  H    2.695066   2.160205   2.502841   1.098452   2.176422
    21  H    4.651217   3.446618   3.673597   2.162178   1.095801
    22  H    4.066161   2.767804   2.464750   2.157053   1.099099
    23  H    4.636481   3.356433   3.883459   2.829538   2.159612
    24  H    5.345616   3.889301   3.923392   3.483879   2.170545
    25  H    4.621878   3.426629   3.601601   3.940852   3.482406
    26  H    3.982753   2.695260   2.343829   3.342409   2.823628
    27  H    4.120167   4.091041   5.121923   4.377192   5.206672
                   11         12         13         14         15
    11  C    0.000000
    12  C    1.528525   0.000000
    13  C    2.516667   1.533849   0.000000
    14  H    3.469594   2.166185   1.101106   0.000000
    15  N    2.891935   2.401299   1.459907   2.103274   0.000000
    16  C    4.117242   3.618299   2.368637   2.656071   1.288513
    17  H    6.172250   5.494265   4.007470   3.812089   4.214439
    18  H    4.926496   4.520551   3.394645   3.579654   4.121301
    19  H    2.829075   3.347753   2.737258   3.730270   2.596486
    20  H    3.488687   3.939444   3.465235   4.295124   3.960067
    21  H    2.170527   3.480811   3.927605   4.976133   4.200701
    22  H    2.162881   2.836675   3.409627   4.240700   4.276172
    23  H    1.095476   2.143498   2.771802   3.769824   2.552335
    24  H    1.096612   2.161447   3.468684   4.302301   3.881449
    25  H    2.166228   1.095631   2.156171   2.485516   2.616620
    26  H    2.168980   1.098206   2.161037   2.471844   3.358390
    27  H    4.754992   4.425434   3.355927   3.656414   2.034685
                   16         17         18         19         20
    16  C    0.000000
    17  H    3.505713   0.000000
    18  H    4.065203   2.305971   0.000000
    19  H    3.028355   4.353178   3.275066   0.000000
    20  H    4.395516   4.460831   2.578622   1.771142   0.000000
    21  H    5.120441   6.533285   4.871151   2.482140   2.519808
    22  H    5.268670   6.116542   4.207474   3.068346   2.465584
    23  H    3.711909   6.266517   5.312182   2.684695   3.835667
    24  H    5.140069   7.221328   5.877317   3.838505   4.319565
    25  H    3.817959   6.110084   5.440003   4.165108   4.977320
    26  H    4.479489   5.772477   4.562070   4.011919   4.154271
    27  H    1.091527   4.247719   5.022710   3.631962   5.179470
                   21         22         23         24         25
    21  H    0.000000
    22  H    1.765114   0.000000
    23  H    2.464212   3.062711   0.000000
    24  H    2.529512   2.464622   1.765908   0.000000
    25  H    4.310860   3.833399   2.452896   2.505581   0.000000
    26  H    3.834049   2.685706   3.059039   2.486103   1.769411
    27  H    5.697484   6.096950   4.129740   5.722348   4.466824
                   26         27
    26  H    0.000000
    27  H    5.377437   0.000000
 Symmetry turned off by external request.
 Stoichiometry    C9H13N3O2
 Framework group  C1[X(C9H13N3O2)]
 Deg. of freedom    75
 Full point group                 C1      NOp   1
 Rotational constants (GHZ):           1.6728161           0.4209058           0.3709603
 Standard basis: 6-31G(d) (6D, 7F)
   236 basis functions,   444 primitive gaussians,   236 cartesian basis functions
    52 alpha electrons       52 beta electrons
       nuclear repulsion energy       930.4066658253 Hartrees.
 NAtoms=   27 NActive=   27 NUniq=   27 SFac= 1.00D+00 NAtFMM=   60 NAOKFM=F Big=F
 Integral buffers will be    131072 words long.
 Raffenetti 1 integral format.
 Two-electron integral symmetry is turned off.
 One-electron integrals computed using PRISM.
 NBasis=   236 RedAO= T EigKep=  1.07D-03  NBF=   236
 NBsUse=   236 1.00D-06 EigRej= -1.00D+00 NBFU=   236
 Initial guess from the checkpoint file:  "/home/alexey/tmp/Gau-1291914.chk"
 B after Tr=     0.053145    0.001607   -0.000776
         Rot=    0.999999   -0.000926    0.000949    0.000530 Ang=  -0.16 deg.
 ExpMin= 1.61D-01 ExpMax= 5.48D+03 ExpMxC= 8.25D+02 IAcc=3 IRadAn=         5 AccDes= 0.00D+00
 Harris functional with IExCor=  205 and IRadAn=       5 diagonalized for initial guess.
 HarFok:  IExCor=  205 AccDes= 0.00D+00 IRadAn=         5 IDoV= 1 UseB2=F ITyADJ=14
 ICtDFT=  3500011 ScaDFX=  1.000000  1.000000  1.000000  1.000000
 FoFCou: FMM=F IPFlag=           0 FMFlag=      100000 FMFlg1=           0
         NFxFlg=           0 DoJE=T BraDBF=F KetDBF=T FulRan=T
         wScrn=  0.000000 ICntrl=       500 IOpCl=  0 I1Cent=   200000004 NGrid=           0
         NMat0=    1 NMatS0=      1 NMatT0=    0 NMatD0=    1 NMtDS0=    0 NMtDT0=    0
 Symmetry not used in FoFCou.
 Keep R1 ints in memory in canonical form, NReq=397720213.
 Requested convergence on RMS density matrix=1.00D-08 within 128 cycles.
 Requested convergence on MAX density matrix=1.00D-06.
 Requested convergence on             energy=1.00D-06.
 No special actions if energy rises.
 SCF Done:  E(RHF) =  -661.296659756     A.U. after   14 cycles
            NFock= 14  Conv=0.93D-08     -V/T= 2.0026
 ExpMin= 1.61D-01 ExpMax= 5.48D+03 ExpMxC= 8.25D+02 IAcc=3 IRadAn=         5 AccDes= 0.00D+00
 HarFok:  IExCor=  205 AccDes= 0.00D+00 IRadAn=         5 IDoV=-2 UseB2=F ITyADJ=14
 ICtDFT= 12500011 ScaDFX=  1.000000  1.000000  1.000000  1.000000
 Range of M.O.s used for correlation:    15   236
 NBasis=   236 NAE=    52 NBE=    52 NFC=    14 NFV=     0
 NROrb=    222 NOA=    38 NOB=    38 NVA=   184 NVB=   184
 Fully direct method using O(ONN) memory.
 JobTyp=1 Pass  1:  I=  15 to  52 NPSUse=  4 ParTrn=T ParDer=T DoDerP=T.
 Spin components of T(2) and E(2):
     alpha-alpha T2 =       0.9147614004D-01 E2=     -0.2724112096D+00
     alpha-beta  T2 =       0.4924522250D+00 E2=     -0.1488719774D+01
     beta-beta   T2 =       0.9147614004D-01 E2=     -0.2724112096D+00
 ANorm=    0.1294374175D+01
 E2 =    -0.2033542193D+01 EUMP2 =    -0.66333020194917D+03
          IDoAtm=111111111111111111111111111
          Differentiating once with respect to electric field.
                with respect to dipole field.
          Differentiating once with respect to nuclear coordinates.
 Keep R1 ints in memory in canonical form, NReq=397723379.
          There are     1 degrees of freedom in the 1st order CPHF.  IDoFFX=0 NUNeed=     1.
 LinEq1:  Iter=  0 NonCon=     1 RMS=4.61D-03 Max=1.03D-01 NDo=     1
 AX will form     1 AO Fock derivatives at one time.
 LinEq1:  Iter=  1 NonCon=     1 RMS=1.55D-03 Max=2.73D-02 NDo=     1
 LinEq1:  Iter=  2 NonCon=     1 RMS=6.51D-04 Max=1.73D-02 NDo=     1
 LinEq1:  Iter=  3 NonCon=     1 RMS=2.91D-04 Max=1.00D-02 NDo=     1
[...]
                   16         17         18         19         20
    16  C    0.000000
    17  H    3.479889   0.000000
    18  H    4.103195   2.241017   0.000000
    19  H    2.993833   4.298316   3.507883   0.000000
    20  H    4.381743   4.442077   2.874005   1.768827   0.000000
    21  H    5.098605   6.507633   5.080057   2.499280   2.520397
    22  H    5.253015   6.100216   4.307560   3.070311   2.461575
    23  H    3.692710   6.237559   5.419695   2.703325   3.842566
    24  H    5.133268   7.204688   5.934365   3.849056   4.316976
    25  H    3.820254   6.098149   5.371754   4.170311   4.984679
    26  H    4.496973   5.788264   4.484285   4.033964   4.180961
    27  H    1.089801   4.234887   5.097144   3.591672   5.158762
                   21         22         23         24         25
    21  H    0.000000
    22  H    1.758878   0.000000
    23  H    2.469668   3.062435   0.000000
    24  H    2.517604   2.459985   1.764689   0.000000
    25  H    4.311942   3.839149   2.444237   2.519550   0.000000
    26  H    3.846189   2.703619   3.060405   2.492355   1.768036
    27  H    5.657161   6.065639   4.087820   5.692606   4.449864
                   26         27
    26  H    0.000000
    27  H    5.378243   0.000000
 Symmetry turned off by external request.
 Stoichiometry    C9H13N3O2
 Framework group  C1[X(C9H13N3O2)]
 Deg. of freedom    75
 Full point group                 C1      NOp   1
 Rotational constants (GHZ):           1.6717916           0.4189456           0.3715624

 **********************************************************************

            Population analysis using the SCF Density.

 **********************************************************************

 Alpha  occ. eigenvalues --  -20.59011 -20.58684 -15.84579 -15.64587 -15.55941
 Alpha  occ. eigenvalues --  -11.35594 -11.29755 -11.29505 -11.28733 -11.27158
 Alpha  occ. eigenvalues --  -11.23825 -11.23258 -11.22702 -11.22104  -1.56925
 Alpha  occ. eigenvalues --   -1.36505  -1.31218  -1.23020  -1.14487  -1.09665
 Alpha  occ. eigenvalues --   -1.02892  -1.01357  -0.94352  -0.89622  -0.85601
 Alpha  occ. eigenvalues --   -0.82426  -0.78599  -0.77420  -0.75130  -0.72115
 Alpha  occ. eigenvalues --   -0.69598  -0.69302  -0.67842  -0.64882  -0.63811
 Alpha  occ. eigenvalues --   -0.62478  -0.60206  -0.57785  -0.57022  -0.55110
 Alpha  occ. eigenvalues --   -0.54619  -0.50755  -0.50059  -0.48502  -0.48095
 Alpha  occ. eigenvalues --   -0.47258  -0.46153  -0.46049  -0.43550  -0.41744
 Alpha  occ. eigenvalues --   -0.39772  -0.33523
 Alpha virt. eigenvalues --    0.07374   0.11759   0.17166   0.21811   0.24060
 Alpha virt. eigenvalues --    0.25518   0.27080   0.28649   0.29004   0.29532
 Alpha virt. eigenvalues --    0.30610   0.31777   0.31989   0.32737   0.33904
 Alpha virt. eigenvalues --    0.34363   0.35846   0.37290   0.38521   0.40280
 Alpha virt. eigenvalues --    0.41336   0.42385   0.44644   0.45956   0.46697
 Alpha virt. eigenvalues --    0.47041   0.49068   0.53558   0.57507   0.59503
 Alpha virt. eigenvalues --    0.64099   0.69490   0.69817   0.72861   0.74237
 Alpha virt. eigenvalues --    0.74626   0.75726   0.76670   0.78483   0.79447
 Alpha virt. eigenvalues --    0.81420   0.84500   0.85449   0.85810   0.88386
 Alpha virt. eigenvalues --    0.89337   0.91021   0.92058   0.92827   0.94450
 Alpha virt. eigenvalues --    0.95707   0.98012   0.99511   1.01609   1.02462
 Alpha virt. eigenvalues --    1.03158   1.05819   1.06932   1.07940   1.08765
 Alpha virt. eigenvalues --    1.10350   1.11421   1.11819   1.12318   1.13833
 Alpha virt. eigenvalues --    1.14660   1.14941   1.15840   1.16910   1.18686
 Alpha virt. eigenvalues --    1.19092   1.21274   1.22585   1.23931   1.24404
 Alpha virt. eigenvalues --    1.24749   1.25675   1.26944   1.27305   1.29407
 Alpha virt. eigenvalues --    1.30014   1.33141   1.35971   1.37001   1.40740
 Alpha virt. eigenvalues --    1.41709   1.46251   1.48654   1.51896   1.54231
 Alpha virt. eigenvalues --    1.56380   1.58652   1.59418   1.63293   1.65784
 Alpha virt. eigenvalues --    1.68147   1.68622   1.72689   1.75125   1.77329
 Alpha virt. eigenvalues --    1.81334   1.84545   1.87446   1.90579   1.93309
 Alpha virt. eigenvalues --    1.95800   1.96762   1.99734   2.01782   2.02355
 Alpha virt. eigenvalues --    2.05074   2.05643   2.08648   2.09270   2.12543
 Alpha virt. eigenvalues --    2.13117   2.15157   2.18579   2.19789   2.22348
 Alpha virt. eigenvalues --    2.22405   2.24490   2.25631   2.28169   2.29490
 Alpha virt. eigenvalues --    2.31514   2.33474   2.34514   2.36205   2.38498
 Alpha virt. eigenvalues --    2.40089   2.41981   2.43845   2.44690   2.47203
 Alpha virt. eigenvalues --    2.50207   2.51754   2.53006   2.55384   2.61137
 Alpha virt. eigenvalues --    2.62172   2.65028   2.67322   2.70100   2.70383
 Alpha virt. eigenvalues --    2.72132   2.72416   2.76581   2.78308   2.83882
 Alpha virt. eigenvalues --    2.88207   2.88543   2.92699   2.92898   2.96009
 Alpha virt. eigenvalues --    2.99202   3.01208   3.04035   3.05525   3.07464
 Alpha virt. eigenvalues --    3.09337   3.14825   3.21045   3.25370   3.27331
 Alpha virt. eigenvalues --    3.33393   3.37850   3.38585   3.51341   3.64370
 Alpha virt. eigenvalues --    4.13684   4.28260   4.34506   4.38776   4.46276
 Alpha virt. eigenvalues --    4.55265   4.61697   4.62251   4.73377   4.79593
 Alpha virt. eigenvalues --    4.99098   5.00820   5.04802   5.11136
          Condensed to atoms (all electrons):
               1          2          3          4          5          6
     1  O    8.318152   0.307745  -0.082369  -0.086241   0.004363  -0.000014
     2  N    0.307745   5.718025   0.300253   0.264258  -0.051488   0.000919
     3  O   -0.082369   0.300253   8.357590  -0.092326   0.003476   0.000796
     4  C   -0.086241   0.264258  -0.092326   5.243523   0.551218  -0.047698
     5  C    0.004363  -0.051488   0.003476   0.551218   4.706277   0.319836
     6  N   -0.000014   0.000919   0.000796  -0.047698   0.319836   7.189680
     7  C    0.000003  -0.000134   0.000002   0.004567  -0.029819   0.166189
     8  H   -0.000000   0.000002  -0.000000  -0.000251   0.003066  -0.050735
     9  C   -0.000000  -0.000004  -0.000000   0.000856   0.000535  -0.061650
    10  C    0.000000   0.000000   0.000000  -0.000038  -0.000049   0.003736
    11  C   -0.000000  -0.000000  -0.000000  -0.000027   0.000024  -0.000189
    12  C   -0.000000   0.000002  -0.000000  -0.000131  -0.000165   0.003855
    13  C   -0.000023  -0.000036  -0.000004  -0.011618  -0.000562  -0.047025
    14  H   -0.000004  -0.000104   0.000001   0.002946   0.005968  -0.007000
    15  N    0.000400   0.002335  -0.000016  -0.064131  -0.005891   0.001617
    16  C    0.001248  -0.027472   0.002559   0.331197  -0.048193  -0.001545
    17  H    0.000203  -0.006602   0.017049  -0.022464   0.374338  -0.034180
    18  H    0.000001  -0.000049   0.000011   0.001557  -0.031515   0.337848
    19  H    0.000001  -0.000005   0.000000  -0.001208   0.001236  -0.000402
    20  H    0.000000  -0.000000   0.000000  -0.000077   0.000154  -0.000477
    21  H   -0.000000   0.000000   0.000000   0.000001   0.000001  -0.000077
    22  H   -0.000000   0.000000  -0.000000  -0.000000  -0.000003  -0.000118
    23  H    0.000000  -0.000000   0.000000   0.000041  -0.000000  -0.000031
    24  H    0.000000   0.000000   0.000000   0.000000  -0.000000   0.000006
    25  H    0.000000  -0.000000   0.000000   0.000023  -0.000000  -0.000089
    26  H    0.000000  -0.000000   0.000000   0.000007  -0.000002  -0.000059
    27  H    0.006338  -0.000819   0.000025  -0.063665   0.002162   0.000008
               7          8          9         10         11         12
     1  O    0.000003  -0.000000  -0.000000   0.000000  -0.000000  -0.000000
     2  N   -0.000134   0.000002  -0.000004   0.000000  -0.000000   0.000002
     3  O    0.000002  -0.000000  -0.000000   0.000000  -0.000000  -0.000000
     4  C    0.004567  -0.000251   0.000856  -0.000038  -0.000027  -0.000131
     5  C   -0.029819   0.003066   0.000535  -0.000049   0.000024  -0.000165
     6  N    0.166189  -0.050735  -0.061650   0.003736  -0.000189   0.003855
     7  C    5.025694   0.418216   0.350065  -0.054512  -0.009109  -0.061184
     8  H    0.418216   0.536881  -0.054718   0.000773  -0.000329  -0.002209
     9  C    0.350065  -0.054718   5.158011   0.325095  -0.050430  -0.005476
    10  C   -0.054512   0.000773   0.325095   5.118785   0.337043  -0.061047
    11  C   -0.009109  -0.000329  -0.050430   0.337043   5.119894   0.335916
    12  C   -0.061184  -0.002209  -0.005476  -0.061047   0.335916   5.119499
    13  C    0.336913  -0.037708  -0.060018  -0.000389  -0.050631   0.372218
    14  H   -0.047101  -0.000700   0.004424  -0.000404   0.004201  -0.036347
    15  N   -0.058083   0.003848  -0.014277   0.001515  -0.013120  -0.082440
    16  C   -0.001872   0.000005  -0.001212  -0.000033   0.000028   0.002576
    17  H    0.001560  -0.000044  -0.000070   0.000001   0.000000   0.000000
    18  H   -0.021024  -0.004464   0.001319  -0.000083   0.000004  -0.000113
    19  H   -0.036967   0.004346   0.390294  -0.031928  -0.002203   0.000678
    20  H   -0.042606  -0.002056   0.399510  -0.035286   0.003928  -0.000416
    21  H    0.004606  -0.000075  -0.036422   0.402491  -0.034850   0.004350
    22  H   -0.004882   0.003551  -0.047007   0.397776  -0.045359  -0.001018
    23  H    0.000573   0.000035  -0.001963  -0.038970   0.399168  -0.037838
    24  H   -0.000128  -0.000102   0.004398  -0.038472   0.402320  -0.038682
    25  H    0.005172  -0.000026  -0.000418   0.004191  -0.033309   0.398286
    26  H   -0.003921   0.001675   0.000979  -0.002254  -0.041540   0.396568
    27  H   -0.000402   0.000009  -0.000057   0.000006   0.000012  -0.000034
              13         14         15         16         17         18
     1  O   -0.000023  -0.000004   0.000400   0.001248   0.000203   0.000001
     2  N   -0.000036  -0.000104   0.002335  -0.027472  -0.006602  -0.000049
     3  O   -0.000004   0.000001  -0.000016   0.002559   0.017049   0.000011
     4  C   -0.011618   0.002946  -0.064131   0.331197  -0.022464   0.001557
     5  C   -0.000562   0.005968  -0.005891  -0.048193   0.374338  -0.031515
     6  N   -0.047025  -0.007000   0.001617  -0.001545  -0.034180   0.337848
     7  C    0.336913  -0.047101  -0.058083  -0.001872   0.001560  -0.021024
     8  H   -0.037708  -0.000700   0.003848   0.000005  -0.000044  -0.004464
     9  C   -0.060018   0.004424  -0.014277  -0.001212  -0.000070   0.001319
    10  C   -0.000389  -0.000404   0.001515  -0.000033   0.000001  -0.000083
    11  C   -0.050631   0.004201  -0.013120   0.000028   0.000000   0.000004
    12  C    0.372218  -0.036347  -0.082440   0.002576   0.000000  -0.000113
    13  C    5.037276   0.402986   0.246296  -0.070921  -0.000003   0.002925
    14  H    0.402986   0.527647  -0.037505  -0.004495   0.000088  -0.000117
    15  N    0.246296  -0.037505   6.969331   0.584020  -0.000074  -0.000130
    16  C   -0.070921  -0.004495   0.584020   4.705221   0.001894  -0.000196
    17  H   -0.000003   0.000088  -0.000074   0.001894   0.374739  -0.002765
    18  H    0.002925  -0.000117  -0.000130  -0.000196  -0.002765   0.309576
    19  H   -0.007493   0.000112   0.007745   0.003000   0.000016  -0.000150
    20  H    0.004328  -0.000066   0.000127  -0.000035   0.000002   0.000825
    21  H   -0.000434   0.000010  -0.000041   0.000004  -0.000000   0.000001
    22  H    0.000055  -0.000055   0.000018  -0.000002   0.000000   0.000001
    23  H   -0.007548   0.000006   0.008718   0.000109   0.000000   0.000000
    24  H    0.004694  -0.000056   0.000138   0.000007   0.000000  -0.000000
    25  H   -0.035482  -0.002832   0.000453  -0.000022  -0.000000   0.000002
    26  H   -0.047449  -0.001034   0.004915  -0.000060   0.000000  -0.000000
    27  H    0.005053  -0.000170  -0.040360   0.403737  -0.000073   0.000001
              19         20         21         22         23         24
     1  O    0.000001   0.000000  -0.000000  -0.000000   0.000000   0.000000
     2  N   -0.000005  -0.000000   0.000000   0.000000  -0.000000   0.000000
     3  O    0.000000   0.000000   0.000000  -0.000000   0.000000   0.000000
     4  C   -0.001208  -0.000077   0.000001  -0.000000   0.000041   0.000000
     5  C    0.001236   0.000154   0.000001  -0.000003  -0.000000  -0.000000
     6  N   -0.000402  -0.000477  -0.000077  -0.000118  -0.000031   0.000006
     7  C   -0.036967  -0.042606   0.004606  -0.004882   0.000573  -0.000128
     8  H    0.004346  -0.002056  -0.000075   0.003551   0.000035  -0.000102
     9  C    0.390294   0.399510  -0.036422  -0.047007  -0.001963   0.004398
    10  C   -0.031928  -0.035286   0.402491   0.397776  -0.038970  -0.038472
    11  C   -0.002203   0.003928  -0.034850  -0.045359   0.399168   0.402320
    12  C    0.000678  -0.000416   0.004350  -0.001018  -0.037838  -0.038682
    13  C   -0.007493   0.004328  -0.000434   0.000055  -0.007548   0.004694
    14  H    0.000112  -0.000066   0.000010  -0.000055   0.000006  -0.000056
    15  N    0.007745   0.000127  -0.000041   0.000018   0.008718   0.000138
    16  C    0.003000  -0.000035   0.000004  -0.000002   0.000109   0.000007
    17  H    0.000016   0.000002  -0.000000   0.000000   0.000000   0.000000
    18  H   -0.000150   0.000825   0.000001   0.000001   0.000000  -0.000000
    19  H    0.503663  -0.024723  -0.002780   0.003947   0.001511  -0.000066
    20  H   -0.024723   0.541416  -0.002701  -0.002982  -0.000045  -0.000083
    21  H   -0.002780  -0.002701   0.523641  -0.027371  -0.002888  -0.002244
    22  H    0.003947  -0.002982  -0.027371   0.571262   0.004128  -0.003654
    23  H    0.001511  -0.000045  -0.002888   0.004128   0.498190  -0.025405
    24  H   -0.000066  -0.000083  -0.002244  -0.003654  -0.025405   0.538066
    25  H   -0.000029   0.000012  -0.000086  -0.000081  -0.002309  -0.002301
    26  H    0.000019  -0.000030  -0.000081   0.002382   0.004068  -0.003023
    27  H    0.000083   0.000000  -0.000000   0.000000  -0.000036  -0.000000
              25         26         27
     1  O    0.000000   0.000000   0.006338
     2  N   -0.000000  -0.000000  -0.000819
     3  O    0.000000   0.000000   0.000025
     4  C    0.000023   0.000007  -0.063665
     5  C   -0.000000  -0.000002   0.002162
     6  N   -0.000089  -0.000059   0.000008
     7  C    0.005172  -0.003921  -0.000402
     8  H   -0.000026   0.001675   0.000009
     9  C   -0.000418   0.000979  -0.000057
    10  C    0.004191  -0.002254   0.000006
    11  C   -0.033309  -0.041540   0.000012
    12  C    0.398286   0.396568  -0.000034
    13  C   -0.035482  -0.047449   0.005053
    14  H   -0.002832  -0.001034  -0.000170
    15  N    0.000453   0.004915  -0.040360
    16  C   -0.000022  -0.000060   0.403737
    17  H   -0.000000   0.000000  -0.000073
    18  H    0.000002  -0.000000   0.000001
    19  H   -0.000029   0.000019   0.000083
    20  H    0.000012  -0.000030   0.000000
    21  H   -0.000086  -0.000081  -0.000000
    22  H   -0.000081   0.002382   0.000000
    23  H   -0.002309   0.004068  -0.000036
    24  H   -0.002301  -0.003023  -0.000000
    25  H    0.505312  -0.024045  -0.000013
    26  H   -0.024045   0.562855   0.000001
    27  H   -0.000013   0.000001   0.439012
 Mulliken charges:
               1
     1  O   -0.469802
     2  N    0.493173
     3  O   -0.507047
     4  C   -0.010318
     5  C    0.195032
     6  N   -0.773202
     7  C    0.058182
     8  H    0.181013
     9  C   -0.301763
    10  C   -0.327949
    11  C   -0.321442
    12  C   -0.306850
    13  C   -0.035401
    14  H    0.189601
    15  N   -0.515407
    16  C    0.120454
    17  H    0.296382
    18  H    0.406535
    19  H    0.191301
    20  H    0.161279
    21  H    0.174945
    22  H    0.149409
    23  H    0.200487
    24  H    0.164586
    25  H    0.187589
    26  H    0.150028
    27  H    0.249184
 Sum of Mulliken charges =  -0.00000
 Mulliken charges with hydrogens summed into heavy atoms:
               1
     1  O   -0.469802
     2  N    0.493173
     3  O   -0.507047
     4  C   -0.010318
     5  C    0.491414
     6  N   -0.366666
     7  C    0.239194
     9  C    0.050818
    10  C   -0.003595
    11  C    0.043631
    12  C    0.030767
    13  C    0.154199
    15  N   -0.515407
    16  C    0.369639
 Electronic spatial extent (au):  <R**2>=           3009.9493
 Charge=              0.0000 electrons
 Dipole moment (field-independent basis, Debye):
    X=              5.5434    Y=              4.9353    Z=              1.3166  Tot=              7.5379
 Quadrupole moment (field-independent basis, Debye-Ang):
   XX=           -106.5621   YY=            -78.9727   ZZ=            -81.5748
   XY=             -1.8141   XZ=             -0.2932   YZ=              1.8721
 Traceless Quadrupole moment (field-independent basis, Debye-Ang):
   XX=            -17.5256   YY=             10.0638   ZZ=              7.4617
   XY=             -1.8141   XZ=             -0.2932   YZ=              1.8721
 Octapole moment (field-independent basis, Debye-Ang**2):
  XXX=             94.5876  YYY=             37.0721  ZZZ=             -1.3050  XYY=             -4.5263
  XXY=              9.7520  XXZ=              5.6067  XZZ=             -9.4072  YZZ=             -0.2511
  YYZ=              8.1807  XYZ=              0.3744
 Hexadecapole moment (field-independent basis, Debye-Ang**3):
 XXXX=          -3390.9210 YYYY=           -602.1945 ZZZZ=           -304.4745 XXXY=            -22.0351
 XXXZ=            -18.8863 YYYX=             -9.6422 YYYZ=             24.7361 ZZZX=             -0.8250
 ZZZY=              6.5077 XXYY=           -628.7107 XXZZ=           -524.8245 YYZZ=           -157.9139
 XXYZ=             -4.8433 YYXZ=              0.5895 ZZXY=              4.3201
 N-N= 9.303255281679D+02 E-N=-3.407313372605D+03  KE= 6.595614961474D+02
 Unable to Open any file for archive entry.
 1\1\GINC-LOTUS\FOpt\RMP2-FC\6-31G(d)\C9H13N3O2\ALEXEY\01-Jul-2023\0\\#
 MP2/6-31G* SCF=Tight Opt=(ModRedun, MaxCycle=20 ) NoSymm\\MolName:\\0,
 1\O,-3.5153363246,-1.3891601689,-0.3899569826\N,-3.1238230911,-0.23463
 90429,-0.1294574928\O,-3.893712505,0.7304344717,0.0440739307\C,-1.6915
 829555,-0.0365033052,-0.0087879776\C,-1.2979193089,1.2748027189,0.2777
 308786\N,-0.0532280999,1.7553370829,0.3916260601\C,1.2069340255,1.0241
 313012,0.3637951301\H,1.8564481164,1.5514457253,1.0786528269\C,1.90697
 57789,1.0357404472,-0.9939569624\C,3.3055590697,0.4286498696,-0.833524
 4646\C,3.2584299763,-0.9676433064,-0.2074366788\C,2.4664401157,-0.9778
 863338,1.1017361945\C,1.0555786074,-0.42561261,0.8675009455\H,0.481037
 5686,-0.4042728874,1.8073270653\N,0.4081536525,-1.3216596233,-0.084933
 9594\C,-0.8403013548,-1.1465287418,-0.3803186641\H,-2.0941193341,2.000
 8554492,0.414377208\H,0.011261804,2.7416128459,0.6163783177\H,1.310385
 0269,0.4580664897,-1.7080444785\H,1.9723975957,2.0635697621,-1.3721158
 491\H,3.8067829551,0.3908775481,-1.8074705187\H,3.9071756323,1.0945902
 332,-0.1986324786\H,2.7785394813,-1.6639784996,-0.9021838528\H,4.27784
 56219,-1.3316498012,-0.0328351788\H,2.3819234187,-1.9996033102,1.48619
 37541\H,2.9777361984,-0.3794691936,1.8684537007\H,-1.3005916714,-1.907
 4971204,-1.0101804733\\Version=ES64L-G16RevC.02\HF=-661.2992589\MP2=-6
 63.3339673\RMSD=4.258e-09\RMSF=3.974e-03\Dipole=2.0247839,1.7293621,0.
 4825398\PG=C01 [X(C9H13N3O2)]\\@
 The archive entry for this job was punched.


 TRUTH, IN SCIENCE, CAN BE DEFINED AS THE WORKING HYPOTHESIS 
 BEST FITTED TO OPEN THE WAY TO THE NEXT BETTER ONE.

                              -- KONRAD LORENZ
 Job cpu time:       0 days  1 hours 10 minutes 47.6 seconds.
 Elapsed time:       0 days  0 hours 21 minutes 32.6 seconds.
 File lengths (MBytes):  RWF=     36 Int=      0 D2E=      0 Chk=      7 Scr=      1
 Normal termination of Gaussian 16 at Sat Jul  1 08:39:23 2023.
