 Entering Gaussian System, Link 0=g16
 Initial command:
 /home/alexey/programs//g16/l1.exe "/home/alexey/tmp/Gau-1294937.inp" -scrdir="/home/alexey/tmp/"
 Entering Link 1 = /home/alexey/programs//g16/l1.exe PID=   1294939.
  
 Copyright (c) 1988-2021, Gaussian, Inc.  All Rights Reserved.
  
 This is part of the Gaussian(R) 16 program.  It is based on
 the Gaussian(R) 09 system (copyright 2009, Gaussian, Inc.),
 the Gaussian(R) 03 system (copyright 2003, Gaussian, Inc.),
 the Gaussian(R) 98 system (copyright 1998, Gaussian, Inc.),
 the Gaussian(R) 94 system (copyright 1995, Gaussian, Inc.),
 the Gaussian 92(TM) system (copyright 1992, Gaussian, Inc.),
 the Gaussian 90(TM) system (copyright 1990, Gaussian, Inc.),
 the Gaussian 88(TM) system (copyright 1988, Gaussian, Inc.),
 the Gaussian 86(TM) system (copyright 1986, Carnegie Mellon
 University), and the Gaussian 82(TM) system (copyright 1983,
 Carnegie Mellon University). Gaussian is a federally registered
 trademark of Gaussian, Inc.
  
 This software contains proprietary and confidential information,
 including trade secrets, belonging to Gaussian, Inc.
  
 This software is provided under written license and may be
 used, copied, transmitted, or stored only in accord with that
 written license.
  
 The following legend is applicable only to US Government
 contracts under FAR:
  
                    RESTRICTED RIGHTS LEGEND
  
 Use, reproduction and disclosure by the US Government is
 subject to restrictions as set forth in subparagraphs (a)
 and (c) of the Commercial Computer Software - Restricted
 Rights clause in FAR 52.227-19.
  
 Gaussian, Inc.
 340 Quinnipiac St., Bldg. 40, Wallingford CT 06492
  
  
 ---------------------------------------------------------------
 Warning -- This program may not be used in any manner that
 competes with the business of Gaussian, Inc. or will provide
 assistance to any competitor of Gaussian, Inc.  The licensee
 of this program is prohibited from giving any competitor of
 Gaussian, Inc. access to this program.  By using this program,
 the user acknowledges that Gaussian, Inc. is engaged in the
 business of creating and licensing software in the field of
 computational chemistry and represents and warrants to the
 licensee that it is not a competitor of Gaussian, Inc. and that
 it will not use this program in any manner prohibited above.
 ---------------------------------------------------------------
  

 Cite this work as:
 Gaussian 16, Revision C.02,
 M. J. Frisch, G. W. Trucks, H. B. Schlegel, G. E. Scuseria, 
 M. A. Robb, J. R. Cheeseman, G. Scalmani, V. Barone, 
 G. A. Petersson, H. Nakatsuji, X. Li, M. Caricato, A. V. Marenich, 
 J. Bloino, B. G. Janesko, R. Gomperts, B. Mennucci, H. P. Hratchian, 
 J. V. Ortiz, A. F. Izmaylov, J. L. Sonnenberg, D. Williams-Young, 
 F. Ding, F. Lipparini, F. Egidi, J. Goings, B. Peng, A. Petrone, 
 T. Henderson, D. Ranasinghe, V. G. Zakrzewski, J. Gao, N. Rega, 
 G. Zheng, W. Liang, M. Hada, M. Ehara, K. Toyota, R. Fukuda, 
 J. Hasegawa, M. Ishida, T. Nakajima, Y. Honda, O. Kitao, H. Nakai, 
 T. Vreven, K. Throssell, J. A. Montgomery, Jr., J. E. Peralta, 
 F. Ogliaro, M. J. Bearpark, J. J. Heyd, E. N. Brothers, K. N. Kudin, 
 V. N. Staroverov, T. A. Keith, R. Kobayashi, J. Normand, 
 K. Raghavachari, A. P. Rendell, J. C. Burant, S. S. Iyengar, 
 J. Tomasi, M. Cossi, J. M. Millam, M. Klene, C. Adamo, R. Cammi, 
 J. W. Ochterski, R. L. Martin, K. Morokuma, O. Farkas, 
 J. B. Foresman, and D. J. Fox, Gaussian, Inc., Wallingford CT, 2019.
 
 ******************************************
 Gaussian 16:  ES64L-G16RevC.02  7-Dec-2021
                 1-Jul-2023 
 ******************************************
 %mem=8GB
 %NPROCS=4
 Will use up to    4 processors via shared memory.
 %NoSave
 ---------------------------------------------------------
 #MP2/6-31G* SCF=Tight Opt=(ModRedun, MaxCycle=20 ) NoSymm
 ---------------------------------------------------------
 1/6=20,18=120,19=15,38=1/1,3;
 2/9=110,12=2,15=1,17=6,18=5,40=1/2;
 3/5=1,6=6,7=1,11=9,25=1,30=1,71=1/1,2,3;
 4//1;
 5/5=2,32=2,38=5/2;
 8/6=4,10=2/1;
 9/15=2,16=-3/6;
 10/5=1,31=1/2;
 6/7=2,8=2,9=2,10=2/1;
 7/12=2,30=1/1,2,3,16;
 1/6=20,18=20,19=15/3(2);
 2/9=110,15=1/2;
 99//99;
 2/9=110,15=1/2;
 3/5=1,6=6,7=1,11=9,25=1,30=1,71=1/1,2,3;
 4/5=5,16=3,69=1/1;
 5/5=2,32=2,38=5/2;
 8/6=4,10=2/1;
 9/15=2,16=-3/6;
 10/5=1,31=1/2;
 7/12=2,30=1/1,2,3,16;
 1/6=20,18=20,19=15/3(-8);
 2/9=110,15=1/2;
 6/7=2,8=2,9=2,10=2/1;
 99/9=10/99;
 --------
 MolName:
 --------
 Symbolic Z-matrix:
 Charge =  0 Multiplicity = 1
 8                    0    -3.62269  -1.45325  -0.19045 
 7                    0    -3.26051  -0.28941  -0.02732 
 8                    0    -4.03642   0.65259   0.13575 
 6                    0    -1.76241  -0.00332  -0.04508 
 6                    0    -1.36703   1.32928   0.27571 
 7                    0    -0.07718   1.77743   0.38712 
 6                    0     1.19793   0.9978    0.3609 
 1                    0     1.86164   1.49184   1.11735 
 6                    0     1.96612   1.04964  -0.98335 
 6                    0     3.3764    0.45971  -0.79168 
 6                    0     3.3101   -0.95723  -0.20021 
 6                    0     2.4587   -0.99136   1.08724 
 6                    0     1.02333  -0.45288   0.83728 
 1                    0     0.47218  -0.49179   1.80603 
 7                    0     0.36777  -1.32244  -0.1433 
 6                    0    -0.87281  -1.12287  -0.44569 
 1                    0    -2.15452   2.06781   0.49969 
 1                    0     0.15949   2.75822   0.21913 
 1                    0     1.41712   0.47542  -1.75976 
 1                    0     2.05576   2.09999  -1.3332 
 1                    0     3.91338   0.43646  -1.76517 
 1                    0     3.95326   1.11099  -0.09761 
 1                    0     2.86328  -1.6442   -0.95398 
 1                    0     4.33679  -1.3236    0.01865 
 1                    0     2.39762  -2.0381    1.45785 
 1                    0     2.95182  -0.38221   1.87354 
 1                    0    -1.37112  -1.8715   -1.08044 
 
 The following ModRedundant input section has been read:
 B       4       5 F                                                           
 D       1       2       4      16 F                                           
 D       7      13      15      16 F                                           
 D       7       9      10      11 F                                           
 D       9      10      11      12 F                                           
 D       6       7      13      15 F                                           
 

 GradGradGradGradGradGradGradGradGradGradGradGradGradGradGradGradGradGrad
 Berny optimization.
 Initialization pass.
                           ----------------------------
                           !    Initial Parameters    !
                           ! (Angstroms and Degrees)  !
 --------------------------                            --------------------------
 ! Name  Definition              Value          Derivative Info.                !
 --------------------------------------------------------------------------------
 ! R1    R(1,2)                  1.2298         estimate D2E/DX2                !
 ! R2    R(2,3)                  1.2313         estimate D2E/DX2                !
 ! R3    R(2,4)                  1.5253         estimate D2E/DX2                !
 ! R4    R(4,5)                  1.4266         Frozen                          !
 ! R5    R(4,16)                 1.485          estimate D2E/DX2                !
 ! R6    R(5,6)                  1.37           estimate D2E/DX2                !
 ! R7    R(5,17)                 1.1026         estimate D2E/DX2                !
 ! R8    R(6,7)                  1.4948         estimate D2E/DX2                !
 ! R9    R(6,18)                 1.0228         estimate D2E/DX2                !
 ! R10   R(7,8)                  1.1211         estimate D2E/DX2                !
 ! R11   R(7,9)                  1.5491         estimate D2E/DX2                !
 ! R12   R(7,13)                 1.5368         estimate D2E/DX2                !
 ! R13   R(9,10)                 1.5407         estimate D2E/DX2                !
 ! R14   R(9,19)                 1.1108         estimate D2E/DX2                !
 ! R15   R(9,20)                 1.1107         estimate D2E/DX2                !
 ! R16   R(10,11)                1.5369         estimate D2E/DX2                !
 ! R17   R(10,21)                1.112          estimate D2E/DX2                !
 ! R18   R(10,22)                1.113          estimate D2E/DX2                !
 ! R19   R(11,12)                1.5439         estimate D2E/DX2                !
 ! R20   R(11,23)                1.1134         estimate D2E/DX2                !
 ! R21   R(11,24)                1.1119         estimate D2E/DX2                !
 ! R22   R(12,13)                1.5533         estimate D2E/DX2                !
 ! R23   R(12,25)                1.1121         estimate D2E/DX2                !
 ! R24   R(12,26)                1.1102         estimate D2E/DX2                !
 ! R25   R(13,14)                1.1152         estimate D2E/DX2                !
 ! R26   R(13,15)                1.4654         estimate D2E/DX2                !
 ! R27   R(15,16)                1.2924         estimate D2E/DX2                !
 ! R28   R(16,27)                1.1008         estimate D2E/DX2                !
 ! A1    A(1,2,3)              123.782          estimate D2E/DX2                !
 ! A2    A(1,2,4)              117.7253         estimate D2E/DX2                !
 ! A3    A(3,2,4)              118.489          estimate D2E/DX2                !
 ! A4    A(2,4,5)              116.4114         estimate D2E/DX2                !
 ! A5    A(2,4,16)             116.751          estimate D2E/DX2                !
 ! A6    A(5,4,16)             126.7896         estimate D2E/DX2                !
 ! A7    A(4,5,6)              125.7883         estimate D2E/DX2                !
 ! A8    A(4,5,17)             118.2567         estimate D2E/DX2                !
 ! A9    A(6,5,17)             115.8995         estimate D2E/DX2                !
 ! A10   A(5,6,7)              129.1297         estimate D2E/DX2                !
 ! A11   A(5,6,18)             121.2087         estimate D2E/DX2                !
 ! A12   A(7,6,18)             107.4494         estimate D2E/DX2                !
 ! A13   A(6,7,8)              105.2684         estimate D2E/DX2                !
 ! A14   A(6,7,9)              114.8834         estimate D2E/DX2                !
 ! A15   A(6,7,13)             112.9527         estimate D2E/DX2                !
 ! A16   A(8,7,9)              106.0925         estimate D2E/DX2                !
 ! A17   A(8,7,13)             105.9073         estimate D2E/DX2                !
 ! A18   A(9,7,13)             110.91           estimate D2E/DX2                !
 ! A19   A(7,9,10)             109.4601         estimate D2E/DX2                !
 ! A20   A(7,9,19)             110.1287         estimate D2E/DX2                !
 ! A21   A(7,9,20)             110.1811         estimate D2E/DX2                !
 ! A22   A(10,9,19)            109.9633         estimate D2E/DX2                !
 ! A23   A(10,9,20)            109.1116         estimate D2E/DX2                !
 ! A24   A(19,9,20)            107.9732         estimate D2E/DX2                !
 ! A25   A(9,10,11)            111.1873         estimate D2E/DX2                !
 ! A26   A(9,10,21)            109.9451         estimate D2E/DX2                !
 ! A27   A(9,10,22)            109.1453         estimate D2E/DX2                !
 ! A28   A(11,10,21)           109.7836         estimate D2E/DX2                !
 ! A29   A(11,10,22)           108.7762         estimate D2E/DX2                !
 ! A30   A(21,10,22)           107.9321         estimate D2E/DX2                !
 ! A31   A(10,11,12)           111.414          estimate D2E/DX2                !
 ! A32   A(10,11,23)           109.0026         estimate D2E/DX2                !
 ! A33   A(10,11,24)           109.8599         estimate D2E/DX2                !
 ! A34   A(12,11,23)           109.2439         estimate D2E/DX2                !
 ! A35   A(12,11,24)           109.7426         estimate D2E/DX2                !
 ! A36   A(23,11,24)           107.4885         estimate D2E/DX2                !
 ! A37   A(11,12,13)           111.5764         estimate D2E/DX2                !
 ! A38   A(11,12,25)           109.208          estimate D2E/DX2                !
 ! A39   A(11,12,26)           109.484          estimate D2E/DX2                !
 ! A40   A(13,12,25)           109.2185         estimate D2E/DX2                !
 ! A41   A(13,12,26)           109.525          estimate D2E/DX2                !
 ! A42   A(25,12,26)           107.747          estimate D2E/DX2                !
 ! A43   A(7,13,12)            105.7911         estimate D2E/DX2                !
 ! A44   A(7,13,14)            110.998          estimate D2E/DX2                !
 ! A45   A(7,13,15)            113.7988         estimate D2E/DX2                !
 ! A46   A(12,13,14)           107.7461         estimate D2E/DX2                !
 ! A47   A(12,13,15)           108.3828         estimate D2E/DX2                !
 ! A48   A(14,13,15)           109.8446         estimate D2E/DX2                !
 ! A49   A(13,15,16)           119.627          estimate D2E/DX2                !
 ! A50   A(4,16,15)            128.9268         estimate D2E/DX2                !
 ! A51   A(4,16,27)            113.3971         estimate D2E/DX2                !
 ! A52   A(15,16,27)           117.6744         estimate D2E/DX2                !
 ! D1    D(1,2,4,5)           -174.0892         estimate D2E/DX2                !
 ! D2    D(1,2,4,16)             8.2586         Frozen                          !
 ! D3    D(3,2,4,5)              6.5835         estimate D2E/DX2                !
 ! D4    D(3,2,4,16)          -171.0687         estimate D2E/DX2                !
 ! D5    D(2,4,5,6)            176.2884         estimate D2E/DX2                !
 ! D6    D(2,4,5,17)            -0.8841         estimate D2E/DX2                !
 ! D7    D(16,4,5,6)            -6.3297         estimate D2E/DX2                !
 ! D8    D(16,4,5,17)          176.4978         estimate D2E/DX2                !
 ! D9    D(2,4,16,15)         -154.7461         estimate D2E/DX2                !
 ! D10   D(2,4,16,27)           24.7571         estimate D2E/DX2                !
 ! D11   D(5,4,16,15)           27.8798         estimate D2E/DX2                !
 ! D12   D(5,4,16,27)         -152.617          estimate D2E/DX2                !
 ! D13   D(4,5,6,7)             -7.559          estimate D2E/DX2                !
 ! D14   D(4,5,6,18)           153.3208         estimate D2E/DX2                !
 ! D15   D(17,5,6,7)           169.6723         estimate D2E/DX2                !
 ! D16   D(17,5,6,18)          -29.4478         estimate D2E/DX2                !
 ! D17   D(5,6,7,8)           -142.065          estimate D2E/DX2                !
 ! D18   D(5,6,7,9)            101.6172         estimate D2E/DX2                !
 ! D19   D(5,6,7,13)           -26.9685         estimate D2E/DX2                !
 ! D20   D(18,6,7,8)            55.0124         estimate D2E/DX2                !
 ! D21   D(18,6,7,9)           -61.3055         estimate D2E/DX2                !
 ! D22   D(18,6,7,13)          170.1088         estimate D2E/DX2                !
 ! D23   D(6,7,9,10)           168.5057         estimate D2E/DX2                !
 ! D24   D(6,7,9,19)           -70.486          estimate D2E/DX2                !
 ! D25   D(6,7,9,20)            48.517          estimate D2E/DX2                !
 ! D26   D(8,7,9,10)            52.6605         estimate D2E/DX2                !
 ! D27   D(8,7,9,19)           173.6688         estimate D2E/DX2                !
 ! D28   D(8,7,9,20)           -67.3282         estimate D2E/DX2                !
 ! D29   D(13,7,9,10)          -61.8962         estimate D2E/DX2                !
 ! D30   D(13,7,9,19)           59.1121         estimate D2E/DX2                !
 ! D31   D(13,7,9,20)          178.1151         estimate D2E/DX2                !
 ! D32   D(6,7,13,12)         -166.1018         estimate D2E/DX2                !
 ! D33   D(6,7,13,14)          -49.4972         estimate D2E/DX2                !
 ! D34   D(6,7,13,15)           75.0223         Frozen                          !
 ! D35   D(8,7,13,12)          -51.3892         estimate D2E/DX2                !
 ! D36   D(8,7,13,14)           65.2154         estimate D2E/DX2                !
 ! D37   D(8,7,13,15)         -170.2651         estimate D2E/DX2                !
 ! D38   D(9,7,13,12)           63.2834         estimate D2E/DX2                !
 ! D39   D(9,7,13,14)          179.8881         estimate D2E/DX2                !
 ! D40   D(9,7,13,15)          -55.5924         estimate D2E/DX2                !
 ! D41   D(7,9,10,11)           54.8125         Frozen                          !
 ! D42   D(7,9,10,21)          176.6041         estimate D2E/DX2                !
 ! D43   D(7,9,10,22)          -65.1866         estimate D2E/DX2                !
 ! D44   D(19,9,10,11)         -66.296          estimate D2E/DX2                !
 ! D45   D(19,9,10,21)          55.4956         estimate D2E/DX2                !
 ! D46   D(19,9,10,22)         173.705          estimate D2E/DX2                !
 ! D47   D(20,9,10,11)         175.4542         estimate D2E/DX2                !
 ! D48   D(20,9,10,21)         -62.7542         estimate D2E/DX2                !
 ! D49   D(20,9,10,22)          55.4551         estimate D2E/DX2                !
 ! D50   D(9,10,11,12)         -52.8225         Frozen                          !
 ! D51   D(9,10,11,23)          67.8076         estimate D2E/DX2                !
 ! D52   D(9,10,11,24)        -174.6553         estimate D2E/DX2                !
 ! D53   D(21,10,11,12)       -174.708          estimate D2E/DX2                !
 ! D54   D(21,10,11,23)        -54.0779         estimate D2E/DX2                !
 ! D55   D(21,10,11,24)         63.4592         estimate D2E/DX2                !
 ! D56   D(22,10,11,12)         67.3953         estimate D2E/DX2                !
 ! D57   D(22,10,11,23)       -171.9746         estimate D2E/DX2                !
 ! D58   D(22,10,11,24)        -54.4375         estimate D2E/DX2                !
 ! D59   D(10,11,12,13)         56.6491         estimate D2E/DX2                !
 ! D60   D(10,11,12,25)        177.4873         estimate D2E/DX2                !
 ! D61   D(10,11,12,26)        -64.7601         estimate D2E/DX2                !
 ! D62   D(23,11,12,13)        -63.8393         estimate D2E/DX2                !
 ! D63   D(23,11,12,25)         56.999          estimate D2E/DX2                !
 ! D64   D(23,11,12,26)        174.7516         estimate D2E/DX2                !
 ! D65   D(24,11,12,13)        178.5498         estimate D2E/DX2                !
 ! D66   D(24,11,12,25)        -60.6119         estimate D2E/DX2                !
 ! D67   D(24,11,12,26)         57.1406         estimate D2E/DX2                !
 ! D68   D(11,12,13,7)         -60.3938         estimate D2E/DX2                !
 ! D69   D(11,12,13,14)       -179.1772         estimate D2E/DX2                !
 ! D70   D(11,12,13,15)         62.0101         estimate D2E/DX2                !
 ! D71   D(25,12,13,7)         178.7741         estimate D2E/DX2                !
 ! D72   D(25,12,13,14)         59.9907         estimate D2E/DX2                !
 ! D73   D(25,12,13,15)        -58.822          estimate D2E/DX2                !
 ! D74   D(26,12,13,7)          60.9916         estimate D2E/DX2                !
 ! D75   D(26,12,13,14)        -57.7918         estimate D2E/DX2                !
 ! D76   D(26,12,13,15)       -176.6046         estimate D2E/DX2                !
 ! D77   D(7,13,15,16)         -67.1604         Frozen                          !
 ! D78   D(12,13,15,16)        175.454          estimate D2E/DX2                !
 ! D79   D(14,13,15,16)         57.9763         estimate D2E/DX2                !
 ! D80   D(13,15,16,4)           7.4743         estimate D2E/DX2                !
 ! D81   D(13,15,16,27)       -172.0108         estimate D2E/DX2                !
 --------------------------------------------------------------------------------
 Trust Radius=3.00D-01 FncErr=1.00D-07 GrdErr=1.00D-07 EigMax=2.50D+02 EigMin=1.00D-04
 Number of steps in this run=     20 maximum allowed number of steps=    162.
 GradGradGradGradGradGradGradGradGradGradGradGradGradGradGradGradGradGrad

                          Input orientation:                          
 ---------------------------------------------------------------------
 Center     Atomic      Atomic             Coordinates (Angstroms)
 Number     Number       Type             X           Y           Z
 ---------------------------------------------------------------------
      1          8           0       -3.622690   -1.453250   -0.190450
      2          7           0       -3.260510   -0.289410   -0.027320
      3          8           0       -4.036420    0.652590    0.135750
      4          6           0       -1.762410   -0.003320   -0.045080
      5          6           0       -1.367030    1.329280    0.275710
      6          7           0       -0.077180    1.777430    0.387120
      7          6           0        1.197930    0.997800    0.360900
      8          1           0        1.861640    1.491840    1.117350
      9          6           0        1.966120    1.049640   -0.983350
     10          6           0        3.376400    0.459710   -0.791680
     11          6           0        3.310100   -0.957230   -0.200210
     12          6           0        2.458700   -0.991360    1.087240
     13          6           0        1.023330   -0.452880    0.837280
     14          1           0        0.472180   -0.491790    1.806030
     15          7           0        0.367770   -1.322440   -0.143300
     16          6           0       -0.872810   -1.122870   -0.445690
     17          1           0       -2.154520    2.067810    0.499690
     18          1           0        0.159490    2.758220    0.219130
     19          1           0        1.417120    0.475420   -1.759760
     20          1           0        2.055760    2.099990   -1.333200
     21          1           0        3.913380    0.436460   -1.765170
     22          1           0        3.953260    1.110990   -0.097610
     23          1           0        2.863280   -1.644200   -0.953980
     24          1           0        4.336790   -1.323600    0.018650
     25          1           0        2.397620   -2.038100    1.457850
     26          1           0        2.951820   -0.382210    1.873540
     27          1           0       -1.371120   -1.871500   -1.080440
 ---------------------------------------------------------------------
                    Distance matrix (angstroms):
                    1          2          3          4          5
     1  O    0.000000
     2  N    1.229760   0.000000
     3  O    2.170747   1.231256   0.000000
     4  C    2.363064   1.525276   2.373613   0.000000
     5  C    3.612171   2.509432   2.757379   1.426553   0.000000
     6  N    4.831306   3.818007   4.123595   2.489552   1.370023
     7  C    5.435992   4.656749   5.250551   3.151297   2.587693
     8  H    6.360957   5.542521   6.037797   4.089069   3.340523
     9  C    6.174783   5.479481   6.118866   3.986353   3.573978
    10  C    7.280670   6.722648   7.473100   5.213365   4.939190
    11  C    6.950519   6.606723   7.528330   5.163755   5.227827
    12  C    6.231303   5.868930   6.767163   4.480641   4.547545
    13  C    4.862352   4.373276   5.226402   2.956520   3.034020
    14  H    4.655996   4.163545   4.942359   2.942551   3.006804
    15  N    3.992882   3.774257   4.834822   2.507467   3.196360
    16  C    2.781391   2.563357   3.674066   1.485015   2.603404
    17  H    3.876813   2.656584   2.382614   2.177178   1.102603
    18  H    5.675308   4.587503   4.695348   3.374850   2.091730
    19  H    5.619803   5.046438   5.776283   3.643999   3.552986
    20  H    6.795306   5.973046   6.431752   4.545502   3.859803
    21  H    7.927364   7.416988   8.176768   5.946992   5.731060
    22  H    7.998685   7.348778   8.006221   5.823515   5.337837
    23  H    6.533548   6.339949   7.353136   4.991552   5.315002
    24  H    7.963282   7.667505   8.604051   6.240789   6.295825
    25  H    6.269216   6.105578   7.098213   4.868776   5.187417
    26  H    6.973619   6.497301   7.275041   5.103785   4.912710
    27  H    2.456946   2.679900   3.867037   2.171445   3.476227
                    6          7          8          9         10
     6  N    0.000000
     7  C    1.494796   0.000000
     8  H    2.091368   1.121072   0.000000
     9  C    2.565724   1.549132   2.149278   0.000000
    10  C    3.879842   2.522640   2.646542   1.540664   0.000000
    11  C    4.392834   2.932277   3.135593   2.539118   1.536864
    12  C    3.819300   2.464522   2.554148   2.948840   2.545215
    13  C    2.527459   1.536846   2.136150   2.541872   3.003876
    14  H    2.732117   2.198634   2.517870   3.519731   4.010978
    15  N    3.176243   2.515332   3.426523   2.981136   3.556446
    16  C    3.120631   3.071774   4.093534   3.615024   4.547533
    17  H    2.100556   3.521804   4.103996   4.496193   5.902940
    18  H    1.022831   2.048789   2.303873   2.762085   4.080857
    19  H    2.921858   2.195023   3.083581   1.110829   2.185453
    20  H    2.759163   2.195602   2.532336   1.110705   2.174363
    21  H    4.728120   3.494130   3.692206   2.186105   1.112012
    22  H    4.113825   2.795512   2.448683   2.176471   1.112954
    23  H    4.706634   3.388578   3.889529   2.839460   2.171652
    24  H    5.406967   3.918989   3.906432   3.500907   2.181554
    25  H    4.672191   3.443725   3.586599   3.959771   3.501064
    26  H    4.006037   2.696041   2.296166   3.344192   2.827100
    27  H    4.140375   4.112221   5.156847   4.436176   5.296873
                   11         12         13         14         15
    11  C    0.000000
    12  C    1.543883   0.000000
    13  C    2.561264   1.553296   0.000000
    14  H    3.506483   2.170827   1.115238   0.000000
    15  N    2.965455   2.448639   1.465411   2.121501   0.000000
    16  C    4.193380   3.669622   2.385424   2.697685   1.292403
    17  H    6.285125   5.566465   4.070206   3.893280   4.274246
    18  H    4.889454   4.483228   3.382232   3.630233   4.102014
    19  H    2.840432   3.367750   2.785934   3.813563   2.635598
    20  H    3.493369   3.946813   3.506286   4.368045   3.997274
    21  H    2.180692   3.505853   3.989494   5.045491   4.277329
    22  H    2.168344   2.838566   3.450246   4.279097   4.333521
    23  H    1.113438   2.180932   2.830772   3.829238   2.643540
    24  H    1.111854   2.186204   3.522403   4.338415   3.972323
    25  H    2.179464   1.112091   2.187853   2.493917   2.682563
    26  H    2.181617   1.110180   2.190412   2.482978   3.410131
    27  H    4.850208   4.487873   3.379870   3.692298   2.050228
                   16         17         18         19         20
    16  C    0.000000
    17  H    3.566085   0.000000
    18  H    4.070686   2.431054   0.000000
    19  H    3.086275   4.516352   3.272433   0.000000
    20  H    4.444212   4.592056   2.537486   1.796954   0.000000
    21  H    5.203859   6.679095   4.839391   2.496570   2.530747
    22  H    5.329375   6.211059   4.148058   3.098177   2.470893
    23  H    3.806378   6.408626   5.297921   2.689507   3.849007
    24  H    5.234103   7.339630   5.843910   3.863119   4.330308
    25  H    3.893176   6.204720   5.435838   4.199069   5.003061
    26  H    4.533784   5.827930   4.516246   4.036298   4.153002
    27  H    1.100758   4.316097   5.046381   3.707262   5.251678
                   21         22         23         24         25
    21  H    0.000000
    22  H    1.799260   0.000000
    23  H    2.467769   3.084234   0.000000
    24  H    2.541476   2.467355   1.794443   0.000000
    25  H    4.336915   3.841385   2.487754   2.518370   0.000000
    26  H    3.851627   2.667951   3.097633   2.498995   1.794967
    27  H    5.807019   6.181442   4.242381   5.838530   4.546875
                   26         27
    26  H    0.000000
    27  H    5.443509   0.000000
 Symmetry turned off by external request.
 Stoichiometry    C9H13N3O2
 Framework group  C1[X(C9H13N3O2)]
 Deg. of freedom    75
 Full point group                 C1      NOp   1
 Rotational constants (GHZ):           1.6671961           0.3999202           0.3545896
 Standard basis: 6-31G(d) (6D, 7F)
   236 basis functions,   444 primitive gaussians,   236 cartesian basis functions
    52 alpha electrons       52 beta electrons
       nuclear repulsion energy       916.5612118099 Hartrees.
 NAtoms=   27 NActive=   27 NUniq=   27 SFac= 1.00D+00 NAtFMM=   60 NAOKFM=F Big=F
 Integral buffers will be    131072 words long.
 Raffenetti 1 integral format.
 Two-electron integral symmetry is turned off.
 One-electron integrals computed using PRISM.
 NBasis=   236 RedAO= T EigKep=  1.32D-03  NBF=   236
 NBsUse=   236 1.00D-06 EigRej= -1.00D+00 NBFU=   236
 ExpMin= 1.61D-01 ExpMax= 5.48D+03 ExpMxC= 8.25D+02 IAcc=3 IRadAn=         5 AccDes= 0.00D+00
 Harris functional with IExCor=  205 and IRadAn=       5 diagonalized for initial guess.
 HarFok:  IExCor=  205 AccDes= 0.00D+00 IRadAn=         5 IDoV= 1 UseB2=F ITyADJ=14
 ICtDFT=  3500011 ScaDFX=  1.000000  1.000000  1.000000  1.000000
 FoFCou: FMM=F IPFlag=           0 FMFlag=      100000 FMFlg1=           0
         NFxFlg=           0 DoJE=T BraDBF=F KetDBF=T FulRan=T
         wScrn=  0.000000 ICntrl=       500 IOpCl=  0 I1Cent=   200000004 NGrid=           0
         NMat0=    1 NMatS0=      1 NMatT0=    0 NMatD0=    1 NMtDS0=    0 NMtDT0=    0
 Symmetry not used in FoFCou.
 Keep R1 ints in memory in canonical form, NReq=397720213.
 Requested convergence on RMS density matrix=1.00D-08 within 128 cycles.
 Requested convergence on MAX density matrix=1.00D-06.
 Requested convergence on             energy=1.00D-06.
 No special actions if energy rises.
 SCF Done:  E(RHF) =  -661.278169040     A.U. after   16 cycles
            NFock= 16  Conv=0.77D-08     -V/T= 2.0038
 ExpMin= 1.61D-01 ExpMax= 5.48D+03 ExpMxC= 8.25D+02 IAcc=3 IRadAn=         5 AccDes= 0.00D+00
 HarFok:  IExCor=  205 AccDes= 0.00D+00 IRadAn=         5 IDoV=-2 UseB2=F ITyADJ=14
 ICtDFT= 12500011 ScaDFX=  1.000000  1.000000  1.000000  1.000000
 Range of M.O.s used for correlation:    15   236
 NBasis=   236 NAE=    52 NBE=    52 NFC=    14 NFV=     0
 NROrb=    222 NOA=    38 NOB=    38 NVA=   184 NVB=   184
 Fully direct method using O(ONN) memory.
 JobTyp=1 Pass  1:  I=  15 to  52 NPSUse=  4 ParTrn=T ParDer=T DoDerP=T.
 Spin components of T(2) and E(2):
     alpha-alpha T2 =       0.9214338157D-01 E2=     -0.2718589707D+00
     alpha-beta  T2 =       0.5004942474D+00 E2=     -0.1494239857D+01
     beta-beta   T2 =       0.9214338157D-01 E2=     -0.2718589707D+00
 ANorm=    0.1297991144D+01
 E2 =    -0.2037957799D+01 EUMP2 =    -0.66331612683930D+03
          IDoAtm=111111111111111111111111111
          Differentiating once with respect to electric field.
                with respect to dipole field.
          Differentiating once with respect to nuclear coordinates.
 Keep R1 ints in memory in canonical form, NReq=397723379.
          There are     1 degrees of freedom in the 1st order CPHF.  IDoFFX=0 NUNeed=     1.
 LinEq1:  Iter=  0 NonCon=     1 RMS=4.64D-03 Max=1.12D-01 NDo=     1
 AX will form     1 AO Fock derivatives at one time.
 LinEq1:  Iter=  1 NonCon=     1 RMS=1.57D-03 Max=3.21D-02 NDo=     1
 LinEq1:  Iter=  2 NonCon=     1 RMS=6.47D-04 Max=1.79D-02 NDo=     1
 LinEq1:  Iter=  3 NonCon=     1 RMS=3.03D-04 Max=1.06D-02 NDo=     1
 LinEq1:  Iter=  4 NonCon=     1 RMS=9.32D-05 Max=2.38D-03 NDo=     1
 LinEq1:  Iter=  5 NonCon=     1 RMS=3.95D-05 Max=2.05D-03 NDo=     1
 LinEq1:  Iter=  6 NonCon=     1 RMS=1.59D-05 Max=5.60D-04 NDo=     1
 LinEq1:  Iter=  7 NonCon=     1 RMS=6.12D-06 Max=9.03D-05 NDo=     1
 LinEq1:  Iter=  8 NonCon=     1 RMS=2.39D-06 Max=5.48D-05 NDo=     1
 LinEq1:  Iter=  9 NonCon=     1 RMS=8.79D-07 Max=2.50D-05 NDo=     1
 LinEq1:  Iter= 10 NonCon=     1 RMS=4.31D-07 Max=1.45D-05 NDo=     1
 LinEq1:  Iter= 11 NonCon=     1 RMS=1.57D-07 Max=6.16D-06 NDo=     1
 LinEq1:  Iter= 12 NonCon=     1 RMS=5.47D-08 Max=7.97D-07 NDo=     1
 LinEq1:  Iter= 13 NonCon=     1 RMS=1.70D-08 Max=3.40D-07 NDo=     1
 LinEq1:  Iter= 14 NonCon=     1 RMS=5.31D-09 Max=1.33D-07 NDo=     1
 LinEq1:  Iter= 15 NonCon=     1 RMS=2.01D-09 Max=4.05D-08 NDo=     1
 LinEq1:  Iter= 16 NonCon=     1 RMS=8.17D-10 Max=1.53D-08 NDo=     1
 LinEq1:  Iter= 17 NonCon=     1 RMS=2.72D-10 Max=4.07D-09 NDo=     1
 LinEq1:  Iter= 18 NonCon=     1 RMS=9.25D-11 Max=1.22D-09 NDo=     1
 LinEq1:  Iter= 19 NonCon=     0 RMS=2.90D-11 Max=3.57D-10 NDo=     1
 Linear equations converged to 1.000D-10 1.000D-09 after    19 iterations.
 End of Minotr F.D. properties file   721 does not exist.
 End of Minotr F.D. properties file   722 does not exist.
 End of Minotr F.D. properties file   788 does not exist.

 **********************************************************************

            Population analysis using the SCF Density.

 **********************************************************************

 Alpha  occ. eigenvalues --  -20.59676 -20.59235 -15.85183 -15.63688 -15.56685
 Alpha  occ. eigenvalues --  -11.36424 -11.30405 -11.30186 -11.30173 -11.27714
 Alpha  occ. eigenvalues --  -11.24693 -11.23914 -11.23411 -11.22860  -1.58371
 Alpha  occ. eigenvalues --   -1.37884  -1.28693  -1.22693  -1.13122  -1.08111
 Alpha  occ. eigenvalues --   -1.01848  -1.00712  -0.93486  -0.88872  -0.84957
 Alpha  occ. eigenvalues --   -0.81502  -0.77999  -0.76933  -0.74153  -0.71265
 Alpha  occ. eigenvalues --   -0.70233  -0.69675  -0.67406  -0.64343  -0.63282
 Alpha  occ. eigenvalues --   -0.61687  -0.60341  -0.57478  -0.56486  -0.54898
 Alpha  occ. eigenvalues --   -0.53623  -0.50728  -0.49240  -0.48372  -0.47711
 Alpha  occ. eigenvalues --   -0.47653  -0.46140  -0.45732  -0.43923  -0.42126
 Alpha  occ. eigenvalues --   -0.39857  -0.33480
 Alpha virt. eigenvalues --    0.07180   0.11829   0.18081   0.21358   0.23323
 Alpha virt. eigenvalues --    0.24148   0.26214   0.27732   0.28539   0.28821
 Alpha virt. eigenvalues --    0.29856   0.31075   0.31817   0.32256   0.33331
 Alpha virt. eigenvalues --    0.33756   0.34291   0.35296   0.37578   0.38577
 Alpha virt. eigenvalues --    0.40567   0.41690   0.44148   0.45186   0.45646
 Alpha virt. eigenvalues --    0.46023   0.49572   0.52858   0.57503   0.59052
 Alpha virt. eigenvalues --    0.63509   0.69015   0.69221   0.72226   0.73970
 Alpha virt. eigenvalues --    0.74686   0.75622   0.75813   0.77701   0.79268
 Alpha virt. eigenvalues --    0.80597   0.83543   0.84677   0.85298   0.87942
 Alpha virt. eigenvalues --    0.88969   0.90098   0.90767   0.91868   0.93834
 Alpha virt. eigenvalues --    0.95165   0.97180   0.98764   1.00320   1.01957
 Alpha virt. eigenvalues --    1.02787   1.05058   1.06392   1.06989   1.08545
 Alpha virt. eigenvalues --    1.09613   1.10407   1.11243   1.11931   1.13225
 Alpha virt. eigenvalues --    1.13763   1.14118   1.15418   1.16356   1.17235
 Alpha virt. eigenvalues --    1.17932   1.19941   1.21194   1.22382   1.22889
 Alpha virt. eigenvalues --    1.23544   1.23869   1.25669   1.26980   1.27431
 Alpha virt. eigenvalues --    1.29335   1.31192   1.32964   1.35882   1.39652
 Alpha virt. eigenvalues --    1.42830   1.46151   1.47195   1.49287   1.52620
 Alpha virt. eigenvalues --    1.54587   1.55343   1.60434   1.61491   1.65899
 Alpha virt. eigenvalues --    1.68601   1.70224   1.72679   1.73349   1.76864
 Alpha virt. eigenvalues --    1.77488   1.79845   1.84382   1.89101   1.92513
 Alpha virt. eigenvalues --    1.93791   1.96076   1.97618   1.99022   2.00775
 Alpha virt. eigenvalues --    2.02915   2.03887   2.05998   2.08701   2.11978
 Alpha virt. eigenvalues --    2.12623   2.13339   2.17670   2.18458   2.19094
 Alpha virt. eigenvalues --    2.20452   2.21929   2.24067   2.24962   2.26328
 Alpha virt. eigenvalues --    2.28901   2.32295   2.33152   2.35519   2.35787
 Alpha virt. eigenvalues --    2.38397   2.39839   2.41401   2.43146   2.46237
 Alpha virt. eigenvalues --    2.48559   2.49885   2.50462   2.56608   2.56831
 Alpha virt. eigenvalues --    2.60693   2.62650   2.65697   2.68427   2.68648
 Alpha virt. eigenvalues --    2.69648   2.69979   2.74601   2.76987   2.80906
 Alpha virt. eigenvalues --    2.84410   2.86199   2.89705   2.91258   2.95171
 Alpha virt. eigenvalues --    2.97447   2.98321   3.01932   3.03506   3.05562
 Alpha virt. eigenvalues --    3.06925   3.12498   3.19118   3.22777   3.27083
 Alpha virt. eigenvalues --    3.30543   3.33397   3.37284   3.42839   3.58711
 Alpha virt. eigenvalues --    4.09977   4.23350   4.31779   4.36385   4.43059
 Alpha virt. eigenvalues --    4.51775   4.59637   4.59953   4.70750   4.77438
 Alpha virt. eigenvalues --    4.95966   4.99203   5.02670   5.09888
          Condensed to atoms (all electrons):
               1          2          3          4          5          6
     1  O    8.301160   0.314225  -0.089292  -0.079842   0.003274  -0.000012
     2  N    0.314225   5.677993   0.308416   0.265197  -0.044172   0.000808
     3  O   -0.089292   0.308416   8.333764  -0.087644   0.007923   0.000465
     4  C   -0.079842   0.265197  -0.087644   5.260736   0.559533  -0.048201
     5  C    0.003274  -0.044172   0.007923   0.559533   4.668708   0.309260
     6  N   -0.000012   0.000808   0.000465  -0.048201   0.309260   7.185365
     7  C    0.000002  -0.000090   0.000002   0.003906  -0.029019   0.195832
     8  H   -0.000000   0.000002  -0.000000  -0.000167   0.002264  -0.050052
     9  C   -0.000000  -0.000003   0.000000   0.000478   0.001601  -0.056008
    10  C   -0.000000   0.000000  -0.000000  -0.000019  -0.000060   0.003316
    11  C   -0.000000  -0.000000  -0.000000  -0.000014   0.000014  -0.000154
    12  C   -0.000000   0.000002  -0.000000  -0.000096  -0.000117   0.003570
    13  C   -0.000018  -0.000023  -0.000003  -0.010515   0.000503  -0.043598
    14  H   -0.000003  -0.000055   0.000000   0.003251   0.004780  -0.005594
    15  N    0.000183   0.001650  -0.000014  -0.061973  -0.003431   0.001903
    16  C    0.003805  -0.027504   0.001974   0.321636  -0.039513  -0.001024
    17  H    0.000109  -0.003590   0.011435  -0.026111   0.376856  -0.034026
    18  H    0.000000  -0.000033   0.000007   0.000995  -0.024247   0.327645
    19  H    0.000000   0.000000   0.000000  -0.000748   0.000648   0.000613
    20  H    0.000000  -0.000000   0.000000  -0.000026   0.000031  -0.001730
    21  H   -0.000000  -0.000000   0.000000   0.000000   0.000001  -0.000059
    22  H   -0.000000   0.000000  -0.000000  -0.000000  -0.000002  -0.000098
    23  H    0.000000  -0.000000   0.000000   0.000025  -0.000000  -0.000024
    24  H    0.000000   0.000000   0.000000   0.000000  -0.000000   0.000004
    25  H    0.000000  -0.000000   0.000000   0.000019  -0.000001  -0.000070
    26  H    0.000000  -0.000000   0.000000   0.000006  -0.000001  -0.000066
    27  H    0.005307  -0.000173   0.000004  -0.066087   0.002075   0.000037
               7          8          9         10         11         12
     1  O    0.000002  -0.000000  -0.000000  -0.000000  -0.000000  -0.000000
     2  N   -0.000090   0.000002  -0.000003   0.000000  -0.000000   0.000002
     3  O    0.000002  -0.000000   0.000000  -0.000000  -0.000000  -0.000000
     4  C    0.003906  -0.000167   0.000478  -0.000019  -0.000014  -0.000096
     5  C   -0.029019   0.002264   0.001601  -0.000060   0.000014  -0.000117
     6  N    0.195832  -0.050052  -0.056008   0.003316  -0.000154   0.003570
     7  C    5.008633   0.416573   0.340390  -0.049174  -0.007757  -0.064014
     8  H    0.416573   0.546816  -0.060404   0.001453  -0.000339  -0.002785
     9  C    0.340390  -0.060404   5.180847   0.318215  -0.053012  -0.006300
    10  C   -0.049174   0.001453   0.318215   5.126353   0.332789  -0.060170
    11  C   -0.007757  -0.000339  -0.053012   0.332789   5.123949   0.330561
    12  C   -0.064014  -0.002785  -0.006300  -0.060170   0.330561   5.137406
    13  C    0.331456  -0.040287  -0.050346  -0.001787  -0.047902   0.368207
    14  H   -0.040623  -0.000899   0.003872  -0.000390   0.003966  -0.040784
    15  N   -0.058235   0.004006  -0.012625   0.001428  -0.007770  -0.074310
    16  C   -0.002282   0.000017  -0.000840  -0.000028   0.000004   0.002454
    17  H    0.001394  -0.000019  -0.000065   0.000001   0.000000   0.000001
    18  H   -0.028182  -0.002683   0.000893  -0.000123   0.000011  -0.000134
    19  H   -0.035065   0.004096   0.386008  -0.032491  -0.002255   0.000623
    20  H   -0.041817  -0.001837   0.397188  -0.037354   0.004135  -0.000361
    21  H    0.004043  -0.000079  -0.035852   0.400199  -0.035821   0.004211
    22  H   -0.004237   0.003511  -0.045735   0.395961  -0.045608  -0.001223
    23  H    0.000424   0.000034  -0.002007  -0.040058   0.396698  -0.036572
    24  H   -0.000139  -0.000098   0.004400  -0.038500   0.400260  -0.037892
    25  H    0.004972  -0.000006  -0.000367   0.004096  -0.033860   0.395460
    26  H   -0.004454   0.001592   0.001049  -0.002422  -0.042351   0.394559
    27  H   -0.000398   0.000009  -0.000058   0.000005   0.000005  -0.000017
              13         14         15         16         17         18
     1  O   -0.000018  -0.000003   0.000183   0.003805   0.000109   0.000000
     2  N   -0.000023  -0.000055   0.001650  -0.027504  -0.003590  -0.000033
     3  O   -0.000003   0.000000  -0.000014   0.001974   0.011435   0.000007
     4  C   -0.010515   0.003251  -0.061973   0.321636  -0.026111   0.000995
     5  C    0.000503   0.004780  -0.003431  -0.039513   0.376856  -0.024247
     6  N   -0.043598  -0.005594   0.001903  -0.001024  -0.034026   0.327645
     7  C    0.331456  -0.040623  -0.058235  -0.002282   0.001394  -0.028182
     8  H   -0.040287  -0.000899   0.004006   0.000017  -0.000019  -0.002683
     9  C   -0.050346   0.003872  -0.012625  -0.000840  -0.000065   0.000893
    10  C   -0.001787  -0.000390   0.001428  -0.000028   0.000001  -0.000123
    11  C   -0.047902   0.003966  -0.007770   0.000004   0.000000   0.000011
    12  C    0.368207  -0.040784  -0.074310   0.002454   0.000001  -0.000134
    13  C    5.021128   0.402048   0.241281  -0.069518  -0.000036   0.003615
    14  H    0.402048   0.520125  -0.035959  -0.004706   0.000062   0.000007
    15  N    0.241281  -0.035959   6.939589   0.586714  -0.000056  -0.000116
    16  C   -0.069518  -0.004706   0.586714   4.694421   0.001544  -0.000209
    17  H   -0.000036   0.000062  -0.000056   0.001544   0.384947  -0.001835
    18  H    0.003615   0.000007  -0.000116  -0.000209  -0.001835   0.323079
    19  H   -0.006239   0.000069   0.007001   0.002519   0.000011  -0.000130
    20  H    0.003860  -0.000049   0.000079  -0.000029  -0.000001   0.002891
    21  H   -0.000377   0.000009  -0.000029   0.000002  -0.000000  -0.000000
    22  H    0.000324  -0.000044   0.000002  -0.000001   0.000000   0.000002
    23  H   -0.005872   0.000010   0.006853   0.000065   0.000000   0.000000
    24  H    0.004143  -0.000058   0.000046   0.000005   0.000000  -0.000000
    25  H   -0.034320  -0.002666   0.000780  -0.000059  -0.000000   0.000002
    26  H   -0.044857  -0.000898   0.004191  -0.000054   0.000000  -0.000001
    27  H    0.004861  -0.000171  -0.039804   0.402348  -0.000055   0.000002
              19         20         21         22         23         24
     1  O    0.000000   0.000000  -0.000000  -0.000000   0.000000   0.000000
     2  N    0.000000  -0.000000  -0.000000   0.000000  -0.000000   0.000000
     3  O    0.000000   0.000000   0.000000  -0.000000   0.000000   0.000000
     4  C   -0.000748  -0.000026   0.000000  -0.000000   0.000025   0.000000
     5  C    0.000648   0.000031   0.000001  -0.000002  -0.000000  -0.000000
     6  N    0.000613  -0.001730  -0.000059  -0.000098  -0.000024   0.000004
     7  C   -0.035065  -0.041817   0.004043  -0.004237   0.000424  -0.000139
     8  H    0.004096  -0.001837  -0.000079   0.003511   0.000034  -0.000098
     9  C    0.386008   0.397188  -0.035852  -0.045735  -0.002007   0.004400
    10  C   -0.032491  -0.037354   0.400199   0.395961  -0.040058  -0.038500
    11  C   -0.002255   0.004135  -0.035821  -0.045608   0.396698   0.400260
    12  C    0.000623  -0.000361   0.004211  -0.001223  -0.036572  -0.037892
    13  C   -0.006239   0.003860  -0.000377   0.000324  -0.005872   0.004143
    14  H    0.000069  -0.000049   0.000009  -0.000044   0.000010  -0.000058
    15  N    0.007001   0.000079  -0.000029   0.000002   0.006853   0.000046
    16  C    0.002519  -0.000029   0.000002  -0.000001   0.000065   0.000005
    17  H    0.000011  -0.000001  -0.000000   0.000000   0.000000   0.000000
    18  H   -0.000130   0.002891  -0.000000   0.000002   0.000000  -0.000000
    19  H    0.505855  -0.024003  -0.002585   0.003749   0.001638  -0.000069
    20  H   -0.024003   0.550505  -0.002624  -0.002961  -0.000049  -0.000090
    21  H   -0.002585  -0.002624   0.525767  -0.024678  -0.002808  -0.002062
    22  H    0.003749  -0.002961  -0.024678   0.568906   0.004056  -0.003600
    23  H    0.001638  -0.000049  -0.002808   0.004056   0.509019  -0.024975
    24  H   -0.000069  -0.000090  -0.002062  -0.003600  -0.024975   0.541121
    25  H   -0.000027   0.000011  -0.000086  -0.000083  -0.002089  -0.002379
    26  H    0.000022  -0.000035  -0.000074   0.002467   0.003820  -0.002762
    27  H    0.000075   0.000000  -0.000000   0.000000  -0.000022  -0.000000
              25         26         27
     1  O    0.000000   0.000000   0.005307
     2  N   -0.000000  -0.000000  -0.000173
     3  O    0.000000   0.000000   0.000004
     4  C    0.000019   0.000006  -0.066087
     5  C   -0.000001  -0.000001   0.002075
     6  N   -0.000070  -0.000066   0.000037
     7  C    0.004972  -0.004454  -0.000398
     8  H   -0.000006   0.001592   0.000009
     9  C   -0.000367   0.001049  -0.000058
    10  C    0.004096  -0.002422   0.000005
    11  C   -0.033860  -0.042351   0.000005
    12  C    0.395460   0.394559  -0.000017
    13  C   -0.034320  -0.044857   0.004861
    14  H   -0.002666  -0.000898  -0.000171
    15  N    0.000780   0.004191  -0.039804
    16  C   -0.000059  -0.000054   0.402348
    17  H   -0.000000   0.000000  -0.000055
    18  H    0.000002  -0.000001   0.000002
    19  H   -0.000027   0.000022   0.000075
    20  H    0.000011  -0.000035   0.000000
    21  H   -0.000086  -0.000074  -0.000000
    22  H   -0.000083   0.002467   0.000000
    23  H   -0.002089   0.003820  -0.000022
    24  H   -0.002379  -0.002762  -0.000000
    25  H    0.509648  -0.023097  -0.000010
    26  H   -0.023097   0.561414   0.000001
    27  H   -0.000010   0.000001   0.452419
 Mulliken charges:
               1
     1  O   -0.458900
     2  N    0.507351
     3  O   -0.487038
     4  C   -0.034341
     5  C    0.203091
     6  N   -0.788104
     7  C    0.057859
     8  H    0.179285
     9  C   -0.311322
    10  C   -0.321238
    11  C   -0.315546
    12  C   -0.312276
    13  C   -0.025726
    14  H    0.194700
    15  N   -0.501386
    16  C    0.128258
    17  H    0.289434
    18  H    0.398544
    19  H    0.190685
    20  H    0.154268
    21  H    0.172901
    22  H    0.149292
    23  H    0.191834
    24  H    0.162646
    25  H    0.184132
    26  H    0.151949
    27  H    0.239649
 Sum of Mulliken charges =  -0.00000
 Mulliken charges with hydrogens summed into heavy atoms:
               1
     1  O   -0.458900
     2  N    0.507351
     3  O   -0.487038
     4  C   -0.034341
     5  C    0.492525
     6  N   -0.389560
     7  C    0.237143
     9  C    0.033631
    10  C    0.000955
    11  C    0.038933
    12  C    0.023805
    13  C    0.168974
    15  N   -0.501386
    16  C    0.367907
 Electronic spatial extent (au):  <R**2>=           3130.4139
 Charge=             -0.0000 electrons
 Dipole moment (field-independent basis, Debye):
    X=              5.4455    Y=              4.6288    Z=              0.5227  Tot=              7.1661
 Quadrupole moment (field-independent basis, Debye-Ang):
   XX=           -105.7239   YY=            -80.0380   ZZ=            -82.2961
   XY=             -1.9897   XZ=              0.8760   YZ=              0.1035
 Traceless Quadrupole moment (field-independent basis, Debye-Ang):
   XX=            -16.3712   YY=              9.3147   ZZ=              7.0566
   XY=             -1.9897   XZ=              0.8760   YZ=              0.1035
 Octapole moment (field-independent basis, Debye-Ang**2):
  XXX=            102.9508  YYY=             37.7092  ZZZ=             -5.1404  XYY=             -1.3425
  XXY=             12.2381  XXZ=             -0.3206  XZZ=             -8.0801  YZZ=             -2.7763
  YYZ=              0.9262  XYZ=             -1.4721
 Hexadecapole moment (field-independent basis, Debye-Ang**3):
 XXXX=          -3567.0923 YYYY=           -622.0698 ZZZZ=           -299.0154 XXXY=            -44.6173
 XXXZ=             24.9658 YYYX=            -23.3143 YYYZ=             11.0562 ZZZX=             20.2434
 ZZZY=              8.3752 XXYY=           -657.8753 XXZZ=           -544.0322 YYZZ=           -165.0763
 XXYZ=              2.0792 YYXZ=              9.6565 ZZXY=              1.7213
 N-N= 9.165612118099D+02 E-N=-3.379083232895D+03  KE= 6.587897130395D+02
 Calling FoFJK, ICntrl=  10002127 FMM=F ISym2X=0 I1Cent= 0 IOpClX= 0 NMat=1 NMatS=1 NMatT=0.
 -------------------------------------------------------------------
 Center     Atomic                   Forces (Hartrees/Bohr)
 Number     Number              X              Y              Z
 -------------------------------------------------------------------
      1        8           0.002104169   -0.019165021   -0.003345147
      2        7           0.040469484    0.014230353   -0.001207346
      3        8          -0.006279042    0.016020222    0.003611588
      4        6           0.002244610    0.027139721    0.013421403
      5        6          -0.001502705   -0.035388007   -0.009364347
      6        7           0.013508566   -0.011315094   -0.006684039
      7        6          -0.004035303    0.004919107    0.002675312
      8        1          -0.010149920   -0.001667852   -0.007661288
      9        6          -0.004016512    0.000236555   -0.002238691
     10        6           0.002839612   -0.000880874    0.001028503
     11        6          -0.000966998   -0.004632989   -0.002408659
     12        6           0.000818659   -0.008647436   -0.003003448
     13        6           0.007674410   -0.001999526    0.004689833
     14        1           0.000851392    0.004432155   -0.009727958
     15        7           0.001509041    0.000937170    0.001059298
     16        6          -0.021085802    0.008367178    0.004260989
     17        1           0.007172127   -0.006291539   -0.006529766
     18        1          -0.017426435   -0.001342756    0.006404145
     19        1           0.003102409    0.005876210    0.007714563
     20        1          -0.003238426   -0.007333683    0.002570418
     21        1          -0.004394627    0.002420093    0.009608037
     22        1          -0.003987579   -0.003963562   -0.007412519
     23        1           0.003961412    0.006126710    0.009329107
     24        1          -0.009365112    0.002649083   -0.002150413
     25        1          -0.000832139    0.010633159   -0.002434401
     26        1          -0.004761436   -0.004792594   -0.004378947
     27        1           0.005786146    0.003433218    0.002173772
 -------------------------------------------------------------------
 Cartesian Forces:  Max     0.040469484 RMS     0.009672828

 GradGradGradGradGradGradGradGradGradGradGradGradGradGradGradGradGradGrad
 Berny optimization.
 FormGI is forming the generalized inverse of G from B-inverse, IUseBI=4.
 Internal  Forces:  Max     0.054553744 RMS     0.007704925
 Search for a local minimum.
 Step number   1 out of a maximum of   20
 All quantities printed in internal units (Hartrees-Bohrs-Radians)
 Mixed Optimization -- RFO/linear search
 Second derivative matrix not updated -- first step.
 ITU=  0
     Eigenvalues ---    0.00230   0.00769   0.00971   0.01119   0.01184
     Eigenvalues ---    0.01466   0.01516   0.01569   0.01885   0.01937
     Eigenvalues ---    0.02005   0.02681   0.03657   0.04509   0.04696
     Eigenvalues ---    0.04838   0.05077   0.05139   0.05302   0.05886
     Eigenvalues ---    0.06273   0.07225   0.07703   0.07724   0.07875
     Eigenvalues ---    0.07995   0.08049   0.08051   0.10462   0.11742
     Eigenvalues ---    0.12275   0.13502   0.15266   0.15752   0.15991
     Eigenvalues ---    0.16000   0.20096   0.21948   0.23143   0.24979
     Eigenvalues ---    0.25000   0.25000   0.25358   0.26197   0.26653
     Eigenvalues ---    0.27984   0.28082   0.28461   0.29864   0.31455
     Eigenvalues ---    0.31704   0.32052   0.32239   0.32289   0.32380
     Eigenvalues ---    0.32388   0.32405   0.32512   0.32525   0.32581
     Eigenvalues ---    0.33396   0.33469   0.33598   0.35338   0.43890
     Eigenvalues ---    0.49174   0.67091   0.90565   0.911861000.00000
     Eigenvalues --- 1000.000001000.000001000.000001000.000001000.00000
     Eigenvalues --- 1000.000001000.000001000.000001000.000001000.00000
     Eigenvalues --- 1000.000001000.000001000.000001000.000001000.00000
     Eigenvalues --- 1000.000001000.000001000.000001000.000001000.00000
     Eigenvalues --- 1000.000001000.000001000.000001000.000001000.00000
     Eigenvalues --- 1000.000001000.000001000.000001000.000001000.00000
     Eigenvalues --- 1000.000001000.000001000.000001000.000001000.00000
     Eigenvalues --- 1000.000001000.000001000.000001000.000001000.00000
     Eigenvalues --- 1000.000001000.000001000.000001000.000001000.00000
     Eigenvalues --- 1000.000001000.000001000.000001000.000001000.00000
     Eigenvalues --- 1000.000001000.000001000.000001000.000001000.00000
     Eigenvalues --- 1000.000001000.000001000.000001000.000001000.00000
     Eigenvalues --- 1000.000001000.000001000.000001000.000001000.00000
     Eigenvalues --- 1000.000001000.000001000.000001000.000001000.00000
     Eigenvalues --- 1000.000001000.000001000.000001000.000001000.00000
     Eigenvalues --- 1000.000001000.000001000.000001000.000001000.00000
     Eigenvalues --- 1000.000001000.000001000.000001000.000001000.00000
     Eigenvalues --- 1000.000001000.000001000.000001000.000001000.00000
     Eigenvalues --- 1000.00000
 RFO step:  Lambda=-2.13501084D-02 EMin= 2.30498611D-03
 Linear search not attempted -- first point.
 Iteration  1 RMS(Cart)=  0.05378661 RMS(Int)=  0.00097247
 Iteration  2 RMS(Cart)=  0.00107058 RMS(Int)=  0.00023826
 Iteration  3 RMS(Cart)=  0.00000069 RMS(Int)=  0.00023826
 Iteration  1 RMS(Cart)=  0.00002884 RMS(Int)=  0.00002256
 Iteration  2 RMS(Cart)=  0.00001276 RMS(Int)=  0.00002463
 Iteration  3 RMS(Cart)=  0.00000860 RMS(Int)=  0.00002749
 Iteration  4 RMS(Cart)=  0.00000672 RMS(Int)=  0.00002993
 Iteration  5 RMS(Cart)=  0.00000557 RMS(Int)=  0.00003199
 Iteration  6 RMS(Cart)=  0.00000470 RMS(Int)=  0.00003375
 Iteration  7 RMS(Cart)=  0.00000399 RMS(Int)=  0.00003528
 Iteration  8 RMS(Cart)=  0.00000338 RMS(Int)=  0.00003661
 Iteration  9 RMS(Cart)=  0.00000286 RMS(Int)=  0.00003776
 Iteration 10 RMS(Cart)=  0.00000242 RMS(Int)=  0.00003874
 Iteration 11 RMS(Cart)=  0.00000204 RMS(Int)=  0.00003959
 Iteration 12 RMS(Cart)=  0.00000173 RMS(Int)=  0.00004032
 Iteration 13 RMS(Cart)=  0.00000146 RMS(Int)=  0.00004094
 Iteration 14 RMS(Cart)=  0.00000123 RMS(Int)=  0.00004147
 Iteration 15 RMS(Cart)=  0.00000104 RMS(Int)=  0.00004193
 Iteration 16 RMS(Cart)=  0.00000088 RMS(Int)=  0.00004231
 Variable       Old X    -DE/DX   Delta X   Delta X   Delta X     New X
                                 (Linear)    (Quad)   (Total)
    R1        2.32391   0.01796   0.00000   0.01925   0.01925   2.34316
    R2        2.32674   0.01669   0.00000   0.01801   0.01801   2.34474
    R3        2.88235  -0.03774   0.00000  -0.11794  -0.11794   2.76442
    R4        2.69580  -0.05455   0.00000   0.00000  -0.00000   2.69579
    R5        2.80627  -0.02118   0.00000  -0.06492  -0.06472   2.74156
    R6        2.58897  -0.02509   0.00000  -0.05067  -0.05063   2.53834
    R7        2.08362  -0.01066   0.00000  -0.03001  -0.03001   2.05361
    R8        2.82476  -0.01988   0.00000  -0.05337  -0.05346   2.77130
    R9        1.93287  -0.00637   0.00000  -0.01384  -0.01384   1.91903
   R10        2.11852  -0.01191   0.00000  -0.03547  -0.03547   2.08305
   R11        2.92744  -0.01305   0.00000  -0.04419  -0.04423   2.88321
   R12        2.90422  -0.00586   0.00000  -0.00672  -0.00665   2.89757
   R13        2.91143  -0.00462   0.00000  -0.01457  -0.01457   2.89687
   R14        2.09916  -0.00996   0.00000  -0.02876  -0.02876   2.07041
   R15        2.09893  -0.00801   0.00000  -0.02310  -0.02310   2.07583
   R16        2.90425  -0.00172   0.00000  -0.00753  -0.00756   2.89669
   R17        2.10140  -0.01058   0.00000  -0.03066  -0.03066   2.07074
   R18        2.10318  -0.00901   0.00000  -0.02617  -0.02617   2.07701
   R19        2.91752  -0.00897   0.00000  -0.02921  -0.02917   2.88835
   R20        2.10409  -0.01169   0.00000  -0.03400  -0.03400   2.07010
   R21        2.10110  -0.00994   0.00000  -0.02879  -0.02879   2.07231
   R22        2.93530  -0.01066   0.00000  -0.03686  -0.03686   2.89844
   R23        2.10155  -0.01077   0.00000  -0.03122  -0.03122   2.07033
   R24        2.09794  -0.00785   0.00000  -0.02260  -0.02260   2.07533
   R25        2.10750  -0.00903   0.00000  -0.02640  -0.02640   2.08109
   R26        2.76923  -0.00681   0.00000  -0.01065  -0.01096   2.75827
   R27        2.44229  -0.00529   0.00000  -0.00699  -0.00703   2.43526
   R28        2.08013  -0.00621   0.00000  -0.01737  -0.01737   2.06276
    A1        2.16040   0.01021   0.00000   0.03772   0.03760   2.19800
    A2        2.05469  -0.00782   0.00000  -0.02872  -0.02884   2.02585
    A3        2.06802  -0.00238   0.00000  -0.00870  -0.00882   2.05921
    A4        2.03176  -0.00870   0.00000  -0.02357  -0.02394   2.00782
    A5        2.03769  -0.00309   0.00000  -0.00288  -0.00329   2.03440
    A6        2.21290   0.01173   0.00000   0.02500   0.02513   2.23803
    A7        2.19542   0.00758   0.00000   0.01288   0.01308   2.20850
    A8        2.06397  -0.00427   0.00000  -0.00886  -0.00906   2.05491
    A9        2.02283  -0.00326   0.00000  -0.00311  -0.00332   2.01951
   A10        2.25374  -0.00533   0.00000  -0.01728  -0.01736   2.23638
   A11        2.11549  -0.01251   0.00000  -0.07252  -0.07296   2.04253
   A12        1.87535   0.01806   0.00000   0.09805   0.09820   1.97355
   A13        1.83728  -0.00129   0.00000  -0.01967  -0.01956   1.81772
   A14        2.00509  -0.00067   0.00000  -0.01589  -0.01587   1.98922
   A15        1.97140  -0.00013   0.00000   0.00717   0.00679   1.97818
   A16        1.85166   0.00246   0.00000   0.02458   0.02444   1.87611
   A17        1.84843   0.00097   0.00000   0.01858   0.01838   1.86681
   A18        1.93575  -0.00099   0.00000  -0.01052  -0.01022   1.92553
   A19        1.91044  -0.00006   0.00000  -0.00466  -0.00479   1.90565
   A20        1.92211  -0.00070   0.00000  -0.01344  -0.01341   1.90870
   A21        1.92302  -0.00156   0.00000  -0.00706  -0.00705   1.91598
   A22        1.91922  -0.00041   0.00000   0.00652   0.00649   1.92571
   A23        1.90436   0.00317   0.00000   0.02416   0.02415   1.92851
   A24        1.88449  -0.00042   0.00000  -0.00511  -0.00537   1.87912
   A25        1.94058  -0.00111   0.00000   0.00619   0.00611   1.94669
   A26        1.91890  -0.00071   0.00000  -0.00720  -0.00724   1.91167
   A27        1.90494   0.00043   0.00000  -0.00318  -0.00325   1.90169
   A28        1.91609   0.00089   0.00000   0.00745   0.00749   1.92358
   A29        1.89850   0.00177   0.00000   0.01127   0.01128   1.90979
   A30        1.88377  -0.00126   0.00000  -0.01504  -0.01512   1.86865
   A31        1.94454   0.00065   0.00000   0.00435   0.00445   1.94900
   A32        1.90245   0.00055   0.00000   0.00666   0.00661   1.90906
   A33        1.91742   0.00045   0.00000   0.00517   0.00515   1.92257
   A34        1.90667  -0.00111   0.00000  -0.01444  -0.01447   1.89219
   A35        1.91537  -0.00051   0.00000   0.00047   0.00039   1.91576
   A36        1.87603  -0.00006   0.00000  -0.00255  -0.00259   1.87344
   A37        1.94738  -0.00291   0.00000  -0.01829  -0.01832   1.92906
   A38        1.90604   0.00255   0.00000   0.01733   0.01718   1.92322
   A39        1.91086   0.00136   0.00000   0.01351   0.01348   1.92433
   A40        1.90622   0.00020   0.00000  -0.00403  -0.00387   1.90235
   A41        1.91157  -0.00028   0.00000  -0.00432  -0.00425   1.90732
   A42        1.88054  -0.00085   0.00000  -0.00371  -0.00391   1.87664
   A43        1.84640   0.00455   0.00000   0.02272   0.02276   1.86916
   A44        1.93728  -0.00411   0.00000  -0.03316  -0.03355   1.90373
   A45        1.98616  -0.00007   0.00000   0.01819   0.01854   2.00470
   A46        1.88052   0.00220   0.00000   0.03033   0.03066   1.91118
   A47        1.89164  -0.00320   0.00000  -0.03086  -0.03105   1.86058
   A48        1.91715   0.00089   0.00000  -0.00513  -0.00492   1.91223
   A49        2.08789  -0.00859   0.00000  -0.00974  -0.01012   2.07777
   A50        2.25020  -0.00399   0.00000  -0.01986  -0.01993   2.23026
   A51        1.97915   0.00513   0.00000   0.02729   0.02683   2.00598
   A52        2.05381  -0.00112   0.00000  -0.00708  -0.00754   2.04626
    D1       -3.03843  -0.00097   0.00000  -0.03492  -0.03439  -3.07282
    D2        0.14414   0.00019   0.00000   0.00000  -0.00000   0.14414
    D3        0.11490  -0.00165   0.00000  -0.06243  -0.06216   0.05274
    D4       -2.98571  -0.00048   0.00000  -0.02751  -0.02777  -3.01348
    D5        3.07681   0.00069   0.00000   0.01698   0.01692   3.09373
    D6       -0.01543  -0.00048   0.00000  -0.00618  -0.00634  -0.02177
    D7       -0.11047  -0.00108   0.00000  -0.02288  -0.02323  -0.13370
    D8        3.08047  -0.00225   0.00000  -0.04605  -0.04649   3.03398
    D9       -2.70083  -0.00194   0.00000  -0.05077  -0.05134  -2.75217
   D10        0.43209   0.00049   0.00000  -0.00135  -0.00166   0.43044
   D11        0.48659  -0.00004   0.00000  -0.01032  -0.01022   0.47638
   D12       -2.66367   0.00239   0.00000   0.03911   0.03947  -2.62420
   D13       -0.13193  -0.00026   0.00000   0.02668   0.02691  -0.10502
   D14        2.67595   0.00374   0.00000   0.07771   0.07654   2.75250
   D15        2.96134   0.00085   0.00000   0.04921   0.04960   3.01094
   D16       -0.51396   0.00485   0.00000   0.10023   0.09924  -0.41472
   D17       -2.47950  -0.00062   0.00000  -0.01937  -0.01893  -2.49843
   D18        1.77355  -0.00244   0.00000  -0.02815  -0.02787   1.74569
   D19       -0.47069  -0.00029   0.00000  -0.00529  -0.00533  -0.47602
   D20        0.96015  -0.00009   0.00000  -0.04162  -0.04216   0.91798
   D21       -1.06998  -0.00191   0.00000  -0.05041  -0.05111  -1.12109
   D22        2.96896   0.00024   0.00000  -0.02754  -0.02857   2.94039
   D23        2.94098   0.00288   0.00000   0.02173   0.02151   2.96249
   D24       -1.23021   0.00190   0.00000   0.01833   0.01814  -1.21207
   D25        0.84678  -0.00003   0.00000  -0.00075  -0.00086   0.84592
   D26        0.91910   0.00322   0.00000   0.03848   0.03848   0.95757
   D27        3.03109   0.00224   0.00000   0.03508   0.03510   3.06619
   D28       -1.17510   0.00031   0.00000   0.01601   0.01610  -1.15899
   D29       -1.08029   0.00120   0.00000   0.00820   0.00825  -1.07205
   D30        1.03170   0.00022   0.00000   0.00480   0.00487   1.03657
   D31        3.10869  -0.00170   0.00000  -0.01427  -0.01412   3.09457
   D32       -2.89902  -0.00098   0.00000  -0.01270  -0.01243  -2.91146
   D33       -0.86389   0.00214   0.00000   0.01937   0.01925  -0.84464
   D34        1.30939  -0.00001   0.00000   0.00000  -0.00001   1.30938
   D35       -0.89691  -0.00201   0.00000  -0.02154  -0.02139  -0.91830
   D36        1.13822   0.00111   0.00000   0.01052   0.01029   1.14851
   D37       -2.97169  -0.00104   0.00000  -0.00885  -0.00897  -2.98065
   D38        1.10450   0.00093   0.00000   0.01249   0.01261   1.11711
   D39        3.13964   0.00406   0.00000   0.04456   0.04429  -3.09926
   D40       -0.97027   0.00190   0.00000   0.02519   0.02503  -0.94524
   D41        0.95666   0.00061   0.00000   0.00000   0.00000   0.95666
   D42        3.08232   0.00051   0.00000   0.00863   0.00859   3.09091
   D43       -1.13772  -0.00118   0.00000  -0.01579  -0.01577  -1.15349
   D44       -1.15708   0.00177   0.00000   0.01548   0.01554  -1.14154
   D45        0.96858   0.00167   0.00000   0.02411   0.02413   0.99271
   D46        3.03172  -0.00001   0.00000  -0.00032  -0.00022   3.03150
   D47        3.06225   0.00062   0.00000   0.00339   0.00334   3.06559
   D48       -1.09527   0.00053   0.00000   0.01202   0.01193  -1.08334
   D49        0.96787  -0.00116   0.00000  -0.01241  -0.01242   0.95545
   D50       -0.92193  -0.00089   0.00000   0.00000   0.00000  -0.92193
   D51        1.18347  -0.00150   0.00000  -0.01085  -0.01087   1.17260
   D52       -3.04831  -0.00098   0.00000  -0.00705  -0.00709  -3.05540
   D53       -3.04923   0.00014   0.00000  -0.00009  -0.00008  -3.04931
   D54       -0.94384  -0.00047   0.00000  -0.01095  -0.01095  -0.95479
   D55        1.10757   0.00004   0.00000  -0.00714  -0.00717   1.10040
   D56        1.17627   0.00011   0.00000   0.00718   0.00722   1.18349
   D57       -3.00152  -0.00050   0.00000  -0.00367  -0.00366  -3.00518
   D58       -0.95011   0.00001   0.00000   0.00013   0.00013  -0.94998
   D59        0.98871  -0.00098   0.00000  -0.01028  -0.01032   0.97839
   D60        3.09774  -0.00089   0.00000  -0.01548  -0.01563   3.08211
   D61       -1.13028   0.00036   0.00000  -0.00202  -0.00198  -1.13226
   D62       -1.11421  -0.00135   0.00000  -0.01182  -0.01181  -1.12602
   D63        0.99482  -0.00126   0.00000  -0.01702  -0.01712   0.97770
   D64        3.04999  -0.00001   0.00000  -0.00356  -0.00347   3.04652
   D65        3.11628  -0.00033   0.00000  -0.00051  -0.00052   3.11576
   D66       -1.05788  -0.00024   0.00000  -0.00571  -0.00583  -1.06371
   D67        0.99729   0.00101   0.00000   0.00774   0.00782   1.00511
   D68       -1.05407   0.00038   0.00000  -0.00268  -0.00260  -1.05668
   D69       -3.12723   0.00169   0.00000   0.00892   0.00859  -3.11865
   D70        1.08228   0.00116   0.00000   0.01509   0.01504   1.09732
   D71        3.12020  -0.00108   0.00000  -0.00995  -0.00982   3.11038
   D72        1.04704   0.00023   0.00000   0.00165   0.00137   1.04840
   D73       -1.02664  -0.00029   0.00000   0.00782   0.00782  -1.01882
   D74        1.06450  -0.00001   0.00000  -0.00060  -0.00044   1.06407
   D75       -1.00866   0.00130   0.00000   0.01100   0.01075  -0.99790
   D76       -3.08233   0.00078   0.00000   0.01717   0.01721  -3.06512
   D77       -1.17217   0.00418   0.00000   0.00000  -0.00001  -1.17218
   D78        3.06225   0.00068   0.00000  -0.01868  -0.01842   3.04383
   D79        1.01188  -0.00062   0.00000  -0.03439  -0.03458   0.97730
   D80        0.13045   0.00244   0.00000   0.01797   0.01750   0.14795
   D81       -3.00216  -0.00010   0.00000  -0.03339  -0.03332  -3.03548
         Item               Value     Threshold  Converged?
 Maximum Force            0.037738     0.000450     NO 
 RMS     Force            0.006406     0.000300     NO 
 Maximum Displacement     0.271238     0.001800     NO 
 RMS     Displacement     0.053875     0.001200     NO 
 Predicted change in Energy=-1.195702D-02
 GradGradGradGradGradGradGradGradGradGradGradGradGradGradGradGradGradGrad

                          Input orientation:                          
 ---------------------------------------------------------------------
 Center     Atomic      Atomic             Coordinates (Angstroms)
 Number     Number       Type             X           Y           Z
 ---------------------------------------------------------------------
      1          8           0       -3.493269   -1.444410   -0.238221
      2          7           0       -3.138865   -0.270848   -0.052176
      3          8           0       -3.892887    0.696457    0.135754
      4          6           0       -1.696083   -0.029814   -0.035947
      5          6           0       -1.311135    1.310047    0.266779
      6          7           0       -0.056343    1.772446    0.393071
      7          6           0        1.196109    1.009812    0.373220
      8          1           0        1.832492    1.517493    1.116423
      9          6           0        1.928214    1.054843   -0.964630
     10          6           0        3.326368    0.449744   -0.794414
     11          6           0        3.259912   -0.963395   -0.204256
     12          6           0        2.439480   -0.998641    1.084853
     13          6           0        1.031537   -0.440886    0.841708
     14          1           0        0.463606   -0.452192    1.785168
     15          7           0        0.392204   -1.328913   -0.124278
     16          6           0       -0.848102   -1.142464   -0.420223
     17          1           0       -2.100800    2.036906    0.437285
     18          1           0        0.083010    2.770048    0.264149
     19          1           0        1.357304    0.490505   -1.710252
     20          1           0        1.998711    2.093568   -1.314976
     21          1           0        3.838184    0.431784   -1.763163
     22          1           0        3.916666    1.096048   -0.129679
     23          1           0        2.793602   -1.638792   -0.929791
     24          1           0        4.271476   -1.339890   -0.010445
     25          1           0        2.356955   -2.027352    1.452582
     26          1           0        2.934022   -0.406707    1.866600
     27          1           0       -1.324369   -1.882378   -1.066141
 ---------------------------------------------------------------------
                    Distance matrix (angstroms):
                    1          2          3          4          5
     1  O    0.000000
     2  N    1.239945   0.000000
     3  O    2.209721   1.240785   0.000000
     4  C    2.296057   1.462867   2.320108   0.000000
     5  C    3.550178   2.437530   2.656897   1.426553   0.000000
     6  N    4.749648   3.724947   3.992873   2.474054   1.343230
     7  C    5.327977   4.540160   5.104162   3.100486   2.527399
     8  H    6.242729   5.410931   5.866496   4.021561   3.263023
     9  C    6.013852   5.316513   5.935024   3.895441   3.474893
    10  C    7.099621   6.547473   7.283113   5.101986   4.834531
    11  C    6.770376   6.437942   7.350732   5.045967   5.126879
    12  C    6.094813   5.739376   6.623671   4.392914   4.479553
    13  C    4.758905   4.268512   5.103124   2.894679   2.980675
    14  H    4.553621   4.048026   4.797812   2.856417   2.925867
    15  N    3.888859   3.686889   4.746762   2.460976   3.165186
    16  C    2.668558   2.478460   3.600202   1.450768   2.588664
    17  H    3.809835   2.577378   2.258163   2.158489   1.086723
    18  H    5.550117   4.441574   4.485980   3.330834   2.018725
    19  H    5.425756   4.852258   5.569081   3.520966   3.420654
    20  H    6.621067   5.794808   6.226352   4.449288   3.751125
    21  H    7.719829   7.218059   7.965262   5.815879   5.604240
    22  H    7.834082   7.187136   7.824273   5.725321   5.247178
    23  H    6.327780   6.151068   7.162256   4.852323   5.193871
    24  H    7.768789   7.487172   8.415754   6.109722   6.185836
    25  H    6.117496   5.962687   6.943608   4.757414   5.098945
    26  H    6.842307   6.370252   7.128779   5.019921   4.850570
    27  H    2.362498   2.630124   3.833045   2.152084   3.459542
                    6          7          8          9         10
     6  N    0.000000
     7  C    1.466507   0.000000
     8  H    2.038612   1.102304   0.000000
     9  C    2.509337   1.525729   2.134008   0.000000
    10  C    3.821308   2.493000   2.650104   1.532956   0.000000
    11  C    4.340412   2.913127   3.152225   2.534733   1.532862
    12  C    3.792970   2.467038   2.588506   2.945941   2.532989
    13  C    2.506711   1.533326   2.133599   2.510795   2.955734
    14  H    2.675313   2.160466   2.490126   3.460870   3.957668
    15  N    3.176048   2.522579   3.422835   2.957670   3.496001
    16  C    3.128104   3.072564   4.077038   3.582244   4.483453
    17  H    2.061964   3.453785   4.025146   4.377530   5.787082
    18  H    1.015505   2.085502   2.314294   2.802964   4.125984
    19  H    2.840025   2.153258   3.044767   1.095613   2.172012
    20  H    2.691429   2.160718   2.504235   1.098482   2.176193
    21  H    4.649093   3.446565   3.673361   2.161907   1.095789
    22  H    4.063937   2.767990   2.464582   2.157031   1.099105
    23  H    4.637747   3.356326   3.882378   2.829448   2.159665
    24  H    5.345978   3.889239   3.922131   3.483690   2.170398
    25  H    4.624396   3.425923   3.599164   3.940388   3.482062
    26  H    3.982748   2.693891   2.340658   3.341204   2.822842
    27  H    4.134602   4.097479   5.127229   4.383705   5.209797
                   11         12         13         14         15
    11  C    0.000000
    12  C    1.528448   0.000000
    13  C    2.516488   1.533790   0.000000
    14  H    3.469649   2.166362   1.101268   0.000000
    15  N    2.892015   2.400503   1.459613   2.102314   0.000000
    16  C    4.117583   3.618582   2.370174   2.657217   1.288684
    17  H    6.176618   5.499820   4.014292   3.819499   4.226010
    18  H    4.924501   4.519903   3.397555   3.583460   4.128918
    19  H    2.828739   3.346830   2.736076   3.728986   2.599426
    20  H    3.488459   3.938935   3.465568   4.295152   3.963837
    21  H    2.170510   3.480472   3.927362   4.975926   4.202472
    22  H    2.162913   2.836351   3.410238   4.241144   4.278119
    23  H    1.095449   2.143358   2.770931   3.769337   2.551781
    24  H    1.096619   2.161559   3.468656   4.302570   3.880957
    25  H    2.166206   1.095573   2.155637   2.485258   2.614297
    26  H    2.168997   1.098220   2.161254   2.472176   3.357812
    27  H    4.754262   4.424288   3.356796   3.656809   2.034712
                   16         17         18         19         20
    16  C    0.000000
    17  H    3.523204   0.000000
    18  H    4.079594   2.310086   0.000000
    19  H    3.032257   4.354510   3.273898   0.000000
    20  H    4.401912   4.458656   2.573164   1.771287   0.000000
    21  H    5.122794   6.533752   4.866088   2.482138   2.519139
    22  H    5.272416   6.116907   4.201702   3.068424   2.465467
    23  H    3.710527   6.271748   5.311372   2.684395   3.835457
    24  H    5.139745   7.225587   5.874542   3.838240   4.319247
    25  H    3.816126   6.117237   5.440427   4.164423   4.976916
    26  H    4.480554   5.776124   4.559375   4.010598   4.153144
    27  H    1.091564   4.268949   5.039391   3.638244   5.187767
                   21         22         23         24         25
    21  H    0.000000
    22  H    1.765128   0.000000
    23  H    2.464334   3.062810   0.000000
    24  H    2.529544   2.464529   1.765970   0.000000
    25  H    4.310731   3.832998   2.453027   2.505682   0.000000
    26  H    3.833504   2.684956   3.059012   2.486546   1.769436
    27  H    5.700275   6.100527   4.127422   5.720338   4.462861
                   26         27
    26  H    0.000000
    27  H    5.377031   0.000000
 Symmetry turned off by external request.
 Stoichiometry    C9H13N3O2
 Framework group  C1[X(C9H13N3O2)]
 Deg. of freedom    75
 Full point group                 C1      NOp   1
 Rotational constants (GHZ):           1.6651816           0.4204056           0.3701979
 Standard basis: 6-31G(d) (6D, 7F)
   236 basis functions,   444 primitive gaussians,   236 cartesian basis functions
    52 alpha electrons       52 beta electrons
       nuclear repulsion energy       929.4456609786 Hartrees.
 NAtoms=   27 NActive=   27 NUniq=   27 SFac= 1.00D+00 NAtFMM=   60 NAOKFM=F Big=F
 Integral buffers will be    131072 words long.
 Raffenetti 1 integral format.
 Two-electron integral symmetry is turned off.
 One-electron integrals computed using PRISM.
 NBasis=   236 RedAO= T EigKep=  1.11D-03  NBF=   236
 NBsUse=   236 1.00D-06 EigRej= -1.00D+00 NBFU=   236
 Initial guess from the checkpoint file:  "/home/alexey/tmp/Gau-1294939.chk"
 B after Tr=     0.052630    0.002049   -0.001193
         Rot=    0.999999   -0.000891    0.001070    0.000641 Ang=  -0.18 deg.
 ExpMin= 1.61D-01 ExpMax= 5.48D+03 ExpMxC= 8.25D+02 IAcc=3 IRadAn=         5 AccDes= 0.00D+00
 Harris functional with IExCor=  205 and IRadAn=       5 diagonalized for initial guess.
 HarFok:  IExCor=  205 AccDes= 0.00D+00 IRadAn=         5 IDoV= 1 UseB2=F ITyADJ=14
 ICtDFT=  3500011 ScaDFX=  1.000000  1.000000  1.000000  1.000000
 FoFCou: FMM=F IPFlag=           0 FMFlag=      100000 FMFlg1=           0
         NFxFlg=           0 DoJE=T BraDBF=F KetDBF=T FulRan=T
         wScrn=  0.000000 ICntrl=       500 IOpCl=  0 I1Cent=   200000004 NGrid=           0
         NMat0=    1 NMatS0=      1 NMatT0=    0 NMatD0=    1 NMtDS0=    0 NMtDT0=    0
 Symmetry not used in FoFCou.
 Keep R1 ints in memory in canonical form, NReq=397720213.
 Requested convergence on RMS density matrix=1.00D-08 within 128 cycles.
 Requested convergence on MAX density matrix=1.00D-06.
 Requested convergence on             energy=1.00D-06.
 No special actions if energy rises.
 SCF Done:  E(RHF) =  -661.294169761     A.U. after   14 cycles
            NFock= 14  Conv=0.76D-08     -V/T= 2.0027
 ExpMin= 1.61D-01 ExpMax= 5.48D+03 ExpMxC= 8.25D+02 IAcc=3 IRadAn=         5 AccDes= 0.00D+00
 HarFok:  IExCor=  205 AccDes= 0.00D+00 IRadAn=         5 IDoV=-2 UseB2=F ITyADJ=14
 ICtDFT= 12500011 ScaDFX=  1.000000  1.000000  1.000000  1.000000
 Range of M.O.s used for correlation:    15   236
 NBasis=   236 NAE=    52 NBE=    52 NFC=    14 NFV=     0
 NROrb=    222 NOA=    38 NOB=    38 NVA=   184 NVB=   184
 Fully direct method using O(ONN) memory.
 JobTyp=1 Pass  1:  I=  15 to  52 NPSUse=  4 ParTrn=T ParDer=T DoDerP=T.
 Spin components of T(2) and E(2):
     alpha-alpha T2 =       0.9162623013D-01 E2=     -0.2724822191D+00
     alpha-beta  T2 =       0.4930945210D+00 E2=     -0.1489048316D+01
     beta-beta   T2 =       0.9162623013D-01 E2=     -0.2724822191D+00
 ANorm=    0.1294738190D+01
 E2 =    -0.2034012754D+01 EUMP2 =    -0.66332818251533D+03
          IDoAtm=111111111111111111111111111
          Differentiating once with respect to electric field.
                with respect to dipole field.
          Differentiating once with respect to nuclear coordinates.
 Keep R1 ints in memory in canonical form, NReq=397723379.
          There are     1 degrees of freedom in the 1st order CPHF.  IDoFFX=0 NUNeed=     1.
 LinEq1:  Iter=  0 NonCon=     1 RMS=4.65D-03 Max=1.08D-01 NDo=     1
 AX will form     1 AO Fock derivatives at one time.
 LinEq1:  Iter=  1 NonCon=     1 RMS=1.56D-03 Max=2.74D-02 NDo=     1
 LinEq1:  Iter=  2 NonCon=     1 RMS=6.59D-04 Max=1.65D-02 NDo=     1
 LinEq1:  Iter=  3 NonCon=     1 RMS=3.00D-04 Max=1.13D-02 NDo=     1
[...]
    18  H    4.118090   2.246172   0.000000
    19  H    2.997023   4.293253   3.503894   0.000000
    20  H    4.388325   4.434806   2.865931   1.769108   0.000000
    21  H    5.100748   6.503940   5.073533   2.499407   2.519766
    22  H    5.257326   6.099692   4.301736   3.070415   2.461712
    23  H    3.690547   6.240001   5.418169   2.702389   3.842155
    24  H    5.132787   7.208312   5.931973   3.848459   4.316805
    25  H    3.818984   6.107745   5.373773   4.169017   4.984235
    26  H    4.498742   5.795024   4.483291   4.031897   4.179615
    27  H    1.089927   4.254306   5.114667   3.599474   5.169029
                   21         22         23         24         25
    21  H    0.000000
    22  H    1.758912   0.000000
    23  H    2.469867   3.062580   0.000000
    24  H    2.517841   2.460060   1.764802   0.000000
    25  H    4.311856   3.838749   2.444371   2.519428   0.000000
    26  H    3.845638   2.702813   3.060380   2.492957   1.768092
    27  H    5.661062   6.070575   4.085219   5.690499   4.445558
                   26         27
    26  H    0.000000
    27  H    5.378097   0.000000
 Symmetry turned off by external request.
 Stoichiometry    C9H13N3O2
 Framework group  C1[X(C9H13N3O2)]
 Deg. of freedom    75
 Full point group                 C1      NOp   1
 Rotational constants (GHZ):           1.6634726           0.4185575           0.3709987

 **********************************************************************

            Population analysis using the SCF Density.

 **********************************************************************

 Alpha  occ. eigenvalues --  -20.58785 -20.58467 -15.84433 -15.65037 -15.55768
 Alpha  occ. eigenvalues --  -11.36148 -11.29886 -11.29451 -11.28829 -11.27181
 Alpha  occ. eigenvalues --  -11.23922 -11.23308 -11.22712 -11.22118  -1.56728
 Alpha  occ. eigenvalues --   -1.36299  -1.31474  -1.22967  -1.14305  -1.09499
 Alpha  occ. eigenvalues --   -1.02982  -1.01402  -0.94247  -0.89551  -0.85636
 Alpha  occ. eigenvalues --   -0.82410  -0.78603  -0.77432  -0.75056  -0.72177
 Alpha  occ. eigenvalues --   -0.69425  -0.69166  -0.67866  -0.64887  -0.63842
 Alpha  occ. eigenvalues --   -0.62574  -0.60110  -0.57872  -0.57038  -0.55140
 Alpha  occ. eigenvalues --   -0.54656  -0.50758  -0.50018  -0.48373  -0.48063
 Alpha  occ. eigenvalues --   -0.47149  -0.46162  -0.46034  -0.43425  -0.41791
 Alpha  occ. eigenvalues --   -0.39693  -0.33227
 Alpha virt. eigenvalues --    0.07280   0.11725   0.17020   0.21774   0.24006
 Alpha virt. eigenvalues --    0.25372   0.27029   0.28597   0.28961   0.29432
 Alpha virt. eigenvalues --    0.30536   0.31758   0.31944   0.32706   0.33859
 Alpha virt. eigenvalues --    0.34342   0.35831   0.37260   0.38449   0.40259
 Alpha virt. eigenvalues --    0.41273   0.42320   0.44183   0.45832   0.46668
 Alpha virt. eigenvalues --    0.47031   0.49117   0.53149   0.57435   0.59600
 Alpha virt. eigenvalues --    0.64266   0.69425   0.69723   0.72849   0.74207
 Alpha virt. eigenvalues --    0.74397   0.75671   0.76680   0.78291   0.79445
 Alpha virt. eigenvalues --    0.81465   0.84323   0.85190   0.85838   0.88262
 Alpha virt. eigenvalues --    0.89285   0.90996   0.92010   0.92804   0.94376
 Alpha virt. eigenvalues --    0.95775   0.97983   0.99386   1.01528   1.02449
 Alpha virt. eigenvalues --    1.03164   1.05761   1.06908   1.07978   1.08518
 Alpha virt. eigenvalues --    1.10416   1.11419   1.11787   1.12203   1.13747
 Alpha virt. eigenvalues --    1.14565   1.14894   1.15847   1.16920   1.18647
 Alpha virt. eigenvalues --    1.19046   1.21176   1.22584   1.23923   1.24199
 Alpha virt. eigenvalues --    1.24666   1.25338   1.26921   1.27251   1.29373
 Alpha virt. eigenvalues --    1.30046   1.33161   1.35831   1.36915   1.40633
 Alpha virt. eigenvalues --    1.41565   1.46008   1.48580   1.52079   1.54165
 Alpha virt. eigenvalues --    1.56443   1.58504   1.59306   1.63116   1.65931
 Alpha virt. eigenvalues --    1.68218   1.68671   1.72400   1.75008   1.77299
 Alpha virt. eigenvalues --    1.81086   1.84497   1.87216   1.90516   1.93092
 Alpha virt. eigenvalues --    1.95792   1.96497   1.99752   2.01967   2.02176
 Alpha virt. eigenvalues --    2.05002   2.05740   2.08662   2.09131   2.12692
 Alpha virt. eigenvalues --    2.12963   2.15031   2.18269   2.19579   2.22116
 Alpha virt. eigenvalues --    2.22351   2.24450   2.25820   2.28135   2.29433
 Alpha virt. eigenvalues --    2.31026   2.33194   2.34345   2.36036   2.38522
 Alpha virt. eigenvalues --    2.39695   2.42061   2.43600   2.44444   2.47070
 Alpha virt. eigenvalues --    2.49723   2.51624   2.52911   2.55228   2.60757
 Alpha virt. eigenvalues --    2.62037   2.64875   2.67020   2.69889   2.70275
 Alpha virt. eigenvalues --    2.71994   2.72211   2.76181   2.78185   2.83981
 Alpha virt. eigenvalues --    2.87848   2.88196   2.92321   2.92818   2.95968
 Alpha virt. eigenvalues --    2.98994   3.01097   3.03773   3.05388   3.07274
 Alpha virt. eigenvalues --    3.09277   3.14614   3.20906   3.25529   3.27189
 Alpha virt. eigenvalues --    3.33349   3.37826   3.38473   3.50600   3.63086
 Alpha virt. eigenvalues --    4.13686   4.28429   4.34277   4.38630   4.46247
 Alpha virt. eigenvalues --    4.54166   4.61637   4.62188   4.73294   4.79447
 Alpha virt. eigenvalues --    4.98744   5.00762   5.04572   5.11115
          Condensed to atoms (all electrons):
               1          2          3          4          5          6
     1  O    8.320248   0.308421  -0.082154  -0.086974   0.004111  -0.000013
     2  N    0.308421   5.714152   0.299195   0.264515  -0.049591   0.000873
     3  O   -0.082154   0.299195   8.361493  -0.091988   0.003333   0.000807
     4  C   -0.086974   0.264515  -0.091988   5.259515   0.541500  -0.047853
     5  C    0.004111  -0.049591   0.003333   0.541500   4.705445   0.322130
     6  N   -0.000013   0.000873   0.000807  -0.047853   0.322130   7.183527
     7  C    0.000003  -0.000128   0.000002   0.004513  -0.029487   0.163119
     8  H   -0.000000   0.000002  -0.000000  -0.000240   0.003038  -0.050803
     9  C   -0.000000  -0.000004  -0.000000   0.000853   0.000442  -0.061631
    10  C    0.000000   0.000000   0.000000  -0.000037  -0.000046   0.003724
    11  C   -0.000000  -0.000000  -0.000000  -0.000025   0.000023  -0.000188
    12  C   -0.000000   0.000002  -0.000000  -0.000135  -0.000155   0.003838
    13  C   -0.000022  -0.000033  -0.000004  -0.011682  -0.000526  -0.046339
    14  H   -0.000004  -0.000104   0.000001   0.003233   0.005849  -0.007027
    15  N    0.000416   0.002311  -0.000016  -0.064715  -0.005425   0.001633
    16  C    0.001635  -0.027685   0.002574   0.334033  -0.046311  -0.001252
    17  H    0.000188  -0.006026   0.016726  -0.021797   0.374102  -0.034165
    18  H    0.000001  -0.000047   0.000010   0.001594  -0.031562   0.336997
    19  H    0.000001  -0.000005   0.000000  -0.001190   0.001242  -0.000451
    20  H    0.000000  -0.000000   0.000000  -0.000074   0.000156  -0.000529
    21  H   -0.000000   0.000000   0.000000   0.000001   0.000001  -0.000078
    22  H   -0.000000   0.000000  -0.000000  -0.000000  -0.000003  -0.000118
    23  H    0.000000  -0.000000   0.000000   0.000041  -0.000000  -0.000031
    24  H    0.000000   0.000000   0.000000   0.000000  -0.000000   0.000006
    25  H    0.000000  -0.000000   0.000000   0.000022  -0.000000  -0.000088
    26  H    0.000000  -0.000000   0.000000   0.000007  -0.000002  -0.000058
    27  H    0.006540  -0.000766   0.000031  -0.063877   0.002119  -0.000000
               7          8          9         10         11         12
     1  O    0.000003  -0.000000  -0.000000   0.000000  -0.000000  -0.000000
     2  N   -0.000128   0.000002  -0.000004   0.000000  -0.000000   0.000002
     3  O    0.000002  -0.000000  -0.000000   0.000000  -0.000000  -0.000000
     4  C    0.004513  -0.000240   0.000853  -0.000037  -0.000025  -0.000135
     5  C   -0.029487   0.003038   0.000442  -0.000046   0.000023  -0.000155
     6  N    0.163119  -0.050803  -0.061631   0.003724  -0.000188   0.003838
     7  C    5.033995   0.418026   0.349535  -0.054335  -0.009191  -0.061298
     8  H    0.418026   0.535705  -0.054400   0.000771  -0.000334  -0.002189
     9  C    0.349535  -0.054400   5.157881   0.325389  -0.050449  -0.005612
    10  C   -0.054335   0.000771   0.325389   5.118273   0.337082  -0.061103
    11  C   -0.009191  -0.000334  -0.050449   0.337082   5.119860   0.335859
    12  C   -0.061298  -0.002189  -0.005612  -0.061103   0.335859   5.120382
    13  C    0.335176  -0.037493  -0.059780  -0.000498  -0.050563   0.372440
    14  H   -0.047622  -0.000658   0.004429  -0.000404   0.004207  -0.036369
    15  N   -0.058195   0.003796  -0.013927   0.001466  -0.013176  -0.082810
    16  C   -0.001971   0.000001  -0.001154  -0.000037   0.000027   0.002544
    17  H    0.001509  -0.000044  -0.000070   0.000001   0.000000   0.000000
    18  H   -0.020846  -0.004455   0.001311  -0.000083   0.000004  -0.000112
    19  H   -0.037080   0.004331   0.390359  -0.031782  -0.002195   0.000667
    20  H   -0.042798  -0.002035   0.399535  -0.035273   0.003925  -0.000417
    21  H    0.004612  -0.000074  -0.036484   0.402547  -0.034807   0.004351
    22  H   -0.004914   0.003543  -0.047060   0.397802  -0.045317  -0.001015
    23  H    0.000568   0.000035  -0.001969  -0.038923   0.399156  -0.037811
    24  H   -0.000126  -0.000102   0.004409  -0.038510   0.402300  -0.038671
    25  H    0.005194  -0.000028  -0.000414   0.004192  -0.033219   0.398296
    26  H   -0.003935   0.001665   0.000990  -0.002275  -0.041600   0.396400
    27  H   -0.000398   0.000009  -0.000056   0.000006   0.000011  -0.000033
              13         14         15         16         17         18
     1  O   -0.000022  -0.000004   0.000416   0.001635   0.000188   0.000001
     2  N   -0.000033  -0.000104   0.002311  -0.027685  -0.006026  -0.000047
     3  O   -0.000004   0.000001  -0.000016   0.002574   0.016726   0.000010
     4  C   -0.011682   0.003233  -0.064715   0.334033  -0.021797   0.001594
     5  C   -0.000526   0.005849  -0.005425  -0.046311   0.374102  -0.031562
     6  N   -0.046339  -0.007027   0.001633  -0.001252  -0.034165   0.336997
     7  C    0.335176  -0.047622  -0.058195  -0.001971   0.001509  -0.020846
     8  H   -0.037493  -0.000658   0.003796   0.000001  -0.000044  -0.004455
     9  C   -0.059780   0.004429  -0.013927  -0.001154  -0.000070   0.001311
    10  C   -0.000498  -0.000404   0.001466  -0.000037   0.000001  -0.000083
    11  C   -0.050563   0.004207  -0.013176   0.000027   0.000000   0.000004
    12  C    0.372440  -0.036369  -0.082810   0.002544   0.000000  -0.000112
    13  C    5.034324   0.402886   0.247812  -0.070761   0.000002   0.002879
    14  H    0.402886   0.528581  -0.037651  -0.004441   0.000084  -0.000126
    15  N    0.247812  -0.037651   6.973614   0.582771  -0.000068  -0.000129
    16  C   -0.070761  -0.004441   0.582771   4.700846   0.001785  -0.000195
    17  H    0.000002   0.000084  -0.000068   0.001785   0.373126  -0.002718
    18  H    0.002879  -0.000126  -0.000129  -0.000195  -0.002718   0.308605
    19  H   -0.007438   0.000118   0.007790   0.002997   0.000016  -0.000151
    20  H    0.004315  -0.000066   0.000127  -0.000033   0.000002   0.000844
    21  H   -0.000434   0.000010  -0.000041   0.000004  -0.000000   0.000001
    22  H    0.000066  -0.000054   0.000017  -0.000002   0.000000   0.000001
    23  H   -0.007570   0.000009   0.008846   0.000112   0.000000   0.000000
    24  H    0.004688  -0.000056   0.000140   0.000007   0.000000  -0.000000
    25  H   -0.035404  -0.002848   0.000497  -0.000021  -0.000000   0.000002
    26  H   -0.047481  -0.001022   0.004929  -0.000058   0.000000  -0.000000
    27  H    0.005047  -0.000167  -0.040407   0.403749  -0.000068   0.000001
              19         20         21         22         23         24
     1  O    0.000001   0.000000  -0.000000  -0.000000   0.000000   0.000000
     2  N   -0.000005  -0.000000   0.000000   0.000000  -0.000000   0.000000
     3  O    0.000000   0.000000   0.000000  -0.000000   0.000000   0.000000
     4  C   -0.001190  -0.000074   0.000001  -0.000000   0.000041   0.000000
     5  C    0.001242   0.000156   0.000001  -0.000003  -0.000000  -0.000000
     6  N   -0.000451  -0.000529  -0.000078  -0.000118  -0.000031   0.000006
     7  C   -0.037080  -0.042798   0.004612  -0.004914   0.000568  -0.000126
     8  H    0.004331  -0.002035  -0.000074   0.003543   0.000035  -0.000102
     9  C    0.390359   0.399535  -0.036484  -0.047060  -0.001969   0.004409
    10  C   -0.031782  -0.035273   0.402547   0.397802  -0.038923  -0.038510
    11  C   -0.002195   0.003925  -0.034807  -0.045317   0.399156   0.402300
    12  C    0.000667  -0.000417   0.004351  -0.001015  -0.037811  -0.038671
    13  C   -0.007438   0.004315  -0.000434   0.000066  -0.007570   0.004688
    14  H    0.000118  -0.000066   0.000010  -0.000054   0.000009  -0.000056
    15  N    0.007790   0.000127  -0.000041   0.000017   0.008846   0.000140
    16  C    0.002997  -0.000033   0.000004  -0.000002   0.000112   0.000007
    17  H    0.000016   0.000002  -0.000000   0.000000   0.000000   0.000000
    18  H   -0.000151   0.000844   0.000001   0.000001   0.000000  -0.000000
    19  H    0.502383  -0.024711  -0.002772   0.003936   0.001509  -0.000065
    20  H   -0.024711   0.541686  -0.002709  -0.002973  -0.000044  -0.000083
    21  H   -0.002772  -0.002709   0.523257  -0.027339  -0.002878  -0.002245
    22  H    0.003936  -0.002973  -0.027339   0.571208   0.004119  -0.003653
    23  H    0.001509  -0.000044  -0.002878   0.004119   0.497426  -0.025360
    24  H   -0.000065  -0.000083  -0.002245  -0.003653  -0.025360   0.538017
    25  H   -0.000030   0.000012  -0.000086  -0.000081  -0.002301  -0.002310
    26  H    0.000019  -0.000030  -0.000081   0.002385   0.004069  -0.003012
    27  H    0.000084   0.000000  -0.000000   0.000000  -0.000037  -0.000000
              25         26         27
     1  O    0.000000   0.000000   0.006540
     2  N   -0.000000  -0.000000  -0.000766
     3  O    0.000000   0.000000   0.000031
     4  C    0.000022   0.000007  -0.063877
     5  C   -0.000000  -0.000002   0.002119
     6  N   -0.000088  -0.000058  -0.000000
     7  C    0.005194  -0.003935  -0.000398
     8  H   -0.000028   0.001665   0.000009
     9  C   -0.000414   0.000990  -0.000056
    10  C    0.004192  -0.002275   0.000006
    11  C   -0.033219  -0.041600   0.000011
    12  C    0.398296   0.396400  -0.000033
    13  C   -0.035404  -0.047481   0.005047
    14  H   -0.002848  -0.001022  -0.000167
    15  N    0.000497   0.004929  -0.040407
    16  C   -0.000021  -0.000058   0.403749
    17  H   -0.000000   0.000000  -0.000068
    18  H    0.000002  -0.000000   0.000001
    19  H   -0.000030   0.000019   0.000084
    20  H    0.000012  -0.000030   0.000000
    21  H   -0.000086  -0.000081  -0.000000
    22  H   -0.000081   0.002385   0.000000
    23  H   -0.002301   0.004069  -0.000037
    24  H   -0.002310  -0.003012  -0.000000
    25  H    0.504519  -0.024008  -0.000013
    26  H   -0.024008   0.563391   0.000001
    27  H   -0.000013   0.000001   0.438774
 Mulliken charges:
               1
     1  O   -0.472396
     2  N    0.494918
     3  O   -0.510011
     4  C   -0.019241
     5  C    0.199616
     6  N   -0.766029
     7  C    0.056071
     8  H    0.181934
     9  C   -0.302123
    10  C   -0.327946
    11  C   -0.321388
    12  C   -0.307051
    13  C   -0.033610
    14  H    0.189211
    15  N   -0.519607
    16  C    0.120839
    17  H    0.297418
    18  H    0.408174
    19  H    0.192419
    20  H    0.161171
    21  H    0.175243
    22  H    0.149454
    23  H    0.201033
    24  H    0.164627
    25  H    0.188116
    26  H    0.149708
    27  H    0.249449
 Sum of Mulliken charges =  -0.00000
 Mulliken charges with hydrogens summed into heavy atoms:
               1
     1  O   -0.472396
     2  N    0.494918
     3  O   -0.510011
     4  C   -0.019241
     5  C    0.497034
     6  N   -0.357855
     7  C    0.238005
     9  C    0.051467
    10  C   -0.003249
    11  C    0.044273
    12  C    0.030772
    13  C    0.155601
    15  N   -0.519607
    16  C    0.370288
 Electronic spatial extent (au):  <R**2>=           3014.5057
 Charge=              0.0000 electrons
 Dipole moment (field-independent basis, Debye):
    X=              5.6699    Y=              5.0762    Z=              1.3548  Tot=              7.7299
 Quadrupole moment (field-independent basis, Debye-Ang):
   XX=           -106.9801   YY=            -78.7205   ZZ=            -81.6467
   XY=             -1.8666   XZ=             -0.4636   YZ=              1.8861
 Traceless Quadrupole moment (field-independent basis, Debye-Ang):
   XX=            -17.8643   YY=             10.3953   ZZ=              7.4691
   XY=             -1.8666   XZ=             -0.4636   YZ=              1.8861
 Octapole moment (field-independent basis, Debye-Ang**2):
  XXX=             96.7363  YYY=             37.9109  ZZZ=             -1.1241  XYY=             -4.4868
  XXY=             10.0019  XXZ=              6.3254  XZZ=             -9.0517  YZZ=             -0.0841
  YYZ=              8.3758  XYZ=              0.5100
 Hexadecapole moment (field-independent basis, Debye-Ang**3):
 XXXX=          -3399.5309 YYYY=           -603.3666 ZZZZ=           -305.2117 XXXY=            -23.3505
 XXXZ=            -24.5263 YYYX=            -10.4685 YYYZ=             24.4097 ZZZX=             -3.6105
 ZZZY=              5.8752 XXYY=           -629.6191 XXZZ=           -525.8888 YYZZ=           -158.5134
 XXYZ=             -5.4719 YYXZ=             -0.5569 ZZXY=              3.8843
 N-N= 9.294293251795D+02 E-N=-3.405471177479D+03  KE= 6.595001676201D+02
 Unable to Open any file for archive entry.
 1\1\GINC-LOTUS\FOpt\RMP2-FC\6-31G(d)\C9H13N3O2\ALEXEY\01-Jul-2023\0\\#
 MP2/6-31G* SCF=Tight Opt=(ModRedun, MaxCycle=20 ) NoSymm\\MolName:\\0,
 1\O,-3.5233141297,-1.388218794,-0.4104085557\N,-3.1263880058,-0.237495
 8647,-0.1406277189\O,-3.8920085402,0.7314913217,0.032516711\C,-1.69650
 85435,-0.0496754704,-0.0073537557\C,-1.2944736647,1.2884252358,0.28058
 45274\N,-0.0494556732,1.7602918215,0.3972467754\C,1.2080751056,1.02410
 35523,0.3685313245\H,1.8592453579,1.5496806405,1.0830257489\C,1.904762
 1567,1.0366213927,-0.991076202\C,3.3036354002,0.4292941785,-0.83434355
 44\C,3.2575248643,-0.9673158798,-0.2090662546\C,2.4684589269,-0.977588
 0464,1.1017616257\C,1.0563618114,-0.4268727618,0.8698374771\H,0.483835
 681,-0.4057856676,1.8110741094\N,0.4081508614,-1.3255617197,-0.0789912
 77\C,-0.8414192439,-1.1551692032,-0.3742912312\H,-2.092120961,2.013569
 7231,0.4104934003\H,0.0205943277,2.7476034371,0.6176565021\H,1.3059511
 84,0.4587961456,-1.7032250664\H,1.9694891161,2.0644309069,-1.369463060
 2\H,3.8022000022,0.3921240345,-1.809669663\H,3.906935475,1.0948193077,
 -0.200625851\H,2.7755827205,-1.6631261535,-0.9028902203\H,4.2772318813
 ,-1.3317023545,-0.0370190631\H,2.3849585056,-1.9992114309,1.4865464356
 \H,2.9810140064,-0.3787570105,1.8673303291\H,-1.3003186222,-1.92175134
 09,-0.998553493\\Version=ES64L-G16RevC.02\HF=-661.296976\MP2=-663.3320
 604\RMSD=7.453e-09\RMSF=7.362e-03\Dipole=2.0697046,1.7676262,0.4948745
 \PG=C01 [X(C9H13N3O2)]\\@
 The archive entry for this job was punched.


 WE SHOULD BE CAREFUL TO GET OUT OF AN EXPERIENCE ONLY THE WISDOM
 THAT IS IN IT -- AND STOP THERE;
 LEST WE BE LIKE THE CAT THAT SITS DOWN ON A HOT STOVE-LID.
 SHE WILL NEVER SIT DOWN ON A HOT STOVE LID AGAIN;
 BUT ALSO SHE WILL NEVER SIT DOWN ON A COLD ONE ANY MORE.

                                                     -- MARK TWAIN
 Job cpu time:       0 days  1 hours 10 minutes 39.4 seconds.
 Elapsed time:       0 days  0 hours 21 minutes 10.9 seconds.
 File lengths (MBytes):  RWF=     36 Int=      0 D2E=      0 Chk=      7 Scr=      1
 Normal termination of Gaussian 16 at Sat Jul  1 09:00:57 2023.
