 Entering Gaussian System, Link 0=g16
 Initial command:
 /home/alexey/programs//g16/l1.exe "/home/alexey/tmp/Gau-1605171.inp" -scrdir="/home/alexey/tmp/"
 Entering Link 1 = /home/alexey/programs//g16/l1.exe PID=   1605173.
  
 Copyright (c) 1988-2021, Gaussian, Inc.  All Rights Reserved.
  
 This is part of the Gaussian(R) 16 program.  It is based on
 the Gaussian(R) 09 system (copyright 2009, Gaussian, Inc.),
 the Gaussian(R) 03 system (copyright 2003, Gaussian, Inc.),
 the Gaussian(R) 98 system (copyright 1998, Gaussian, Inc.),
 the Gaussian(R) 94 system (copyright 1995, Gaussian, Inc.),
 the Gaussian 92(TM) system (copyright 1992, Gaussian, Inc.),
 the Gaussian 90(TM) system (copyright 1990, Gaussian, Inc.),
 the Gaussian 88(TM) system (copyright 1988, Gaussian, Inc.),
 the Gaussian 86(TM) system (copyright 1986, Carnegie Mellon
 University), and the Gaussian 82(TM) system (copyright 1983,
 Carnegie Mellon University). Gaussian is a federally registered
 trademark of Gaussian, Inc.
  
 This software contains proprietary and confidential information,
 including trade secrets, belonging to Gaussian, Inc.
  
 This software is provided under written license and may be
 used, copied, transmitted, or stored only in accord with that
 written license.
  
 The following legend is applicable only to US Government
 contracts under FAR:
  
                    RESTRICTED RIGHTS LEGEND
  
 Use, reproduction and disclosure by the US Government is
 subject to restrictions as set forth in subparagraphs (a)
 and (c) of the Commercial Computer Software - Restricted
 Rights clause in FAR 52.227-19.
  
 Gaussian, Inc.
 340 Quinnipiac St., Bldg. 40, Wallingford CT 06492
  
  
 ---------------------------------------------------------------
 Warning -- This program may not be used in any manner that
 competes with the business of Gaussian, Inc. or will provide
 assistance to any competitor of Gaussian, Inc.  The licensee
 of this program is prohibited from giving any competitor of
 Gaussian, Inc. access to this program.  By using this program,
 the user acknowledges that Gaussian, Inc. is engaged in the
 business of creating and licensing software in the field of
 computational chemistry and represents and warrants to the
 licensee that it is not a competitor of Gaussian, Inc. and that
 it will not use this program in any manner prohibited above.
 ---------------------------------------------------------------
  

 Cite this work as:
 Gaussian 16, Revision C.02,
 M. J. Frisch, G. W. Trucks, H. B. Schlegel, G. E. Scuseria, 
 M. A. Robb, J. R. Cheeseman, G. Scalmani, V. Barone, 
 G. A. Petersson, H. Nakatsuji, X. Li, M. Caricato, A. V. Marenich, 
 J. Bloino, B. G. Janesko, R. Gomperts, B. Mennucci, H. P. Hratchian, 
 J. V. Ortiz, A. F. Izmaylov, J. L. Sonnenberg, D. Williams-Young, 
 F. Ding, F. Lipparini, F. Egidi, J. Goings, B. Peng, A. Petrone, 
 T. Henderson, D. Ranasinghe, V. G. Zakrzewski, J. Gao, N. Rega, 
 G. Zheng, W. Liang, M. Hada, M. Ehara, K. Toyota, R. Fukuda, 
 J. Hasegawa, M. Ishida, T. Nakajima, Y. Honda, O. Kitao, H. Nakai, 
 T. Vreven, K. Throssell, J. A. Montgomery, Jr., J. E. Peralta, 
 F. Ogliaro, M. J. Bearpark, J. J. Heyd, E. N. Brothers, K. N. Kudin, 
 V. N. Staroverov, T. A. Keith, R. Kobayashi, J. Normand, 
 K. Raghavachari, A. P. Rendell, J. C. Burant, S. S. Iyengar, 
 J. Tomasi, M. Cossi, J. M. Millam, M. Klene, C. Adamo, R. Cammi, 
 J. W. Ochterski, R. L. Martin, K. Morokuma, O. Farkas, 
 J. B. Foresman, and D. J. Fox, Gaussian, Inc., Wallingford CT, 2019.
 
 ******************************************
 Gaussian 16:  ES64L-G16RevC.02  7-Dec-2021
                 3-Jul-2023 
 ******************************************
 %mem=8GB
 %NPROCS=4
 Will use up to    4 processors via shared memory.
 %NoSave
 ---------------------------------------------------------
 #MP2/6-31G* SCF=Tight Opt=(ModRedun, MaxCycle=20 ) NoSymm
 ---------------------------------------------------------
 1/6=20,18=120,19=15,38=1/1,3;
 2/9=110,12=2,15=1,17=6,18=5,40=1/2;
 3/5=1,6=6,7=1,11=9,25=1,30=1,71=1/1,2,3;
 4//1;
 5/5=2,32=2,38=5/2;
 8/6=4,10=2/1;
 9/15=2,16=-3/6;
 10/5=1,31=1/2;
 6/7=2,8=2,9=2,10=2/1;
 7/12=2,30=1/1,2,3,16;
 1/6=20,18=20,19=15/3(2);
 2/9=110,15=1/2;
 99//99;
 2/9=110,15=1/2;
 3/5=1,6=6,7=1,11=9,25=1,30=1,71=1/1,2,3;
 4/5=5,16=3,69=1/1;
 5/5=2,32=2,38=5/2;
 8/6=4,10=2/1;
 9/15=2,16=-3/6;
 10/5=1,31=1/2;
 7/12=2,30=1/1,2,3,16;
 1/6=20,18=20,19=15/3(-8);
 2/9=110,15=1/2;
 6/7=2,8=2,9=2,10=2/1;
 99/9=10/99;
 --------
 MolName:
 --------
 Symbolic Z-matrix:
 Charge =  0 Multiplicity = 1
 8                    0    -3.517    -1.5048    0.16185 
 7                    0    -3.21631  -0.31304   0.11622 
 8                    0    -4.03727   0.60349   0.16996 
 6                    0    -1.76103   0.04525  -0.16775 
 6                    0    -1.37337   1.32563   0.24133 
 7                    0    -0.08472   1.78518   0.32515 
 6                    0     1.18846   1.00232   0.33003 
 1                    0     1.83055   1.48713   1.11074 
 6                    0     1.99865   1.06058  -0.98882 
 6                    0     3.39825   0.45948  -0.75805 
 6                    0     3.30379  -0.962    -0.18141 
 6                    0     2.41189  -1.00157   1.07833 
 6                    0     0.98868  -0.44976   0.79063 
 1                    0     0.40908  -0.49394   1.74256 
 7                    0     0.35694  -1.30337  -0.21865 
 6                    0    -0.87279  -1.08264  -0.55222 
 1                    0    -2.15769   2.03634   0.55129 
 1                    0     0.14911   2.76395   0.14182 
 1                    0     1.47092   0.49666  -1.78718 
 1                    0     2.10615   2.11332  -1.32624 
 1                    0     3.96566   0.4409   -1.71421 
 1                    0     3.95711   1.10072  -0.0403 
 1                    0     2.87591  -1.6392   -0.95478 
 1                    0     4.3205   -1.33768   0.06629 
 1                    0     2.33157  -2.05121   1.4369 
 1                    0     2.88486  -0.40364   1.88537 
 1                    0    -1.36991  -1.81809  -1.20287 
 
 The following ModRedundant input section has been read:
 D       4       5      16       2 F                                           
 D       1       2       4      16 F                                           
 D       7      13      15      16 F                                           
 D       7       9      10      11 F                                           
 D       9      10      11      12 F                                           
 D       6       7      13      15 F                                           
 

 GradGradGradGradGradGradGradGradGradGradGradGradGradGradGradGradGradGrad
 Berny optimization.
 Initialization pass.
                           ----------------------------
                           !    Initial Parameters    !
                           ! (Angstroms and Degrees)  !
 --------------------------                            --------------------------
 ! Name  Definition              Value          Derivative Info.                !
 --------------------------------------------------------------------------------
 ! R1    R(1,2)                  1.23           estimate D2E/DX2                !
 ! R2    R(2,3)                  1.2316         estimate D2E/DX2                !
 ! R3    R(2,4)                  1.5254         estimate D2E/DX2                !
 ! R4    R(4,5)                  1.3989         estimate D2E/DX2                !
 ! R5    R(4,16)                 1.4862         estimate D2E/DX2                !
 ! R6    R(5,6)                  1.3707         estimate D2E/DX2                !
 ! R7    R(5,17)                 1.1029         estimate D2E/DX2                !
 ! R8    R(6,7)                  1.4946         estimate D2E/DX2                !
 ! R9    R(6,18)                 1.0229         estimate D2E/DX2                !
 ! R10   R(7,8)                  1.1211         estimate D2E/DX2                !
 ! R11   R(7,9)                  1.5489         estimate D2E/DX2                !
 ! R12   R(7,13)                 1.5364         estimate D2E/DX2                !
 ! R13   R(9,10)                 1.5406         estimate D2E/DX2                !
 ! R14   R(9,19)                 1.1108         estimate D2E/DX2                !
 ! R15   R(9,20)                 1.1107         estimate D2E/DX2                !
 ! R16   R(10,11)                1.5369         estimate D2E/DX2                !
 ! R17   R(10,21)                1.112          estimate D2E/DX2                !
 ! R18   R(10,22)                1.113          estimate D2E/DX2                !
 ! R19   R(11,12)                1.544          estimate D2E/DX2                !
 ! R20   R(11,23)                1.1135         estimate D2E/DX2                !
 ! R21   R(11,24)                1.1118         estimate D2E/DX2                !
 ! R22   R(12,13)                1.5533         estimate D2E/DX2                !
 ! R23   R(12,25)                1.1121         estimate D2E/DX2                !
 ! R24   R(12,26)                1.1102         estimate D2E/DX2                !
 ! R25   R(13,14)                1.1154         estimate D2E/DX2                !
 ! R26   R(13,15)                1.4651         estimate D2E/DX2                !
 ! R27   R(15,16)                1.2931         estimate D2E/DX2                !
 ! R28   R(16,27)                1.1006         estimate D2E/DX2                !
 ! A1    A(1,2,3)              123.8127         estimate D2E/DX2                !
 ! A2    A(1,2,4)              117.887          estimate D2E/DX2                !
 ! A3    A(3,2,4)              117.9862         estimate D2E/DX2                !
 ! A4    A(2,4,5)              115.1452         estimate D2E/DX2                !
 ! A5    A(2,4,16)             116.1087         estimate D2E/DX2                !
 ! A6    A(5,4,16)             127.2007         estimate D2E/DX2                !
 ! A7    A(4,5,6)              125.8214         estimate D2E/DX2                !
 ! A8    A(4,5,17)             118.3541         estimate D2E/DX2                !
 ! A9    A(6,5,17)             115.8075         estimate D2E/DX2                !
 ! A10   A(5,6,7)              128.7146         estimate D2E/DX2                !
 ! A11   A(5,6,18)             121.6524         estimate D2E/DX2                !
 ! A12   A(7,6,18)             107.8818         estimate D2E/DX2                !
 ! A13   A(6,7,8)              105.2867         estimate D2E/DX2                !
 ! A14   A(6,7,9)              115.0298         estimate D2E/DX2                !
 ! A15   A(6,7,13)             112.659          estimate D2E/DX2                !
 ! A16   A(8,7,9)              106.0873         estimate D2E/DX2                !
 ! A17   A(8,7,13)             105.927          estimate D2E/DX2                !
 ! A18   A(9,7,13)             111.0277         estimate D2E/DX2                !
 ! A19   A(7,9,10)             109.4495         estimate D2E/DX2                !
 ! A20   A(7,9,19)             110.1432         estimate D2E/DX2                !
 ! A21   A(7,9,20)             110.1781         estimate D2E/DX2                !
 ! A22   A(10,9,19)            109.9492         estimate D2E/DX2                !
 ! A23   A(10,9,20)            109.1103         estimate D2E/DX2                !
 ! A24   A(19,9,20)            107.9879         estimate D2E/DX2                !
 ! A25   A(9,10,11)            111.1762         estimate D2E/DX2                !
 ! A26   A(9,10,21)            109.9549         estimate D2E/DX2                !
 ! A27   A(9,10,22)            109.1463         estimate D2E/DX2                !
 ! A28   A(11,10,21)           109.787          estimate D2E/DX2                !
 ! A29   A(11,10,22)           108.771          estimate D2E/DX2                !
 ! A30   A(21,10,22)           107.9344         estimate D2E/DX2                !
 ! A31   A(10,11,12)           111.4276         estimate D2E/DX2                !
 ! A32   A(10,11,23)           108.9984         estimate D2E/DX2                !
 ! A33   A(10,11,24)           109.8709         estimate D2E/DX2                !
 ! A34   A(12,11,23)           109.2154         estimate D2E/DX2                !
 ! A35   A(12,11,24)           109.7428         estimate D2E/DX2                !
 ! A36   A(23,11,24)           107.4958         estimate D2E/DX2                !
 ! A37   A(11,12,13)           111.6567         estimate D2E/DX2                !
 ! A38   A(11,12,25)           109.2063         estimate D2E/DX2                !
 ! A39   A(11,12,26)           109.4631         estimate D2E/DX2                !
 ! A40   A(13,12,25)           109.1983         estimate D2E/DX2                !
 ! A41   A(13,12,26)           109.4906         estimate D2E/DX2                !
 ! A42   A(25,12,26)           107.7412         estimate D2E/DX2                !
 ! A43   A(7,13,12)            105.7912         estimate D2E/DX2                !
 ! A44   A(7,13,14)            111.1531         estimate D2E/DX2                !
 ! A45   A(7,13,15)            113.5911         estimate D2E/DX2                !
 ! A46   A(12,13,14)           107.6964         estimate D2E/DX2                !
 ! A47   A(12,13,15)           108.4031         estimate D2E/DX2                !
 ! A48   A(14,13,15)           109.9256         estimate D2E/DX2                !
 ! A49   A(13,15,16)           119.2295         estimate D2E/DX2                !
 ! A50   A(4,16,15)            129.1342         estimate D2E/DX2                !
 ! A51   A(4,16,27)            112.9599         estimate D2E/DX2                !
 ! A52   A(15,16,27)           117.9018         estimate D2E/DX2                !
 ! D1    D(1,2,4,5)           -158.6081         estimate D2E/DX2                !
 ! D2    D(1,2,4,16)             8.2584         Frozen                          !
 ! D3    D(3,2,4,5)             27.5795         estimate D2E/DX2                !
 ! D4    D(3,2,4,16)          -165.554          estimate D2E/DX2                !
 ! D5    D(2,4,5,6)            167.1417         estimate D2E/DX2                !
 ! D6    D(2,4,5,17)           -11.2876         estimate D2E/DX2                !
 ! D7    D(16,4,5,6)             1.9838         estimate D2E/DX2                !
 ! D8    D(16,4,5,17)         -176.4454         estimate D2E/DX2                !
 ! D9    D(2,4,16,15)         -141.011          estimate D2E/DX2                !
 ! D10   D(2,4,16,27)           38.232          estimate D2E/DX2                !
 ! D11   D(5,4,16,15)           24.0238         estimate D2E/DX2                !
 ! D12   D(5,4,16,27)         -156.7331         estimate D2E/DX2                !
 ! D13   D(4,5,6,7)            -15.913          estimate D2E/DX2                !
 ! D14   D(4,5,6,18)           147.1113         estimate D2E/DX2                !
 ! D15   D(17,5,6,7)           162.5515         estimate D2E/DX2                !
 ! D16   D(17,5,6,18)          -34.4242         estimate D2E/DX2                !
 ! D17   D(4,5,16,2)            -9.4541         Frozen                          !
 ! D18   D(5,6,7,8)           -138.2039         estimate D2E/DX2                !
 ! D19   D(5,6,7,9)            105.3943         estimate D2E/DX2                !
 ! D20   D(5,6,7,13)           -23.2193         estimate D2E/DX2                !
 ! D21   D(18,6,7,8)            56.9345         estimate D2E/DX2                !
 ! D22   D(18,6,7,9)           -59.4673         estimate D2E/DX2                !
 ! D23   D(18,6,7,13)          171.9191         estimate D2E/DX2                !
 ! D24   D(6,7,9,10)           168.7125         estimate D2E/DX2                !
 ! D25   D(6,7,9,19)           -70.2943         estimate D2E/DX2                !
 ! D26   D(6,7,9,20)            48.734          estimate D2E/DX2                !
 ! D27   D(8,7,9,10)            52.7682         estimate D2E/DX2                !
 ! D28   D(8,7,9,19)           173.7615         estimate D2E/DX2                !
 ! D29   D(8,7,9,20)           -67.2102         estimate D2E/DX2                !
 ! D30   D(13,7,9,10)          -61.8668         estimate D2E/DX2                !
 ! D31   D(13,7,9,19)           59.1265         estimate D2E/DX2                !
 ! D32   D(13,7,9,20)          178.1548         estimate D2E/DX2                !
 ! D33   D(6,7,13,12)         -166.1941         estimate D2E/DX2                !
 ! D34   D(6,7,13,14)          -49.5694         estimate D2E/DX2                !
 ! D35   D(6,7,13,15)           75.0222         Frozen                          !
 ! D36   D(8,7,13,12)          -51.5968         estimate D2E/DX2                !
 ! D37   D(8,7,13,14)           65.028          estimate D2E/DX2                !
 ! D38   D(8,7,13,15)         -170.3805         estimate D2E/DX2                !
 ! D39   D(9,7,13,12)           63.1382         estimate D2E/DX2                !
 ! D40   D(9,7,13,14)          179.763          estimate D2E/DX2                !
 ! D41   D(9,7,13,15)          -55.6455         estimate D2E/DX2                !
 ! D42   D(7,9,10,11)           54.8118         Frozen                          !
 ! D43   D(7,9,10,21)          176.6069         estimate D2E/DX2                !
 ! D44   D(7,9,10,22)          -65.1746         estimate D2E/DX2                !
 ! D45   D(19,9,10,11)         -66.2989         estimate D2E/DX2                !
 ! D46   D(19,9,10,21)          55.4962         estimate D2E/DX2                !
 ! D47   D(19,9,10,22)         173.7146         estimate D2E/DX2                !
 ! D48   D(20,9,10,11)         175.4425         estimate D2E/DX2                !
 ! D49   D(20,9,10,21)         -62.7624         estimate D2E/DX2                !
 ! D50   D(20,9,10,22)          55.4561         estimate D2E/DX2                !
 ! D51   D(9,10,11,12)         -52.8223         Frozen                          !
 ! D52   D(9,10,11,23)          67.778          estimate D2E/DX2                !
 ! D53   D(9,10,11,24)        -174.6721         estimate D2E/DX2                !
 ! D54   D(21,10,11,12)       -174.715          estimate D2E/DX2                !
 ! D55   D(21,10,11,23)        -54.1147         estimate D2E/DX2                !
 ! D56   D(21,10,11,24)         63.4352         estimate D2E/DX2                !
 ! D57   D(22,10,11,12)         67.3866         estimate D2E/DX2                !
 ! D58   D(22,10,11,23)       -172.0131         estimate D2E/DX2                !
 ! D59   D(22,10,11,24)        -54.4632         estimate D2E/DX2                !
 ! D60   D(10,11,12,13)         56.5754         estimate D2E/DX2                !
 ! D61   D(10,11,12,25)        177.4388         estimate D2E/DX2                !
 ! D62   D(10,11,12,26)        -64.8288         estimate D2E/DX2                !
 ! D63   D(23,11,12,13)        -63.8975         estimate D2E/DX2                !
 ! D64   D(23,11,12,25)         56.9659         estimate D2E/DX2                !
 ! D65   D(23,11,12,26)        174.6983         estimate D2E/DX2                !
 ! D66   D(24,11,12,13)        178.4993         estimate D2E/DX2                !
 ! D67   D(24,11,12,25)        -60.6373         estimate D2E/DX2                !
 ! D68   D(24,11,12,26)         57.0951         estimate D2E/DX2                !
 ! D69   D(11,12,13,7)         -60.2081         estimate D2E/DX2                !
 ! D70   D(11,12,13,14)       -179.147          estimate D2E/DX2                !
 ! D71   D(11,12,13,15)         61.9605         estimate D2E/DX2                !
 ! D72   D(25,12,13,7)         178.9239         estimate D2E/DX2                !
 ! D73   D(25,12,13,14)         59.985          estimate D2E/DX2                !
 ! D74   D(25,12,13,15)        -58.9075         estimate D2E/DX2                !
 ! D75   D(26,12,13,7)          61.1803         estimate D2E/DX2                !
 ! D76   D(26,12,13,14)        -57.7587         estimate D2E/DX2                !
 ! D77   D(26,12,13,15)       -176.6511         estimate D2E/DX2                !
 ! D78   D(7,13,15,16)         -67.16           Frozen                          !
 ! D79   D(12,13,15,16)        175.5655         estimate D2E/DX2                !
 ! D80   D(14,13,15,16)         58.0903         estimate D2E/DX2                !
 ! D81   D(13,15,16,4)           7.6644         estimate D2E/DX2                !
 ! D82   D(13,15,16,27)       -171.547          estimate D2E/DX2                !
 --------------------------------------------------------------------------------
 Trust Radius=3.00D-01 FncErr=1.00D-07 GrdErr=1.00D-07 EigMax=2.50D+02 EigMin=1.00D-04
 Number of steps in this run=     20 maximum allowed number of steps=    162.
 GradGradGradGradGradGradGradGradGradGradGradGradGradGradGradGradGradGrad

                          Input orientation:                          
 ---------------------------------------------------------------------
 Center     Atomic      Atomic             Coordinates (Angstroms)
 Number     Number       Type             X           Y           Z
 ---------------------------------------------------------------------
      1          8           0       -3.517000   -1.504800    0.161850
      2          7           0       -3.216310   -0.313040    0.116220
      3          8           0       -4.037270    0.603490    0.169960
      4          6           0       -1.761030    0.045250   -0.167750
      5          6           0       -1.373370    1.325630    0.241330
      6          7           0       -0.084720    1.785180    0.325150
      7          6           0        1.188460    1.002320    0.330030
      8          1           0        1.830550    1.487130    1.110740
      9          6           0        1.998650    1.060580   -0.988820
     10          6           0        3.398250    0.459480   -0.758050
     11          6           0        3.303790   -0.962000   -0.181410
     12          6           0        2.411890   -1.001570    1.078330
     13          6           0        0.988680   -0.449760    0.790630
     14          1           0        0.409080   -0.493940    1.742560
     15          7           0        0.356940   -1.303370   -0.218650
     16          6           0       -0.872790   -1.082640   -0.552220
     17          1           0       -2.157690    2.036340    0.551290
     18          1           0        0.149110    2.763950    0.141820
     19          1           0        1.470920    0.496660   -1.787180
     20          1           0        2.106150    2.113320   -1.326240
     21          1           0        3.965660    0.440900   -1.714210
     22          1           0        3.957110    1.100720   -0.040300
     23          1           0        2.875910   -1.639200   -0.954780
     24          1           0        4.320500   -1.337680    0.066290
     25          1           0        2.331570   -2.051210    1.436900
     26          1           0        2.884860   -0.403640    1.885370
     27          1           0       -1.369910   -1.818090   -1.202870
 ---------------------------------------------------------------------
                    Distance matrix (angstroms):
                    1          2          3          4          5
     1  O    0.000000
     2  N    1.229955   0.000000
     3  O    2.171551   1.231621   0.000000
     4  C    2.365316   1.525402   2.367900   0.000000
     5  C    3.551450   2.469275   2.760968   1.398928   0.000000
     6  N    4.757224   3.775319   4.128332   2.465831   1.370704
     7  C    5.334350   4.601944   5.243371   3.140583   2.583674
     8  H    6.200672   5.449814   6.008094   4.075905   3.323712
     9  C    6.190930   5.504884   6.163119   3.979980   3.599172
    10  C    7.247434   6.716661   7.494591   5.209435   4.951498
    11  C    6.850959   6.559073   7.514345   5.164024   5.223771
    12  C    6.020375   5.751205   6.707684   4.479041   4.521573
    13  C    4.670078   4.260923   5.172498   2.953715   3.005498
    14  H    4.351389   3.977582   4.842257   2.940984   2.956629
    15  N    3.897790   3.723037   4.805852   2.511407   3.180754
    16  C    2.771274   2.555618   3.657665   1.486245   2.584582
    17  H    3.813012   2.613341   2.394012   2.153787   1.102879
    18  H    5.626988   4.560107   4.711067   3.337034   2.096810
    19  H    5.716984   5.123346   5.846535   3.643052   3.590547
    20  H    6.850184   6.024657   6.500755   4.535867   3.896767
    21  H    7.955850   7.449805   8.223346   5.945003   5.754314
    22  H    7.917823   7.313082   8.012588   5.816131   5.342651
    23  H    6.491088   6.326206   7.354370   4.995798   5.317638
    24  H    7.839864   7.606306   8.580863   6.241176   6.288403
    25  H    6.010831   5.961913   7.015318   4.870259   5.153544
    26  H    6.720631   6.353139   7.202279   5.099127   4.881164
    27  H    2.563319   2.722934   3.855324   2.167137   3.459581
                    6          7          8          9         10
     6  N    0.000000
     7  C    1.494617   0.000000
     8  H    2.091469   1.121084   0.000000
     9  C    2.567488   1.548925   2.149036   0.000000
    10  C    3.880964   2.522254   2.646908   1.540603   0.000000
    11  C    4.391537   2.931680   3.136611   2.538923   1.536894
    12  C    3.816584   2.464206   2.555902   2.948956   2.545558
    13  C    2.522660   1.536425   2.136061   2.543149   3.005188
    14  H    2.728970   2.200334   2.518812   3.521889   4.012131
    15  N    3.167005   2.511709   3.424280   2.979368   3.556425
    16  C    3.100842   3.061727   4.083773   3.609595   4.545578
    17  H    2.100339   3.509255   4.064563   4.538635   5.921936
    18  H    1.022877   2.054023   2.322997   2.756921   4.083780
    19  H    2.922711   2.195007   3.083554   1.110803   2.185198
    20  H    2.763092   2.195383   2.531194   1.110707   2.174293
    21  H    4.729869   3.493845   3.692375   2.186166   1.111999
    22  H    4.115632   2.795040   2.448768   2.176434   1.112959
    23  H    4.704246   3.387603   3.890127   2.838936   2.171635
    24  H    5.406036   3.918524   3.907720   3.500842   2.181712
    25  H    4.668226   3.443241   3.588489   3.959569   3.501311
    26  H    4.005449   2.696957   2.299268   3.345187   2.827758
    27  H    4.119480   4.104845   5.149778   4.436187   5.302880
                   11         12         13         14         15
    11  C    0.000000
    12  C    1.544020   0.000000
    13  C    2.562613   1.553317   0.000000
    14  H    3.507148   2.170285   1.115374   0.000000
    15  N    2.966790   2.448685   1.465057   2.122320   0.000000
    16  C    4.194744   3.668022   2.380935   2.693654   1.293146
    17  H    6.273329   5.512507   4.017166   3.796018   4.250863
    18  H    4.892769   4.491811   3.384341   3.639203   4.088548
    19  H    2.840000   3.367680   2.788077   3.816786   2.634643
    20  H    3.493218   3.946894   3.507030   4.369827   3.995030
    21  H    2.180751   3.506166   3.991229   5.047023   4.278088
    22  H    2.168306   2.838778   3.450509   4.279024   4.332745
    23  H    1.113455   2.180693   2.832465   3.830472   2.645728
    24  H    1.111841   2.186318   3.523364   4.338316   3.973937
    25  H    2.179568   1.112101   2.187615   2.492887   2.683146
    26  H    2.181478   1.110196   2.189996   2.481539   3.409808
    27  H    4.860015   4.491391   3.377768   3.686968   2.053202
                   16         17         18         19         20
    16  C    0.000000
    17  H    3.549188   0.000000
    18  H    4.040077   2.453244   0.000000
    19  H    3.084200   4.583216   3.257119   0.000000
    20  H    4.437043   4.659547   2.531506   1.797101   0.000000
    21  H    5.204036   6.721111   4.838126   2.496430   2.530867
    22  H    5.325134   6.214189   4.159371   3.098002   2.470841
    23  H    3.811111   6.412096   5.293930   2.688640   3.848626
    24  H    5.236207   7.320258   5.850604   3.862675   4.330345
    25  H    3.893925   6.135619   5.442989   4.198458   5.002906
    26  H    4.530212   5.758523   4.534084   4.037003   4.154024
    27  H    1.100618   4.307471   5.011058   3.710768   5.249209
                   21         22         23         24         25
    21  H    0.000000
    22  H    1.799280   0.000000
    23  H    2.468016   3.084223   0.000000
    24  H    2.541543   2.467632   1.794530   0.000000
    25  H    4.337091   3.841766   2.487206   2.518638   0.000000
    26  H    3.852058   2.668525   3.097280   2.498509   1.794921
    27  H    5.816598   6.184510   4.256822   5.849985   4.552327
                   26         27
    26  H    0.000000
    27  H    5.444351   0.000000
 Symmetry turned off by external request.
 Stoichiometry    C9H13N3O2
 Framework group  C1[X(C9H13N3O2)]
 Deg. of freedom    75
 Full point group                 C1      NOp   1
 Rotational constants (GHZ):           1.6758737           0.4056279           0.3581610
 Standard basis: 6-31G(d) (6D, 7F)
   236 basis functions,   444 primitive gaussians,   236 cartesian basis functions
    52 alpha electrons       52 beta electrons
       nuclear repulsion energy       919.0865503736 Hartrees.
 NAtoms=   27 NActive=   27 NUniq=   27 SFac= 1.00D+00 NAtFMM=   60 NAOKFM=F Big=F
 Integral buffers will be    131072 words long.
 Raffenetti 1 integral format.
 Two-electron integral symmetry is turned off.
 One-electron integrals computed using PRISM.
 NBasis=   236 RedAO= T EigKep=  1.64D-03  NBF=   236
 NBsUse=   236 1.00D-06 EigRej= -1.00D+00 NBFU=   236
 ExpMin= 1.61D-01 ExpMax= 5.48D+03 ExpMxC= 8.25D+02 IAcc=3 IRadAn=         5 AccDes= 0.00D+00
 Harris functional with IExCor=  205 and IRadAn=       5 diagonalized for initial guess.
 HarFok:  IExCor=  205 AccDes= 0.00D+00 IRadAn=         5 IDoV= 1 UseB2=F ITyADJ=14
 ICtDFT=  3500011 ScaDFX=  1.000000  1.000000  1.000000  1.000000
 FoFCou: FMM=F IPFlag=           0 FMFlag=      100000 FMFlg1=           0
         NFxFlg=           0 DoJE=T BraDBF=F KetDBF=T FulRan=T
         wScrn=  0.000000 ICntrl=       500 IOpCl=  0 I1Cent=   200000004 NGrid=           0
         NMat0=    1 NMatS0=      1 NMatT0=    0 NMatD0=    1 NMtDS0=    0 NMtDT0=    0
 Symmetry not used in FoFCou.
 Keep R1 ints in memory in canonical form, NReq=397720213.
 Requested convergence on RMS density matrix=1.00D-08 within 128 cycles.
 Requested convergence on MAX density matrix=1.00D-06.
 Requested convergence on             energy=1.00D-06.
 No special actions if energy rises.
 SCF Done:  E(RHF) =  -661.275323216     A.U. after   17 cycles
            NFock= 17  Conv=0.47D-08     -V/T= 2.0036
 ExpMin= 1.61D-01 ExpMax= 5.48D+03 ExpMxC= 8.25D+02 IAcc=3 IRadAn=         5 AccDes= 0.00D+00
 HarFok:  IExCor=  205 AccDes= 0.00D+00 IRadAn=         5 IDoV=-2 UseB2=F ITyADJ=14
 ICtDFT= 12500011 ScaDFX=  1.000000  1.000000  1.000000  1.000000
 Range of M.O.s used for correlation:    15   236
 NBasis=   236 NAE=    52 NBE=    52 NFC=    14 NFV=     0
 NROrb=    222 NOA=    38 NOB=    38 NVA=   184 NVB=   184
 Fully direct method using O(ONN) memory.
 JobTyp=1 Pass  1:  I=  15 to  52 NPSUse=  4 ParTrn=T ParDer=T DoDerP=T.
 Spin components of T(2) and E(2):
     alpha-alpha T2 =       0.9197094021D-01 E2=     -0.2717760823D+00
     alpha-beta  T2 =       0.5005730348D+00 E2=     -0.1494669368D+01
     beta-beta   T2 =       0.9197094021D-01 E2=     -0.2717760823D+00
 ANorm=    0.1297888637D+01
 E2 =    -0.2038221532D+01 EUMP2 =    -0.66331354474817D+03
          IDoAtm=111111111111111111111111111
          Differentiating once with respect to electric field.
                with respect to dipole field.
          Differentiating once with respect to nuclear coordinates.
 Keep R1 ints in memory in canonical form, NReq=397723379.
          There are     1 degrees of freedom in the 1st order CPHF.  IDoFFX=0 NUNeed=     1.
 LinEq1:  Iter=  0 NonCon=     1 RMS=4.59D-03 Max=1.03D-01 NDo=     1
 AX will form     1 AO Fock derivatives at one time.
 LinEq1:  Iter=  1 NonCon=     1 RMS=1.56D-03 Max=3.53D-02 NDo=     1
 LinEq1:  Iter=  2 NonCon=     1 RMS=6.36D-04 Max=1.71D-02 NDo=     1
 LinEq1:  Iter=  3 NonCon=     1 RMS=2.93D-04 Max=8.93D-03 NDo=     1
 LinEq1:  Iter=  4 NonCon=     1 RMS=9.07D-05 Max=1.98D-03 NDo=     1
 LinEq1:  Iter=  5 NonCon=     1 RMS=3.79D-05 Max=1.88D-03 NDo=     1
 LinEq1:  Iter=  6 NonCon=     1 RMS=1.56D-05 Max=5.77D-04 NDo=     1
 LinEq1:  Iter=  7 NonCon=     1 RMS=5.95D-06 Max=9.27D-05 NDo=     1
 LinEq1:  Iter=  8 NonCon=     1 RMS=2.33D-06 Max=5.72D-05 NDo=     1
 LinEq1:  Iter=  9 NonCon=     1 RMS=8.36D-07 Max=2.25D-05 NDo=     1
 LinEq1:  Iter= 10 NonCon=     1 RMS=4.35D-07 Max=1.72D-05 NDo=     1
 LinEq1:  Iter= 11 NonCon=     1 RMS=1.59D-07 Max=5.59D-06 NDo=     1
 LinEq1:  Iter= 12 NonCon=     1 RMS=5.68D-08 Max=8.86D-07 NDo=     1
 LinEq1:  Iter= 13 NonCon=     1 RMS=1.83D-08 Max=3.68D-07 NDo=     1
 LinEq1:  Iter= 14 NonCon=     1 RMS=6.11D-09 Max=1.49D-07 NDo=     1
 LinEq1:  Iter= 15 NonCon=     1 RMS=2.24D-09 Max=5.49D-08 NDo=     1
 LinEq1:  Iter= 16 NonCon=     1 RMS=8.39D-10 Max=1.28D-08 NDo=     1
 LinEq1:  Iter= 17 NonCon=     1 RMS=2.69D-10 Max=4.36D-09 NDo=     1
 LinEq1:  Iter= 18 NonCon=     1 RMS=9.44D-11 Max=1.23D-09 NDo=     1
 LinEq1:  Iter= 19 NonCon=     0 RMS=3.22D-11 Max=7.21D-10 NDo=     1
 Linear equations converged to 1.000D-10 1.000D-09 after    19 iterations.
 End of Minotr F.D. properties file   721 does not exist.
 End of Minotr F.D. properties file   722 does not exist.
 End of Minotr F.D. properties file   788 does not exist.

 **********************************************************************

            Population analysis using the SCF Density.

 **********************************************************************

 Alpha  occ. eigenvalues --  -20.59936 -20.59380 -15.85158 -15.62945 -15.57249
 Alpha  occ. eigenvalues --  -11.35639 -11.30594 -11.30049 -11.30047 -11.27804
 Alpha  occ. eigenvalues --  -11.24605 -11.23877 -11.23454 -11.22890  -1.58484
 Alpha  occ. eigenvalues --   -1.37991  -1.28440  -1.22841  -1.13313  -1.08429
 Alpha  occ. eigenvalues --   -1.01842  -1.00654  -0.93464  -0.89010  -0.84917
 Alpha  occ. eigenvalues --   -0.81611  -0.78056  -0.76965  -0.74198  -0.71039
 Alpha  occ. eigenvalues --   -0.70467  -0.69604  -0.67411  -0.64437  -0.63382
 Alpha  occ. eigenvalues --   -0.61580  -0.60626  -0.57445  -0.56410  -0.54930
 Alpha  occ. eigenvalues --   -0.53395  -0.50761  -0.49327  -0.48552  -0.47710
 Alpha  occ. eigenvalues --   -0.47393  -0.46073  -0.45684  -0.43936  -0.42103
 Alpha  occ. eigenvalues --   -0.40123  -0.34067
 Alpha virt. eigenvalues --    0.07449   0.11421   0.18549   0.20788   0.22899
 Alpha virt. eigenvalues --    0.24045   0.26054   0.27679   0.28627   0.28841
 Alpha virt. eigenvalues --    0.29728   0.30844   0.31838   0.32218   0.33321
 Alpha virt. eigenvalues --    0.33709   0.34879   0.35692   0.37511   0.38719
 Alpha virt. eigenvalues --    0.40720   0.41775   0.44605   0.45284   0.45760
 Alpha virt. eigenvalues --    0.46022   0.49385   0.53481   0.57668   0.59555
 Alpha virt. eigenvalues --    0.63098   0.69203   0.69453   0.71958   0.74103
 Alpha virt. eigenvalues --    0.74820   0.75707   0.75881   0.77589   0.79460
 Alpha virt. eigenvalues --    0.80819   0.83178   0.85040   0.85364   0.88269
 Alpha virt. eigenvalues --    0.88876   0.89287   0.90392   0.91411   0.93639
 Alpha virt. eigenvalues --    0.94919   0.97095   0.98730   1.00355   1.01706
 Alpha virt. eigenvalues --    1.02344   1.04868   1.06152   1.06869   1.08043
 Alpha virt. eigenvalues --    1.09422   1.10410   1.10838   1.12187   1.13267
 Alpha virt. eigenvalues --    1.13526   1.14077   1.14974   1.15972   1.16671
 Alpha virt. eigenvalues --    1.17524   1.19508   1.20109   1.21314   1.22524
 Alpha virt. eigenvalues --    1.23428   1.24025   1.25498   1.27264   1.28853
 Alpha virt. eigenvalues --    1.29360   1.30943   1.33077   1.36144   1.39739
 Alpha virt. eigenvalues --    1.40417   1.43339   1.45425   1.49123   1.50809
 Alpha virt. eigenvalues --    1.52685   1.54507   1.61340   1.61689   1.65091
 Alpha virt. eigenvalues --    1.69075   1.70724   1.72354   1.74592   1.76727
 Alpha virt. eigenvalues --    1.78384   1.79478   1.84198   1.89637   1.90635
 Alpha virt. eigenvalues --    1.92002   1.95074   1.97251   1.98631   2.00473
 Alpha virt. eigenvalues --    2.03074   2.05046   2.05579   2.08879   2.12513
 Alpha virt. eigenvalues --    2.13098   2.14869   2.17646   2.19085   2.19855
 Alpha virt. eigenvalues --    2.20294   2.21551   2.24161   2.25348   2.26592
 Alpha virt. eigenvalues --    2.29302   2.32263   2.33877   2.35448   2.36859
 Alpha virt. eigenvalues --    2.38208   2.38661   2.39833   2.43127   2.45503
 Alpha virt. eigenvalues --    2.48287   2.49625   2.51623   2.56738   2.57019
 Alpha virt. eigenvalues --    2.60657   2.62912   2.65762   2.68181   2.69081
 Alpha virt. eigenvalues --    2.69902   2.70710   2.74274   2.76466   2.82144
 Alpha virt. eigenvalues --    2.84363   2.87788   2.90152   2.90892   2.95859
 Alpha virt. eigenvalues --    2.97253   2.97961   3.01727   3.03849   3.05785
 Alpha virt. eigenvalues --    3.07113   3.12199   3.19749   3.21094   3.26320
 Alpha virt. eigenvalues --    3.28284   3.33097   3.37732   3.42463   3.59054
 Alpha virt. eigenvalues --    4.07925   4.21069   4.28265   4.34406   4.42641
 Alpha virt. eigenvalues --    4.53780   4.59644   4.60052   4.70884   4.76720
 Alpha virt. eigenvalues --    4.96544   4.99227   5.02723   5.09595
          Condensed to atoms (all electrons):
               1          2          3          4          5          6
     1  O    8.293031   0.314979  -0.088230  -0.077186   0.003211  -0.000017
     2  N    0.314979   5.708545   0.294879   0.260020  -0.042636   0.000996
     3  O   -0.088230   0.294879   8.331003  -0.082679   0.006657   0.000411
     4  C   -0.077186   0.260020  -0.082679   5.248354   0.548251  -0.051731
     5  C    0.003211  -0.042636   0.006657   0.548251   4.691637   0.312840
     6  N   -0.000017   0.000996   0.000411  -0.051731   0.312840   7.189813
     7  C    0.000003  -0.000092   0.000001   0.002250  -0.030514   0.200399
     8  H   -0.000000   0.000003  -0.000000  -0.000071   0.001927  -0.050902
     9  C   -0.000000  -0.000003   0.000000   0.000337   0.001922  -0.055586
    10  C   -0.000000   0.000000  -0.000000  -0.000011  -0.000068   0.003317
    11  C   -0.000000  -0.000000  -0.000000  -0.000019   0.000012  -0.000153
    12  C   -0.000000   0.000002  -0.000000  -0.000048  -0.000065   0.003579
    13  C   -0.000025  -0.000034  -0.000001  -0.009935   0.000516  -0.044290
    14  H   -0.000003   0.000009  -0.000000   0.003254   0.004920  -0.005343
    15  N   -0.000121   0.001767  -0.000023  -0.061933  -0.003226   0.001684
    16  C    0.005283  -0.033790   0.002001   0.326140  -0.043655  -0.002135
    17  H    0.000140  -0.003045   0.010918  -0.032752   0.382834  -0.034175
    18  H    0.000000  -0.000039   0.000008   0.001008  -0.023893   0.327117
    19  H    0.000000   0.000003  -0.000000  -0.000496   0.000438   0.000762
    20  H    0.000000  -0.000000   0.000000  -0.000021   0.000034  -0.001899
    21  H    0.000000  -0.000000   0.000000   0.000000   0.000001  -0.000058
    22  H   -0.000000   0.000000  -0.000000   0.000000  -0.000003  -0.000098
    23  H   -0.000000  -0.000000   0.000000   0.000025  -0.000001  -0.000023
    24  H   -0.000000   0.000000   0.000000   0.000000  -0.000000   0.000004
    25  H    0.000000  -0.000000   0.000000   0.000021  -0.000002  -0.000070
    26  H   -0.000000  -0.000000   0.000000   0.000007  -0.000002  -0.000068
    27  H    0.003784  -0.000788  -0.000061  -0.065595   0.002797   0.000032
               7          8          9         10         11         12
     1  O    0.000003  -0.000000  -0.000000  -0.000000  -0.000000  -0.000000
     2  N   -0.000092   0.000003  -0.000003   0.000000  -0.000000   0.000002
     3  O    0.000001  -0.000000   0.000000  -0.000000  -0.000000  -0.000000
     4  C    0.002250  -0.000071   0.000337  -0.000011  -0.000019  -0.000048
     5  C   -0.030514   0.001927   0.001922  -0.000068   0.000012  -0.000065
     6  N    0.200399  -0.050902  -0.055586   0.003317  -0.000153   0.003579
     7  C    4.995405   0.417734   0.339854  -0.049317  -0.007588  -0.063966
     8  H    0.417734   0.548702  -0.061027   0.001527  -0.000340  -0.002817
     9  C    0.339854  -0.061027   5.182338   0.317603  -0.053056  -0.006259
    10  C   -0.049317   0.001527   0.317603   5.127370   0.332641  -0.060058
    11  C   -0.007588  -0.000340  -0.053056   0.332641   5.124144   0.330533
    12  C   -0.063966  -0.002817  -0.006259  -0.060058   0.330533   5.137263
    13  C    0.334963  -0.041209  -0.049046  -0.001996  -0.047794   0.367482
    14  H   -0.039735  -0.000975   0.003862  -0.000392   0.003932  -0.040931
    15  N   -0.057317   0.004094  -0.012788   0.001501  -0.007747  -0.073707
    16  C   -0.002575  -0.000003  -0.000970  -0.000012  -0.000016   0.002649
    17  H    0.001494  -0.000016  -0.000067   0.000001   0.000000   0.000001
    18  H   -0.028360  -0.002317   0.000703  -0.000121   0.000011  -0.000133
    19  H   -0.034905   0.004137   0.385634  -0.032697  -0.002290   0.000651
    20  H   -0.041330  -0.001858   0.397398  -0.037408   0.004138  -0.000358
    21  H    0.004032  -0.000081  -0.035835   0.400164  -0.035866   0.004206
    22  H   -0.004190   0.003507  -0.045600   0.395953  -0.045592  -0.001252
    23  H    0.000420   0.000035  -0.002007  -0.040162   0.396729  -0.036796
    24  H   -0.000139  -0.000097   0.004382  -0.038416   0.400326  -0.037791
    25  H    0.004952  -0.000001  -0.000372   0.004092  -0.033954   0.395574
    26  H   -0.004474   0.001663   0.001012  -0.002389  -0.042206   0.394696
    27  H   -0.000390   0.000009  -0.000063   0.000005   0.000004  -0.000018
              13         14         15         16         17         18
     1  O   -0.000025  -0.000003  -0.000121   0.005283   0.000140   0.000000
     2  N   -0.000034   0.000009   0.001767  -0.033790  -0.003045  -0.000039
     3  O   -0.000001  -0.000000  -0.000023   0.002001   0.010918   0.000008
     4  C   -0.009935   0.003254  -0.061933   0.326140  -0.032752   0.001008
     5  C    0.000516   0.004920  -0.003226  -0.043655   0.382834  -0.023893
     6  N   -0.044290  -0.005343   0.001684  -0.002135  -0.034175   0.327117
     7  C    0.334963  -0.039735  -0.057317  -0.002575   0.001494  -0.028360
     8  H   -0.041209  -0.000975   0.004094  -0.000003  -0.000016  -0.002317
     9  C   -0.049046   0.003862  -0.012788  -0.000970  -0.000067   0.000703
    10  C   -0.001996  -0.000392   0.001501  -0.000012   0.000001  -0.000121
    11  C   -0.047794   0.003932  -0.007747  -0.000016   0.000000   0.000011
    12  C    0.367482  -0.040931  -0.073707   0.002649   0.000001  -0.000133
    13  C    5.027678   0.401851   0.236618  -0.068279  -0.000044   0.003674
    14  H    0.401851   0.518427  -0.035192  -0.005536   0.000057   0.000028
    15  N    0.236618  -0.035192   6.928102   0.586974  -0.000062  -0.000129
    16  C   -0.068279  -0.005536   0.586974   4.705524   0.001461  -0.000202
    17  H   -0.000044   0.000057  -0.000062   0.001461   0.391342  -0.001649
    18  H    0.003674   0.000028  -0.000129  -0.000202  -0.001649   0.325717
    19  H   -0.006522   0.000063   0.007012   0.002412   0.000009  -0.000111
    20  H    0.003845  -0.000049   0.000072  -0.000028  -0.000001   0.002963
    21  H   -0.000366   0.000009  -0.000027   0.000002  -0.000000  -0.000000
    22  H    0.000321  -0.000044   0.000003  -0.000001   0.000000   0.000002
    23  H   -0.005826   0.000006   0.006676   0.000064   0.000000   0.000000
    24  H    0.004123  -0.000058   0.000041   0.000005   0.000000  -0.000000
    25  H   -0.034666  -0.002635   0.000732  -0.000065  -0.000000   0.000002
    26  H   -0.044633  -0.000900   0.004176  -0.000058   0.000000  -0.000000
    27  H    0.004900  -0.000186  -0.041055   0.402181  -0.000051   0.000002
              19         20         21         22         23         24
     1  O    0.000000   0.000000   0.000000  -0.000000  -0.000000  -0.000000
     2  N    0.000003  -0.000000  -0.000000   0.000000  -0.000000   0.000000
     3  O   -0.000000   0.000000   0.000000  -0.000000   0.000000   0.000000
     4  C   -0.000496  -0.000021   0.000000   0.000000   0.000025   0.000000
     5  C    0.000438   0.000034   0.000001  -0.000003  -0.000001  -0.000000
     6  N    0.000762  -0.001899  -0.000058  -0.000098  -0.000023   0.000004
     7  C   -0.034905  -0.041330   0.004032  -0.004190   0.000420  -0.000139
     8  H    0.004137  -0.001858  -0.000081   0.003507   0.000035  -0.000097
     9  C    0.385634   0.397398  -0.035835  -0.045600  -0.002007   0.004382
    10  C   -0.032697  -0.037408   0.400164   0.395953  -0.040162  -0.038416
    11  C   -0.002290   0.004138  -0.035866  -0.045592   0.396729   0.400326
    12  C    0.000651  -0.000358   0.004206  -0.001252  -0.036796  -0.037791
    13  C   -0.006522   0.003845  -0.000366   0.000321  -0.005826   0.004123
    14  H    0.000063  -0.000049   0.000009  -0.000044   0.000006  -0.000058
    15  N    0.007012   0.000072  -0.000027   0.000003   0.006676   0.000041
    16  C    0.002412  -0.000028   0.000002  -0.000001   0.000064   0.000005
    17  H    0.000009  -0.000001  -0.000000   0.000000   0.000000   0.000000
    18  H   -0.000111   0.002963  -0.000000   0.000002   0.000000  -0.000000
    19  H    0.508089  -0.023964  -0.002590   0.003763   0.001653  -0.000070
    20  H   -0.023964   0.549347  -0.002600  -0.002959  -0.000050  -0.000090
    21  H   -0.002590  -0.002600   0.526183  -0.024688  -0.002825  -0.002054
    22  H    0.003763  -0.002959  -0.024688   0.568465   0.004066  -0.003585
    23  H    0.001653  -0.000050  -0.002825   0.004066   0.510378  -0.024944
    24  H   -0.000070  -0.000090  -0.002054  -0.003585  -0.024944   0.540461
    25  H   -0.000027   0.000011  -0.000086  -0.000082  -0.002094  -0.002376
    26  H    0.000024  -0.000035  -0.000074   0.002464   0.003822  -0.002759
    27  H    0.000074  -0.000000  -0.000000   0.000000  -0.000020  -0.000000
              25         26         27
     1  O    0.000000  -0.000000   0.003784
     2  N   -0.000000  -0.000000  -0.000788
     3  O    0.000000   0.000000  -0.000061
     4  C    0.000021   0.000007  -0.065595
     5  C   -0.000002  -0.000002   0.002797
     6  N   -0.000070  -0.000068   0.000032
     7  C    0.004952  -0.004474  -0.000390
     8  H   -0.000001   0.001663   0.000009
     9  C   -0.000372   0.001012  -0.000063
    10  C    0.004092  -0.002389   0.000005
    11  C   -0.033954  -0.042206   0.000004
    12  C    0.395574   0.394696  -0.000018
    13  C   -0.034666  -0.044633   0.004900
    14  H   -0.002635  -0.000900  -0.000186
    15  N    0.000732   0.004176  -0.041055
    16  C   -0.000065  -0.000058   0.402181
    17  H   -0.000000   0.000000  -0.000051
    18  H    0.000002  -0.000000   0.000002
    19  H   -0.000027   0.000024   0.000074
    20  H    0.000011  -0.000035  -0.000000
    21  H   -0.000086  -0.000074  -0.000000
    22  H   -0.000082   0.002464   0.000000
    23  H   -0.002094   0.003822  -0.000020
    24  H   -0.002376  -0.002759  -0.000000
    25  H    0.510059  -0.023035  -0.000010
    26  H   -0.023035   0.559801   0.000001
    27  H   -0.000010   0.000001   0.465267
 Mulliken charges:
               1
     1  O   -0.454851
     2  N    0.499225
     3  O   -0.474882
     4  C   -0.007188
     5  C    0.186066
     6  N   -0.794407
     7  C    0.063384
     8  H    0.178374
     9  C   -0.312368
    10  C   -0.321127
    11  C   -0.315851
    12  C   -0.312440
    13  C   -0.031303
    14  H    0.195559
    15  N   -0.486127
    16  C    0.122631
    17  H    0.283603
    18  H    0.395717
    19  H    0.188948
    20  H    0.154841
    21  H    0.172556
    22  H    0.149550
    23  H    0.190874
    24  H    0.163037
    25  H    0.184031
    26  H    0.152968
    27  H    0.229181
 Sum of Mulliken charges =  -0.00000
 Mulliken charges with hydrogens summed into heavy atoms:
               1
     1  O   -0.454851
     2  N    0.499225
     3  O   -0.474882
     4  C   -0.007188
     5  C    0.469668
     6  N   -0.398690
     7  C    0.241758
     9  C    0.031421
    10  C    0.000979
    11  C    0.038061
    12  C    0.024559
    13  C    0.164256
    15  N   -0.486127
    16  C    0.351812
 Electronic spatial extent (au):  <R**2>=           3098.9654
 Charge=             -0.0000 electrons
 Dipole moment (field-independent basis, Debye):
    X=              5.3056    Y=              4.4420    Z=              0.2838  Tot=              6.9254
 Quadrupole moment (field-independent basis, Debye-Ang):
   XX=           -104.7642   YY=            -80.6297   ZZ=            -82.1010
   XY=             -2.0059   XZ=              2.1343   YZ=              0.8738
 Traceless Quadrupole moment (field-independent basis, Debye-Ang):
   XX=            -15.5992   YY=              8.5352   ZZ=              7.0640
   XY=             -2.0059   XZ=              2.1343   YZ=              0.8738
 Octapole moment (field-independent basis, Debye-Ang**2):
  XXX=             96.0685  YYY=             37.4322  ZZZ=             -5.6677  XYY=             -0.9808
  XXY=             11.7160  XXZ=             -6.6238  XZZ=             -9.0385  YZZ=             -2.9494
  YYZ=             -1.2330  XYZ=             -5.3924
 Hexadecapole moment (field-independent basis, Debye-Ang**3):
 XXXX=          -3502.0358 YYYY=           -626.7080 ZZZZ=           -296.8964 XXXY=            -46.1669
 XXXZ=             75.6774 YYYX=            -29.2643 YYYZ=             19.1780 ZZZX=             44.7968
 ZZZY=             18.2008 XXYY=           -651.7774 XXZZ=           -536.8991 YYZZ=           -164.8581
 XXYZ=             17.5883 YYXZ=             22.9458 ZZXY=              1.1096
 N-N= 9.190865503736D+02 E-N=-3.384198752118D+03  KE= 6.588809107984D+02
 Calling FoFJK, ICntrl=  10002127 FMM=F ISym2X=0 I1Cent= 0 IOpClX= 0 NMat=1 NMatS=1 NMatT=0.
 -------------------------------------------------------------------
 Center     Atomic                   Forces (Hartrees/Bohr)
 Number     Number              X              Y              Z
 -------------------------------------------------------------------
      1        8           0.004358051   -0.019844151    0.003149590
      2        7           0.032861130    0.015537571   -0.024546977
      3        8          -0.006903745    0.015878092    0.006642237
      4        6          -0.000429926    0.006980484    0.030392607
      5        6           0.002825440   -0.015651544   -0.008083009
      6        7           0.016392578   -0.009759033   -0.005959334
      7        6          -0.004735807    0.005574859    0.002017036
      8        1          -0.009647689   -0.001781181   -0.007876757
      9        6          -0.003676606   -0.000090829   -0.001988762
     10        6           0.002864657   -0.000824417    0.000965389
     11        6          -0.001108120   -0.004511185   -0.002478633
     12        6           0.000816616   -0.008872143   -0.002912593
     13        6           0.009632933   -0.000688547    0.004611933
     14        1           0.001034052    0.004540236   -0.010046199
     15        7          -0.001875315    0.000852888   -0.000072724
     16        6          -0.019292194    0.005530598    0.003363429
     17        1           0.006683330   -0.005197022   -0.007891309
     18        1          -0.016821400   -0.001529258    0.006868709
     19        1           0.002912266    0.005872529    0.007742268
     20        1          -0.003449692   -0.007350637    0.002435186
     21        1          -0.004611141    0.002322820    0.009502699
     22        1          -0.003776141   -0.003897683   -0.007589124
     23        1           0.003785774    0.005984954    0.009420747
     24        1          -0.009309369    0.002699291   -0.002405576
     25        1          -0.000575224    0.010583438   -0.002328473
     26        1          -0.004765912   -0.004724953   -0.004591857
     27        1           0.006811452    0.002364825    0.001659496
 -------------------------------------------------------------------
 Cartesian Forces:  Max     0.032861130 RMS     0.009106716

 GradGradGradGradGradGradGradGradGradGradGradGradGradGradGradGradGradGrad
 Berny optimization.
 FormGI is forming the generalized inverse of G from B-inverse, IUseBI=4.
 Internal  Forces:  Max     0.034361630 RMS     0.006628580
 Search for a local minimum.
 Step number   1 out of a maximum of   20
 All quantities printed in internal units (Hartrees-Bohrs-Radians)
 Mixed Optimization -- RFO/linear search
 Second derivative matrix not updated -- first step.
 ITU=  0
     Eigenvalues ---    0.00273   0.00769   0.01115   0.01184   0.01430
     Eigenvalues ---    0.01530   0.01638   0.01967   0.02023   0.02092
     Eigenvalues ---    0.02687   0.03649   0.04504   0.04691   0.04838
     Eigenvalues ---    0.05084   0.05137   0.05304   0.05898   0.06267
     Eigenvalues ---    0.07209   0.07701   0.07727   0.07877   0.07993
     Eigenvalues ---    0.08051   0.08064   0.10459   0.11742   0.12265
     Eigenvalues ---    0.13417   0.15286   0.15791   0.15997   0.16000
     Eigenvalues ---    0.20102   0.21575   0.22175   0.24373   0.25000
     Eigenvalues ---    0.25000   0.25382   0.26168   0.26655   0.27983
     Eigenvalues ---    0.28086   0.28446   0.29789   0.31342   0.31454
     Eigenvalues ---    0.32038   0.32237   0.32289   0.32379   0.32389
     Eigenvalues ---    0.32406   0.32515   0.32525   0.32579   0.33317
     Eigenvalues ---    0.33366   0.33614   0.35322   0.43882   0.44288
     Eigenvalues ---    0.49090   0.66766   0.90414   0.911051000.00000
     Eigenvalues --- 1000.000001000.000001000.000001000.000001000.00000
     Eigenvalues --- 1000.000001000.000001000.000001000.000001000.00000
     Eigenvalues --- 1000.000001000.000001000.000001000.000001000.00000
     Eigenvalues --- 1000.000001000.000001000.000001000.000001000.00000
     Eigenvalues --- 1000.000001000.000001000.000001000.000001000.00000
     Eigenvalues --- 1000.000001000.000001000.000001000.000001000.00000
     Eigenvalues --- 1000.000001000.000001000.000001000.000001000.00000
     Eigenvalues --- 1000.000001000.000001000.000001000.000001000.00000
     Eigenvalues --- 1000.000001000.000001000.000001000.000001000.00000
     Eigenvalues --- 1000.000001000.000001000.000001000.000001000.00000
     Eigenvalues --- 1000.000001000.000001000.000001000.000001000.00000
     Eigenvalues --- 1000.000001000.000001000.000001000.000001000.00000
     Eigenvalues --- 1000.000001000.000001000.000001000.000001000.00000
     Eigenvalues --- 1000.000001000.000001000.000001000.000001000.00000
     Eigenvalues --- 1000.000001000.000001000.000001000.000001000.00000
     Eigenvalues --- 1000.000001000.000001000.000001000.000001000.00000
     Eigenvalues --- 1000.000001000.000001000.000001000.000001000.00000
     Eigenvalues --- 1000.000001000.000001000.000001000.000001000.00000
     Eigenvalues --- 1000.000001000.00000
 RFO step:  Lambda=-2.51030062D-02 EMin= 2.72622353D-03
 Linear search not attempted -- first point.
 Iteration  1 RMS(Cart)=  0.05699011 RMS(Int)=  0.00484416
 Iteration  2 RMS(Cart)=  0.00623096 RMS(Int)=  0.00115329
 Iteration  3 RMS(Cart)=  0.00012712 RMS(Int)=  0.00114717
 Iteration  4 RMS(Cart)=  0.00000062 RMS(Int)=  0.00114717
 Iteration  1 RMS(Cart)=  0.00003837 RMS(Int)=  0.00003044
 Iteration  2 RMS(Cart)=  0.00002014 RMS(Int)=  0.00003352
 Iteration  3 RMS(Cart)=  0.00001211 RMS(Int)=  0.00003726
 Iteration  4 RMS(Cart)=  0.00000835 RMS(Int)=  0.00004006
 Iteration  5 RMS(Cart)=  0.00000632 RMS(Int)=  0.00004220
 Iteration  6 RMS(Cart)=  0.00000503 RMS(Int)=  0.00004393
 Iteration  7 RMS(Cart)=  0.00000412 RMS(Int)=  0.00004538
 Iteration  8 RMS(Cart)=  0.00000341 RMS(Int)=  0.00004662
 Iteration  9 RMS(Cart)=  0.00000284 RMS(Int)=  0.00004770
 Iteration 10 RMS(Cart)=  0.00000238 RMS(Int)=  0.00004862
 Iteration 11 RMS(Cart)=  0.00000200 RMS(Int)=  0.00004941
 Iteration 12 RMS(Cart)=  0.00000168 RMS(Int)=  0.00005009
 Iteration 13 RMS(Cart)=  0.00000141 RMS(Int)=  0.00005068
 Iteration 14 RMS(Cart)=  0.00000119 RMS(Int)=  0.00005117
 Iteration 15 RMS(Cart)=  0.00000100 RMS(Int)=  0.00005160
 Variable       Old X    -DE/DX   Delta X   Delta X   Delta X     New X
                                 (Linear)    (Quad)   (Total)
    R1        2.32428   0.01828   0.00000   0.01953   0.01953   2.34380
    R2        2.32743   0.01671   0.00000   0.01798   0.01798   2.34541
    R3        2.88259  -0.03436   0.00000  -0.10556  -0.10555   2.77704
    R4        2.64359  -0.03298   0.00000  -0.07070  -0.07050   2.57309
    R5        2.80860  -0.01828   0.00000  -0.05272  -0.05254   2.75605
    R6        2.59026  -0.02149   0.00000  -0.04116  -0.04110   2.54916
    R7        2.08414  -0.01032   0.00000  -0.02877  -0.02877   2.05537
    R8        2.82442  -0.01941   0.00000  -0.05342  -0.05354   2.77088
    R9        1.93296  -0.00654   0.00000  -0.01410  -0.01410   1.91886
   R10        2.11854  -0.01178   0.00000  -0.03469  -0.03469   2.08385
   R11        2.92704  -0.01292   0.00000  -0.04413  -0.04413   2.88291
   R12        2.90342  -0.00502   0.00000  -0.01159  -0.01168   2.89174
   R13        2.91132  -0.00469   0.00000  -0.01428  -0.01430   2.89702
   R14        2.09911  -0.00993   0.00000  -0.02835  -0.02835   2.07076
   R15        2.09893  -0.00804   0.00000  -0.02295  -0.02295   2.07598
   R16        2.90431  -0.00187   0.00000  -0.00704  -0.00712   2.89718
   R17        2.10137  -0.01056   0.00000  -0.03027  -0.03027   2.07111
   R18        2.10319  -0.00904   0.00000  -0.02597  -0.02597   2.07722
   R19        2.91777  -0.00906   0.00000  -0.02829  -0.02829   2.88949
   R20        2.10413  -0.01164   0.00000  -0.03349  -0.03349   2.07063
   R21        2.10107  -0.00996   0.00000  -0.02853  -0.02853   2.07255
   R22        2.93534  -0.01054   0.00000  -0.03633  -0.03632   2.89902
   R23        2.10157  -0.01070   0.00000  -0.03066  -0.03066   2.07090
   R24        2.09797  -0.00791   0.00000  -0.02255  -0.02255   2.07541
   R25        2.10775  -0.00929   0.00000  -0.02689  -0.02689   2.08086
   R26        2.76856  -0.00506   0.00000  -0.01094  -0.01109   2.75746
   R27        2.44369  -0.00760   0.00000  -0.01065  -0.01061   2.43308
   R28        2.07987  -0.00564   0.00000  -0.01561  -0.01561   2.06426
    A1        2.16094   0.01020   0.00000   0.04362   0.03532   2.19626
    A2        2.05752  -0.00948   0.00000  -0.02797  -0.03621   2.02131
    A3        2.05925   0.00026   0.00000   0.00744  -0.00079   2.05845
    A4        2.00966  -0.00263   0.00000  -0.00963  -0.00981   1.99985
    A5        2.02648  -0.00538   0.00000  -0.01950  -0.01979   2.00669
    A6        2.22007   0.00889   0.00000   0.03042   0.03090   2.25097
    A7        2.19600   0.00596   0.00000   0.02105   0.02100   2.21700
    A8        2.06567  -0.00343   0.00000  -0.01256  -0.01297   2.05269
    A9        2.02122  -0.00248   0.00000  -0.00746  -0.00788   2.01334
   A10        2.24649  -0.00514   0.00000  -0.01612  -0.01617   2.23033
   A11        2.12323  -0.01202   0.00000  -0.06936  -0.06963   2.05361
   A12        1.88289   0.01727   0.00000   0.09162   0.09165   1.97454
   A13        1.83760  -0.00143   0.00000  -0.01628  -0.01614   1.82146
   A14        2.00765  -0.00113   0.00000  -0.00944  -0.00950   1.99814
   A15        1.96627   0.00099   0.00000  -0.00076  -0.00108   1.96519
   A16        1.85157   0.00268   0.00000   0.02405   0.02391   1.87548
   A17        1.84877   0.00060   0.00000   0.01476   0.01463   1.86340
   A18        1.93780  -0.00141   0.00000  -0.00848  -0.00824   1.92956
   A19        1.91025   0.00025   0.00000  -0.00420  -0.00432   1.90593
   A20        1.92236  -0.00075   0.00000  -0.01225  -0.01222   1.91014
   A21        1.92297  -0.00169   0.00000  -0.00758  -0.00758   1.91539
   A22        1.91898  -0.00041   0.00000   0.00574   0.00572   1.92469
   A23        1.90433   0.00303   0.00000   0.02413   0.02413   1.92847
   A24        1.88474  -0.00041   0.00000  -0.00544  -0.00569   1.87905
   A25        1.94039  -0.00094   0.00000   0.00495   0.00482   1.94522
   A26        1.91907  -0.00063   0.00000  -0.00625  -0.00626   1.91282
   A27        1.90496   0.00032   0.00000  -0.00281  -0.00285   1.90211
   A28        1.91614   0.00082   0.00000   0.00702   0.00706   1.92321
   A29        1.89841   0.00169   0.00000   0.01094   0.01097   1.90939
   A30        1.88381  -0.00124   0.00000  -0.01431  -0.01439   1.86942
   A31        1.94478   0.00050   0.00000   0.00450   0.00464   1.94942
   A32        1.90238   0.00071   0.00000   0.00598   0.00591   1.90830
   A33        1.91761   0.00038   0.00000   0.00527   0.00526   1.92286
   A34        1.90617  -0.00105   0.00000  -0.01332  -0.01336   1.89280
   A35        1.91537  -0.00045   0.00000  -0.00003  -0.00012   1.91526
   A36        1.87616  -0.00011   0.00000  -0.00276  -0.00279   1.87337
   A37        1.94878  -0.00284   0.00000  -0.01713  -0.01720   1.93158
   A38        1.90601   0.00254   0.00000   0.01715   0.01700   1.92301
   A39        1.91049   0.00134   0.00000   0.01243   0.01244   1.92294
   A40        1.90587   0.00013   0.00000  -0.00250  -0.00232   1.90355
   A41        1.91097  -0.00024   0.00000  -0.00561  -0.00556   1.90541
   A42        1.88044  -0.00085   0.00000  -0.00389  -0.00407   1.87637
   A43        1.84640   0.00450   0.00000   0.02346   0.02356   1.86996
   A44        1.93999  -0.00435   0.00000  -0.03195  -0.03237   1.90762
   A45        1.98254   0.00125   0.00000   0.01575   0.01597   1.99851
   A46        1.87966   0.00234   0.00000   0.03029   0.03058   1.91024
   A47        1.89199  -0.00404   0.00000  -0.02904  -0.02920   1.86279
   A48        1.91856   0.00051   0.00000  -0.00626  -0.00604   1.91252
   A49        2.08095  -0.00570   0.00000  -0.01030  -0.01079   2.07016
   A50        2.25382  -0.00433   0.00000  -0.01618  -0.01689   2.23692
   A51        1.97152   0.00674   0.00000   0.03311   0.03224   2.00377
   A52        2.05777  -0.00237   0.00000  -0.01610  -0.01692   2.04086
    D1       -2.76823   0.00128   0.00000  -0.00981  -0.00988  -2.77811
    D2        0.14414   0.00624   0.00000   0.00000  -0.00000   0.14413
    D3        0.48135  -0.00899   0.00000  -0.23914  -0.23868   0.24267
    D4       -2.88946  -0.00403   0.00000  -0.22933  -0.22881  -3.11827
    D5        2.91717   0.00287   0.00000   0.02431   0.02457   2.94174
    D6       -0.19700   0.00070   0.00000  -0.02288  -0.02269  -0.21970
    D7        0.03462  -0.00029   0.00000   0.02182   0.02204   0.05666
    D8       -3.07955  -0.00246   0.00000  -0.02536  -0.02523  -3.10478
    D9       -2.46111  -0.00395   0.00000  -0.06067  -0.06066  -2.52177
   D10        0.66728  -0.00087   0.00000   0.01616   0.01654   0.68382
   D11        0.41929  -0.00039   0.00000  -0.05682  -0.05681   0.36249
   D12       -2.73551   0.00269   0.00000   0.02001   0.02039  -2.71512
   D13       -0.27773   0.00035   0.00000   0.01498   0.01556  -0.26217
   D14        2.56758   0.00351   0.00000   0.05776   0.05705   2.62463
   D15        2.83706   0.00245   0.00000   0.06102   0.06183   2.89889
   D16       -0.60082   0.00561   0.00000   0.10379   0.10331  -0.49750
   D17       -0.16500   0.00147   0.00000   0.00000   0.00001  -0.16499
   D18       -2.41211  -0.00087   0.00000  -0.02350  -0.02320  -2.43531
   D19        1.83948  -0.00261   0.00000  -0.03725  -0.03689   1.80259
   D20       -0.40525  -0.00050   0.00000  -0.01586  -0.01579  -0.42104
   D21        0.99369  -0.00016   0.00000  -0.04185  -0.04221   0.95149
   D22       -1.03790  -0.00190   0.00000  -0.05559  -0.05589  -1.09379
   D23        3.00055   0.00021   0.00000  -0.03420  -0.03480   2.96576
   D24        2.94459   0.00237   0.00000   0.02555   0.02542   2.97001
   D25       -1.22687   0.00155   0.00000   0.02222   0.02212  -1.20475
   D26        0.85057  -0.00047   0.00000   0.00314   0.00311   0.85368
   D27        0.92098   0.00299   0.00000   0.03492   0.03492   0.95590
   D28        3.03271   0.00217   0.00000   0.03160   0.03161   3.06432
   D29       -1.17304   0.00015   0.00000   0.01252   0.01261  -1.16043
   D30       -1.07978   0.00149   0.00000   0.00835   0.00832  -1.07146
   D31        1.03195   0.00067   0.00000   0.00502   0.00502   1.03697
   D32        3.10939  -0.00136   0.00000  -0.01406  -0.01399   3.09540
   D33       -2.90063  -0.00115   0.00000  -0.01146  -0.01121  -2.91185
   D34       -0.86515   0.00200   0.00000   0.02169   0.02155  -0.84360
   D35        1.30938   0.00017   0.00000   0.00000  -0.00001   1.30937
   D36       -0.90053  -0.00201   0.00000  -0.02260  -0.02246  -0.92299
   D37        1.13495   0.00114   0.00000   0.01055   0.01030   1.14525
   D38       -2.97370  -0.00069   0.00000  -0.01115  -0.01126  -2.98496
   D39        1.10197   0.00079   0.00000   0.00976   0.00989   1.11186
   D40        3.13746   0.00394   0.00000   0.04291   0.04265  -3.10308
   D41       -0.97120   0.00211   0.00000   0.02122   0.02109  -0.95011
   D42        0.95665   0.00060   0.00000   0.00000   0.00000   0.95665
   D43        3.08237   0.00058   0.00000   0.00791   0.00787   3.09024
   D44       -1.13751  -0.00111   0.00000  -0.01485  -0.01482  -1.15233
   D45       -1.15713   0.00162   0.00000   0.01420   0.01427  -1.14287
   D46        0.96859   0.00160   0.00000   0.02212   0.02214   0.99073
   D47        3.03189  -0.00009   0.00000  -0.00065  -0.00056   3.03133
   D48        3.06205   0.00055   0.00000   0.00301   0.00297   3.06502
   D49       -1.09541   0.00053   0.00000   0.01092   0.01084  -1.08457
   D50        0.96789  -0.00116   0.00000  -0.01184  -0.01186   0.95603
   D51       -0.92192  -0.00080   0.00000   0.00000   0.00000  -0.92192
   D52        1.18295  -0.00133   0.00000  -0.00981  -0.00982   1.17313
   D53       -3.04860  -0.00083   0.00000  -0.00660  -0.00664  -3.05524
   D54       -3.04935   0.00007   0.00000  -0.00018  -0.00016  -3.04951
   D55       -0.94448  -0.00047   0.00000  -0.00999  -0.00999  -0.95447
   D56        1.10715   0.00004   0.00000  -0.00678  -0.00680   1.10035
   D57        1.17612   0.00010   0.00000   0.00665   0.00668   1.18280
   D58       -3.00220  -0.00043   0.00000  -0.00316  -0.00315  -3.00534
   D59       -0.95056   0.00007   0.00000   0.00006   0.00004  -0.95052
   D60        0.98743  -0.00073   0.00000  -0.01171  -0.01177   0.97566
   D61        3.09689  -0.00069   0.00000  -0.01436  -0.01452   3.08237
   D62       -1.13148   0.00053   0.00000  -0.00186  -0.00185  -1.13333
   D63       -1.11522  -0.00123   0.00000  -0.01324  -0.01324  -1.12846
   D64        0.99424  -0.00119   0.00000  -0.01588  -0.01599   0.97825
   D65        3.04906   0.00003   0.00000  -0.00339  -0.00332   3.04574
   D66        3.11540  -0.00022   0.00000  -0.00206  -0.00206   3.11334
   D67       -1.05832  -0.00018   0.00000  -0.00470  -0.00481  -1.06313
   D68        0.99650   0.00104   0.00000   0.00779   0.00786   1.00435
   D69       -1.05083  -0.00002   0.00000   0.00049   0.00055  -1.05028
   D70       -3.12670   0.00153   0.00000   0.01028   0.00988  -3.11682
   D71        1.08142   0.00184   0.00000   0.01678   0.01664   1.09805
   D72        3.12281  -0.00146   0.00000  -0.00831  -0.00815   3.11466
   D73        1.04694   0.00009   0.00000   0.00147   0.00118   1.04812
   D74       -1.02813   0.00040   0.00000   0.00798   0.00794  -1.02019
   D75        1.06780  -0.00037   0.00000   0.00110   0.00128   1.06908
   D76       -1.00808   0.00118   0.00000   0.01088   0.01062  -0.99746
   D77       -3.08314   0.00149   0.00000   0.01738   0.01737  -3.06577
   D78       -1.17216   0.00335   0.00000   0.00000  -0.00001  -1.17217
   D79        3.06420  -0.00032   0.00000  -0.01940  -0.01922   3.04498
   D80        1.01387  -0.00108   0.00000  -0.03545  -0.03570   0.97817
   D81        0.13377   0.00148   0.00000   0.03867   0.03803   0.17180
   D82       -2.99406  -0.00179   0.00000  -0.04169  -0.04089  -3.03495
         Item               Value     Threshold  Converged?
 Maximum Force            0.034267     0.000450     NO 
 RMS     Force            0.006693     0.000300     NO 
 Maximum Displacement     0.296420     0.001800     NO 
 RMS     Displacement     0.059947     0.001200     NO 
 Predicted change in Energy=-1.540722D-02
 GradGradGradGradGradGradGradGradGradGradGradGradGradGradGradGradGradGrad

                          Input orientation:                          
 ---------------------------------------------------------------------
 Center     Atomic      Atomic             Coordinates (Angstroms)
 Number     Number       Type             X           Y           Z
 ---------------------------------------------------------------------
      1          8           0       -3.385954   -1.492133    0.079131
      2          7           0       -3.107256   -0.283978    0.047474
      3          8           0       -3.880411    0.647521    0.321257
      4          6           0       -1.692759    0.040563   -0.183693
      5          6           0       -1.325285    1.289034    0.216677
      6          7           0       -0.069936    1.770882    0.324428
      7          6           0        1.185349    1.013181    0.336145
      8          1           0        1.798364    1.511334    1.105603
      9          6           0        1.965974    1.062604   -0.973643
     10          6           0        3.353888    0.448666   -0.756897
     11          6           0        3.256321   -0.967951   -0.178843
     12          6           0        2.388504   -1.006396    1.079494
     13          6           0        0.994021   -0.434592    0.793300
     14          1           0        0.395386   -0.448331    1.717400
     15          7           0        0.378311   -1.306989   -0.201210
     16          6           0       -0.848628   -1.097127   -0.530324
     17          1           0       -2.117055    1.992526    0.464055
     18          1           0        0.066612    2.766878    0.181534
     19          1           0        1.420794    0.506290   -1.744405
     20          1           0        2.054674    2.103419   -1.313757
     21          1           0        3.901229    0.432971   -1.706291
     22          1           0        3.923094    1.086544   -0.065958
     23          1           0        2.812883   -1.635127   -0.926416
     24          1           0        4.257505   -1.352900    0.049832
     25          1           0        2.286245   -2.037306    1.436855
     26          1           0        2.859487   -0.423569    1.882406
     27          1           0       -1.313365   -1.826004   -1.198162
 ---------------------------------------------------------------------
                    Distance matrix (angstroms):
                    1          2          3          4          5
     1  O    0.000000
     2  N    1.240287   0.000000
     3  O    2.209351   1.241136   0.000000
     4  C    2.298943   1.469546   2.325767   0.000000
     5  C    3.464125   2.382943   2.636503   1.361621   0.000000
     6  N    4.658691   3.677562   3.972615   2.426055   1.348957
     7  C    5.219144   4.493596   5.078962   3.082162   2.528566
     8  H    6.078784   5.329905   5.797402   4.001674   3.255271
     9  C    6.023134   5.347300   6.002439   3.880067   3.507209
    10  C    7.063363   6.552111   7.316901   5.095464   4.852702
    11  C    6.667918   6.404229   7.334358   5.050794   5.122648
    12  C    5.880564   5.638291   6.527608   4.398690   4.450357
    13  C    4.562084   4.171261   5.015365   2.898116   2.946619
    14  H    4.251115   3.883834   4.629531   2.865925   2.869027
    15  N    3.779227   3.641094   4.714848   2.470938   3.133082
    16  C    2.639220   2.469101   3.600097   1.458441   2.545383
    17  H    3.728420   2.517242   2.222354   2.099944   1.087657
    18  H    5.483600   4.404444   4.482208   3.265206   2.030427
    19  H    5.515778   4.933416   5.691194   3.513822   3.464026
    20  H    6.668475   5.847917   6.325989   4.424440   3.798627
    21  H    7.745760   7.260067   8.044310   5.810766   5.634456
    22  H    7.751954   7.163589   7.825431   5.713645   5.259882
    23  H    6.281493   6.149969   7.181042   4.864195   5.194402
    24  H    7.644783   7.441929   8.384572   6.115711   6.178608
    25  H    5.857855   5.839040   6.817661   4.772441   5.059300
    26  H    6.587803   6.244075   7.000761   5.020670   4.818711
    27  H    2.457350   2.673480   3.875137   2.158045   3.421311
                    6          7          8          9         10
     6  N    0.000000
     7  C    1.466284   0.000000
     8  H    2.041604   1.102728   0.000000
     9  C    2.516262   1.525570   2.133709   0.000000
    10  C    3.826237   2.493186   2.649117   1.533038   0.000000
    11  C    4.338027   2.911876   3.149967   2.533744   1.533124
    12  C    3.785145   2.465530   2.586099   2.945279   2.534068
    13  C    2.493183   1.530243   2.128645   2.511649   2.958416
    14  H    2.661166   2.160538   2.486550   3.462859   3.959733
    15  N    3.154442   2.514607   3.415736   2.955047   3.499310
    16  C    3.092319   3.056343   4.060406   3.575326   4.483520
    17  H    2.063811   3.446934   3.996704   4.427511   5.814245
    18  H    1.015417   2.085888   2.330077   2.801171   4.130489
    19  H    2.846320   2.154313   3.045524   1.095801   2.171484
    20  H    2.703368   2.160213   2.503909   1.098562   2.176294
    21  H    4.656606   3.447346   3.673099   2.162967   1.095983
    22  H    4.070013   2.768089   2.463225   2.157495   1.099218
    23  H    4.634238   3.355066   3.880537   2.827940   2.159541
    24  H    5.344171   3.888246   3.919931   3.483286   2.170939
    25  H    4.614258   3.424763   3.597305   3.939863   3.483169
    26  H    3.977993   2.694051   2.339499   3.341272   2.823322
    27  H    4.099021   4.081500   5.111557   4.375903   5.210766
                   11         12         13         14         15
    11  C    0.000000
    12  C    1.529051   0.000000
    13  C    2.519431   1.534095   0.000000
    14  H    3.471411   2.165844   1.101142   0.000000
    15  N    2.897998   2.402381   1.459187   2.102058   0.000000
    16  C    4.121994   3.616459   2.363534   2.649674   1.287532
    17  H    6.168542   5.447234   3.959558   3.720352   4.190015
    18  H    4.924740   4.520521   3.388769   3.578344   4.103662
    19  H    2.827283   3.346504   2.739953   3.734550   2.599270
    20  H    3.487879   3.938278   3.464992   4.295646   3.959651
    21  H    2.170619   3.481481   3.930964   4.978885   4.207575
    22  H    2.162933   2.836798   3.410520   4.240393   4.279344
    23  H    1.095731   2.144546   2.776143   3.773930   2.561395
    24  H    1.096745   2.161813   3.470787   4.302906   3.887581
    25  H    2.166806   1.095874   2.157011   2.485738   2.618555
    26  H    2.168543   1.098262   2.160147   2.469743   3.358291
    27  H    4.759968   4.423043   3.350520   3.649427   2.031024
                   16         17         18         19         20
    16  C    0.000000
    17  H    3.484774   0.000000
    18  H    4.034221   2.334060   0.000000
    19  H    3.032362   4.427479   3.263941   0.000000
    20  H    4.391631   4.536103   2.574580   1.771463   0.000000
    21  H    5.126914   6.585011   4.869836   2.481811   2.520764
    22  H    5.268148   6.130670   4.213932   3.068449   2.466177
    23  H    3.721962   6.276749   5.305395   2.681918   3.834272
    24  H    5.145348   7.210997   5.878223   3.837031   4.319489
    25  H    3.818528   6.047722   5.439006   4.164049   4.976454
    26  H    4.474937   5.710972   4.568596   4.011014   4.153173
    27  H    1.092359   4.241468   4.990236   3.635052   5.176621
                   21         22         23         24         25
    21  H    0.000000
    22  H    1.765879   0.000000
    23  H    2.463682   3.062752   0.000000
    24  H    2.529868   2.464980   1.766252   0.000000
    25  H    4.311590   3.833558   2.454414   2.505617   0.000000
    26  H    3.833750   2.684740   3.059335   2.485244   1.769539
    27  H    5.705537   6.097977   4.139590   5.728518   4.466000
                   26         27
    26  H    0.000000
    27  H    5.373027   0.000000
 Symmetry turned off by external request.
 Stoichiometry    C9H13N3O2
 Framework group  C1[X(C9H13N3O2)]
 Deg. of freedom    75
 Full point group                 C1      NOp   1
 Rotational constants (GHZ):           1.6842688           0.4263811           0.3745333
 Standard basis: 6-31G(d) (6D, 7F)
   236 basis functions,   444 primitive gaussians,   236 cartesian basis functions
    52 alpha electrons       52 beta electrons
       nuclear repulsion energy       932.9454276106 Hartrees.
 NAtoms=   27 NActive=   27 NUniq=   27 SFac= 1.00D+00 NAtFMM=   60 NAOKFM=F Big=F
 Integral buffers will be    131072 words long.
 Raffenetti 1 integral format.
 Two-electron integral symmetry is turned off.
 One-electron integrals computed using PRISM.
 NBasis=   236 RedAO= T EigKep=  1.18D-03  NBF=   236
 NBsUse=   236 1.00D-06 EigRej= -1.00D+00 NBFU=   236
 Initial guess from the checkpoint file:  "/home/alexey/tmp/Gau-1605173.chk"
 B after Tr=     0.051940    0.004212    0.004022
         Rot=    0.999994   -0.003391   -0.000730    0.000953 Ang=  -0.41 deg.
 ExpMin= 1.61D-01 ExpMax= 5.48D+03 ExpMxC= 8.25D+02 IAcc=3 IRadAn=         5 AccDes= 0.00D+00
 Harris functional with IExCor=  205 and IRadAn=       5 diagonalized for initial guess.
 HarFok:  IExCor=  205 AccDes= 0.00D+00 IRadAn=         5 IDoV= 1 UseB2=F ITyADJ=14
 ICtDFT=  3500011 ScaDFX=  1.000000  1.000000  1.000000  1.000000
 FoFCou: FMM=F IPFlag=           0 FMFlag=      100000 FMFlg1=           0
         NFxFlg=           0 DoJE=T BraDBF=F KetDBF=T FulRan=T
         wScrn=  0.000000 ICntrl=       500 IOpCl=  0 I1Cent=   200000004 NGrid=           0
         NMat0=    1 NMatS0=      1 NMatT0=    0 NMatD0=    1 NMtDS0=    0 NMtDT0=    0
 Symmetry not used in FoFCou.
 Keep R1 ints in memory in canonical form, NReq=397720213.
 Requested convergence on RMS density matrix=1.00D-08 within 128 cycles.
 Requested convergence on MAX density matrix=1.00D-06.
 Requested convergence on             energy=1.00D-06.
 No special actions if energy rises.
 SCF Done:  E(RHF) =  -661.291855754     A.U. after   15 cycles
            NFock= 15  Conv=0.77D-08     -V/T= 2.0025
 ExpMin= 1.61D-01 ExpMax= 5.48D+03 ExpMxC= 8.25D+02 IAcc=3 IRadAn=         5 AccDes= 0.00D+00
 HarFok:  IExCor=  205 AccDes= 0.00D+00 IRadAn=         5 IDoV=-2 UseB2=F ITyADJ=14
 ICtDFT= 12500011 ScaDFX=  1.000000  1.000000  1.000000  1.000000
 Range of M.O.s used for correlation:    15   236
 NBasis=   236 NAE=    52 NBE=    52 NFC=    14 NFV=     0
 NROrb=    222 NOA=    38 NOB=    38 NVA=   184 NVB=   184
 Fully direct method using O(ONN) memory.
 JobTyp=1 Pass  1:  I=  15 to  52 NPSUse=  4 ParTrn=T ParDer=T DoDerP=T.
 Spin components of T(2) and E(2):
     alpha-alpha T2 =       0.9128122940D-01 E2=     -0.2722923621D+00
     alpha-beta  T2 =       0.4923513989D+00 E2=     -0.1489078181D+01
     beta-beta   T2 =       0.9128122940D-01 E2=     -0.2722923621D+00
 ANorm=    0.1294184630D+01
 E2 =    -0.2033662906D+01 EUMP2 =    -0.66332551865968D+03
          IDoAtm=111111111111111111111111111
          Differentiating once with respect to electric field.
                with respect to dipole field.
          Differentiating once with respect to nuclear coordinates.
 Keep R1 ints in memory in canonical form, NReq=397723379.
          There are     1 degrees of freedom in the 1st order CPHF.  IDoFFX=0 NUNeed=     1.
 LinEq1:  Iter=  0 NonCon=     1 RMS=4.57D-03 Max=1.04D-01 NDo=     1
 AX will form     1 AO Fock derivatives at one time.
 LinEq1:  Iter=  1 NonCon=     1 RMS=1.54D-03 Max=2.83D-02 NDo=     1
[...]
    27  H    4.720784   4.408103   3.357897   3.648222   2.026660
                   16         17         18         19         20
    16  C    0.000000
    17  H    3.470972   0.000000
    18  H    4.110054   2.234451   0.000000
    19  H    3.004138   4.327511   3.564077   0.000000
    20  H    4.396018   4.485894   2.956122   1.768352   0.000000
    21  H    5.103097   6.531629   5.133985   2.499584   2.522068
    22  H    5.260461   6.110213   4.338726   3.070316   2.462990
    23  H    3.686141   6.227695   5.432865   2.703172   3.843091
    24  H    5.129343   7.191061   5.940507   3.848872   4.318195
    25  H    3.813589   6.051480   5.334874   4.170971   4.985677
    26  H    4.498511   5.750378   4.447125   4.033719   4.181259
    27  H    1.090391   4.247509   5.123861   3.623634   5.192647
                   21         22         23         24         25
    21  H    0.000000
    22  H    1.758802   0.000000
    23  H    2.469851   3.062651   0.000000
    24  H    2.517228   2.460543   1.764371   0.000000
    25  H    4.312129   3.839562   2.444215   2.519448   0.000000
    26  H    3.846071   2.703626   3.060390   2.493215   1.768479
    27  H    5.673763   6.079418   4.081393   5.684367   4.427362
                   26         27
    26  H    0.000000
    27  H    5.370999   0.000000
 Symmetry turned off by external request.
 Stoichiometry    C9H13N3O2
 Framework group  C1[X(C9H13N3O2)]
 Deg. of freedom    75
 Full point group                 C1      NOp   1
 Rotational constants (GHZ):           1.6761533           0.4232378           0.3734040

 **********************************************************************

            Population analysis using the SCF Density.

 **********************************************************************

 Alpha  occ. eigenvalues --  -20.59380 -20.59031 -15.84701 -15.63944 -15.56205
 Alpha  occ. eigenvalues --  -11.34964 -11.29654 -11.29606 -11.28670 -11.27174
 Alpha  occ. eigenvalues --  -11.23685 -11.23189 -11.22672 -11.22091  -1.57154
 Alpha  occ. eigenvalues --   -1.36802  -1.30818  -1.23055  -1.14696  -1.09813
 Alpha  occ. eigenvalues --   -1.02770  -1.01275  -0.94449  -0.89632  -0.85466
 Alpha  occ. eigenvalues --   -0.82494  -0.78551  -0.77479  -0.75166  -0.71893
 Alpha  occ. eigenvalues --   -0.69979  -0.69258  -0.67676  -0.64960  -0.63823
 Alpha  occ. eigenvalues --   -0.62200  -0.60430  -0.57680  -0.56906  -0.55062
 Alpha  occ. eigenvalues --   -0.54542  -0.50696  -0.50186  -0.48760  -0.48104
 Alpha  occ. eigenvalues --   -0.47463  -0.46102  -0.45979  -0.43673  -0.41837
 Alpha  occ. eigenvalues --   -0.39587  -0.33970
 Alpha virt. eigenvalues --    0.07595   0.11583   0.17269   0.21572   0.24001
 Alpha virt. eigenvalues --    0.25429   0.26842   0.28856   0.29143   0.29532
 Alpha virt. eigenvalues --    0.30470   0.31666   0.31971   0.32743   0.34039
 Alpha virt. eigenvalues --    0.34378   0.35994   0.37385   0.38481   0.40546
 Alpha virt. eigenvalues --    0.41324   0.42216   0.44799   0.46082   0.46743
 Alpha virt. eigenvalues --    0.47093   0.48949   0.54006   0.57661   0.60513
 Alpha virt. eigenvalues --    0.63697   0.69628   0.69960   0.72737   0.74275
 Alpha virt. eigenvalues --    0.74852   0.75641   0.76549   0.78588   0.79665
 Alpha virt. eigenvalues --    0.81700   0.83802   0.85471   0.86119   0.88764
 Alpha virt. eigenvalues --    0.89169   0.90721   0.91084   0.92557   0.94622
 Alpha virt. eigenvalues --    0.94949   0.97660   1.00106   1.02213   1.02267
 Alpha virt. eigenvalues --    1.02647   1.05993   1.06519   1.07980   1.09054
 Alpha virt. eigenvalues --    1.10170   1.10764   1.11847   1.12306   1.13872
 Alpha virt. eigenvalues --    1.14087   1.14986   1.15464   1.16988   1.18757
 Alpha virt. eigenvalues --    1.18873   1.20235   1.21414   1.22867   1.23927
 Alpha virt. eigenvalues --    1.25202   1.26450   1.27008   1.27577   1.29475
 Alpha virt. eigenvalues --    1.30846   1.33692   1.34580   1.37248   1.40537
 Alpha virt. eigenvalues --    1.42562   1.44302   1.47798   1.49884   1.52716
 Alpha virt. eigenvalues --    1.57047   1.58135   1.60590   1.62909   1.66197
 Alpha virt. eigenvalues --    1.67443   1.68390   1.72368   1.75505   1.78376
 Alpha virt. eigenvalues --    1.82055   1.84256   1.86772   1.91079   1.92287
 Alpha virt. eigenvalues --    1.92715   1.95822   1.99037   2.00402   2.02774
 Alpha virt. eigenvalues --    2.04191   2.07487   2.08013   2.09138   2.12677
 Alpha virt. eigenvalues --    2.13411   2.15975   2.18019   2.20015   2.22233
 Alpha virt. eigenvalues --    2.23148   2.23963   2.24906   2.28434   2.29074
 Alpha virt. eigenvalues --    2.32826   2.34131   2.35368   2.36526   2.36806
 Alpha virt. eigenvalues --    2.39482   2.41293   2.44307   2.45053   2.47415
 Alpha virt. eigenvalues --    2.50022   2.52187   2.53894   2.56082   2.60102
 Alpha virt. eigenvalues --    2.62516   2.65484   2.66691   2.69053   2.70480
 Alpha virt. eigenvalues --    2.72119   2.73247   2.77251   2.78833   2.84168
 Alpha virt. eigenvalues --    2.87777   2.89248   2.92823   2.93112   2.96491
 Alpha virt. eigenvalues --    3.00036   3.01008   3.03479   3.06200   3.08220
 Alpha virt. eigenvalues --    3.09272   3.14808   3.21423   3.22849   3.27325
 Alpha virt. eigenvalues --    3.30967   3.36171   3.39702   3.50655   3.65667
 Alpha virt. eigenvalues --    4.11157   4.24809   4.31541   4.38468   4.45082
 Alpha virt. eigenvalues --    4.55953   4.61731   4.62014   4.73761   4.78293
 Alpha virt. eigenvalues --    4.99621   5.00920   5.05900   5.10205
          Condensed to atoms (all electrons):
               1          2          3          4          5          6
     1  O    8.311244   0.309419  -0.080980  -0.084867   0.003559  -0.000020
     2  N    0.309419   5.728411   0.292330   0.264027  -0.049264   0.000992
     3  O   -0.080980   0.292330   8.349620  -0.088501   0.003116   0.000690
     4  C   -0.084867   0.264027  -0.088501   5.219760   0.551302  -0.054796
     5  C    0.003559  -0.049264   0.003116   0.551302   4.724370   0.326220
     6  N   -0.000020   0.000992   0.000690  -0.054796   0.326220   7.181574
     7  C    0.000004  -0.000147   0.000001   0.002836  -0.032478   0.173103
     8  H   -0.000000   0.000004  -0.000000  -0.000117   0.002629  -0.049636
     9  C   -0.000000  -0.000005   0.000000   0.000679   0.001119  -0.061048
    10  C    0.000000   0.000000  -0.000000  -0.000026  -0.000065   0.003671
    11  C   -0.000000  -0.000000  -0.000000  -0.000040   0.000024  -0.000199
    12  C   -0.000000   0.000002  -0.000000  -0.000138  -0.000119   0.004064
    13  C   -0.000029  -0.000041  -0.000003  -0.010078  -0.000692  -0.049958
    14  H   -0.000006  -0.000020   0.000000   0.003211   0.005890  -0.006702
    15  N    0.000191   0.002528  -0.000024  -0.061483  -0.006954   0.001640
    16  C    0.003606  -0.036130   0.002693   0.338347  -0.053080  -0.000494
    17  H    0.000259  -0.006740   0.016953  -0.025410   0.376301  -0.032698
    18  H    0.000001  -0.000058   0.000011   0.001712  -0.031189   0.338764
    19  H    0.000000   0.000004  -0.000000  -0.000802   0.000875  -0.000439
    20  H    0.000000  -0.000000   0.000000  -0.000091   0.000168  -0.000286
    21  H   -0.000000  -0.000000   0.000000   0.000001   0.000001  -0.000075
    22  H   -0.000000   0.000000  -0.000000   0.000000  -0.000004  -0.000115
    23  H    0.000000  -0.000000   0.000000   0.000041   0.000000  -0.000030
    24  H   -0.000000   0.000000   0.000000   0.000000  -0.000000   0.000006
    25  H   -0.000000  -0.000000   0.000000   0.000032  -0.000004  -0.000093
    26  H   -0.000000  -0.000000   0.000000   0.000005  -0.000000  -0.000063
    27  H    0.004007  -0.001228  -0.000045  -0.062135   0.002979  -0.000007
               7          8          9         10         11         12
     1  O    0.000004  -0.000000  -0.000000   0.000000  -0.000000  -0.000000
     2  N   -0.000147   0.000004  -0.000005   0.000000  -0.000000   0.000002
     3  O    0.000001  -0.000000   0.000000  -0.000000  -0.000000  -0.000000
     4  C    0.002836  -0.000117   0.000679  -0.000026  -0.000040  -0.000138
     5  C   -0.032478   0.002629   0.001119  -0.000065   0.000024  -0.000119
     6  N    0.173103  -0.049636  -0.061048   0.003671  -0.000199   0.004064
     7  C    5.022166   0.417875   0.349210  -0.054739  -0.008906  -0.061967
     8  H    0.417875   0.536366  -0.053419   0.000498  -0.000284  -0.002254
     9  C    0.349210  -0.053419   5.154554   0.325226  -0.050607  -0.005046
    10  C   -0.054739   0.000498   0.325226   5.120304   0.336689  -0.061097
    11  C   -0.008906  -0.000284  -0.050607   0.336689   5.121010   0.335868
    12  C   -0.061967  -0.002254  -0.005046  -0.061097   0.335868   5.121648
    13  C    0.338404  -0.037815  -0.060858  -0.000275  -0.050551   0.371929
    14  H   -0.046883  -0.000684   0.004409  -0.000398   0.004193  -0.036710
    15  N   -0.058362   0.003862  -0.013715   0.001582  -0.013372  -0.083458
    16  C   -0.000565  -0.000125  -0.000798  -0.000054   0.000053   0.002423
    17  H    0.001629  -0.000066  -0.000057   0.000001   0.000000   0.000001
    18  H   -0.021806  -0.004615   0.001570  -0.000084   0.000003  -0.000120
    19  H   -0.036863   0.004333   0.391004  -0.032638  -0.002189   0.000683
    20  H   -0.041666  -0.001992   0.399359  -0.035157   0.003907  -0.000419
    21  H    0.004602  -0.000072  -0.036411   0.402504  -0.034893   0.004346
    22  H   -0.004900   0.003547  -0.046824   0.397560  -0.045349  -0.001039
    23  H    0.000608   0.000038  -0.001981  -0.039091   0.399161  -0.038123
    24  H   -0.000129  -0.000103   0.004371  -0.038330   0.402333  -0.038546
    25  H    0.005147  -0.000024  -0.000435   0.004188  -0.033300   0.398012
    26  H   -0.003876   0.001703   0.000948  -0.002244  -0.041444   0.396302
    27  H   -0.000388   0.000008  -0.000051   0.000005   0.000014  -0.000034
              13         14         15         16         17         18
     1  O   -0.000029  -0.000006   0.000191   0.003606   0.000259   0.000001
     2  N   -0.000041  -0.000020   0.002528  -0.036130  -0.006740  -0.000058
     3  O   -0.000003   0.000000  -0.000024   0.002693   0.016953   0.000011
     4  C   -0.010078   0.003211  -0.061483   0.338347  -0.025410   0.001712
     5  C   -0.000692   0.005890  -0.006954  -0.053080   0.376301  -0.031189
     6  N   -0.049958  -0.006702   0.001640  -0.000494  -0.032698   0.338764
     7  C    0.338404  -0.046883  -0.058362  -0.000565   0.001629  -0.021806
     8  H   -0.037815  -0.000684   0.003862  -0.000125  -0.000066  -0.004615
     9  C   -0.060858   0.004409  -0.013715  -0.000798  -0.000057   0.001570
    10  C   -0.000275  -0.000398   0.001582  -0.000054   0.000001  -0.000084
    11  C   -0.050551   0.004193  -0.013372   0.000053   0.000000   0.000003
    12  C    0.371929  -0.036710  -0.083458   0.002423   0.000001  -0.000120
    13  C    5.040329   0.403881   0.244588  -0.067941   0.000002   0.002922
    14  H    0.403881   0.527836  -0.036456  -0.006316   0.000045  -0.000067
    15  N    0.244588  -0.036456   6.965408   0.583930  -0.000078  -0.000120
    16  C   -0.067941  -0.006316   0.583930   4.702193   0.001761  -0.000151
    17  H    0.000002   0.000045  -0.000078   0.001761   0.378066  -0.002872
    18  H    0.002922  -0.000067  -0.000120  -0.000151  -0.002872   0.312143
    19  H   -0.007794   0.000111   0.007773   0.002325   0.000008  -0.000136
    20  H    0.004331  -0.000068   0.000125  -0.000036   0.000001   0.000565
    21  H   -0.000428   0.000010  -0.000041   0.000004  -0.000000   0.000002
    22  H    0.000040  -0.000054   0.000022  -0.000002   0.000000   0.000000
    23  H   -0.007651   0.000002   0.008717   0.000148   0.000000   0.000000
    24  H    0.004684  -0.000058   0.000123   0.000006   0.000000  -0.000000
    25  H   -0.035481  -0.002805   0.000652  -0.000033  -0.000000   0.000002
    26  H   -0.047439  -0.001032   0.004969  -0.000046   0.000000   0.000000
    27  H    0.005114  -0.000176  -0.042190   0.403316  -0.000071   0.000001
              19         20         21         22         23         24
     1  O    0.000000   0.000000  -0.000000  -0.000000   0.000000  -0.000000
     2  N    0.000004  -0.000000  -0.000000   0.000000  -0.000000   0.000000
     3  O   -0.000000   0.000000   0.000000  -0.000000   0.000000   0.000000
     4  C   -0.000802  -0.000091   0.000001   0.000000   0.000041   0.000000
     5  C    0.000875   0.000168   0.000001  -0.000004   0.000000  -0.000000
     6  N   -0.000439  -0.000286  -0.000075  -0.000115  -0.000030   0.000006
     7  C   -0.036863  -0.041666   0.004602  -0.004900   0.000608  -0.000129
     8  H    0.004333  -0.001992  -0.000072   0.003547   0.000038  -0.000103
     9  C    0.391004   0.399359  -0.036411  -0.046824  -0.001981   0.004371
    10  C   -0.032638  -0.035157   0.402504   0.397560  -0.039091  -0.038330
    11  C   -0.002189   0.003907  -0.034893  -0.045349   0.399161   0.402333
    12  C    0.000683  -0.000419   0.004346  -0.001039  -0.038123  -0.038546
    13  C   -0.007794   0.004331  -0.000428   0.000040  -0.007651   0.004684
    14  H    0.000111  -0.000068   0.000010  -0.000054   0.000002  -0.000058
    15  N    0.007773   0.000125  -0.000041   0.000022   0.008717   0.000123
    16  C    0.002325  -0.000036   0.000004  -0.000002   0.000148   0.000006
    17  H    0.000008   0.000001  -0.000000   0.000000   0.000000   0.000000
    18  H   -0.000136   0.000565   0.000002   0.000000   0.000000  -0.000000
    19  H    0.506104  -0.024466  -0.002764   0.003969   0.001541  -0.000069
    20  H   -0.024466   0.537567  -0.002682  -0.002959  -0.000045  -0.000082
    21  H   -0.002764  -0.002682   0.523957  -0.027396  -0.002913  -0.002245
    22  H    0.003969  -0.002959  -0.027396   0.571360   0.004141  -0.003635
    23  H    0.001541  -0.000045  -0.002913   0.004141   0.499533  -0.025414
    24  H   -0.000069  -0.000082  -0.002245  -0.003635  -0.025414   0.537626
    25  H   -0.000028   0.000013  -0.000087  -0.000080  -0.002290  -0.002298
    26  H    0.000020  -0.000029  -0.000082   0.002381   0.004079  -0.003008
    27  H    0.000063   0.000000  -0.000000   0.000000  -0.000035  -0.000000
              25         26         27
     1  O   -0.000000  -0.000000   0.004007
     2  N   -0.000000  -0.000000  -0.001228
     3  O    0.000000   0.000000  -0.000045
     4  C    0.000032   0.000005  -0.062135
     5  C   -0.000004  -0.000000   0.002979
     6  N   -0.000093  -0.000063  -0.000007
     7  C    0.005147  -0.003876  -0.000388
     8  H   -0.000024   0.001703   0.000008
     9  C   -0.000435   0.000948  -0.000051
    10  C    0.004188  -0.002244   0.000005
    11  C   -0.033300  -0.041444   0.000014
    12  C    0.398012   0.396302  -0.000034
    13  C   -0.035481  -0.047439   0.005114
    14  H   -0.002805  -0.001032  -0.000176
    15  N    0.000652   0.004969  -0.042190
    16  C   -0.000033  -0.000046   0.403316
    17  H   -0.000000   0.000000  -0.000071
    18  H    0.000002   0.000000   0.000001
    19  H   -0.000028   0.000020   0.000063
    20  H    0.000013  -0.000029   0.000000
    21  H   -0.000087  -0.000082  -0.000000
    22  H   -0.000080   0.002381   0.000000
    23  H   -0.002290   0.004079  -0.000035
    24  H   -0.002298  -0.003008  -0.000000
    25  H    0.505240  -0.023980  -0.000016
    26  H   -0.023980   0.563047   0.000001
    27  H   -0.000016   0.000001   0.453537
 Mulliken charges:
               1
     1  O   -0.466387
     2  N    0.495915
     3  O   -0.495860
     4  C    0.006531
     5  C    0.175295
     6  N   -0.774064
     7  C    0.058090
     8  H    0.180343
     9  C   -0.301195
    10  C   -0.328029
    11  C   -0.322123
    12  C   -0.306207
    13  C   -0.039189
    14  H    0.188846
    15  N   -0.509856
    16  C    0.124966
    17  H    0.292968
    18  H    0.403523
    19  H    0.189374
    20  H    0.163943
    21  H    0.174662
    22  H    0.149335
    23  H    0.199562
    24  H    0.164768
    25  H    0.187668
    26  H    0.149789
    27  H    0.237332
 Sum of Mulliken charges =  -0.00000
 Mulliken charges with hydrogens summed into heavy atoms:
               1
     1  O   -0.466387
     2  N    0.495915
     3  O   -0.495860
     4  C    0.006531
     5  C    0.468264
     6  N   -0.370541
     7  C    0.238433
     9  C    0.052122
    10  C   -0.004032
    11  C    0.042208
    12  C    0.031250
    13  C    0.149657
    15  N   -0.509856
    16  C    0.362298
 Electronic spatial extent (au):  <R**2>=           2991.1880
 Charge=             -0.0000 electrons
 Dipole moment (field-independent basis, Debye):
    X=              5.3316    Y=              4.7241    Z=              1.2912  Tot=              7.2395
 Quadrupole moment (field-independent basis, Debye-Ang):
   XX=           -105.5465   YY=            -79.8233   ZZ=            -81.0354
   XY=             -1.7887   XZ=              0.6268   YZ=              3.4206
 Traceless Quadrupole moment (field-independent basis, Debye-Ang):
   XX=            -16.7448   YY=              8.9784   ZZ=              7.7663
   XY=             -1.7887   XZ=              0.6268   YZ=              3.4206
 Octapole moment (field-independent basis, Debye-Ang**2):
  XXX=             88.7069  YYY=             34.8874  ZZZ=              0.4201  XYY=             -4.0767
  XXY=              9.5196  XXZ=              1.3886  XZZ=            -10.9962  YZZ=             -0.4517
  YYZ=              8.6017  XYZ=             -3.6166
 Hexadecapole moment (field-independent basis, Debye-Ang**3):
 XXXX=          -3349.2141 YYYY=           -614.0359 ZZZZ=           -297.9913 XXXY=            -23.6796
 XXXZ=             10.5571 YYYX=            -13.2449 YYYZ=             36.7391 ZZZX=              9.6910
 ZZZY=             15.4300 XXYY=           -627.4237 XXZZ=           -516.0806 YYZZ=           -155.6453
 XXYZ=             11.0670 YYXZ=              7.5949 ZZXY=              5.4355
 N-N= 9.318049332510D+02 E-N=-3.410317706162D+03  KE= 6.596225307893D+02
 Unable to Open any file for archive entry.
 1\1\GINC-LOTUS\FOpt\RMP2-FC\6-31G(d)\C9H13N3O2\ALEXEY\03-Jul-2023\0\\#
 MP2/6-31G* SCF=Tight Opt=(ModRedun, MaxCycle=20 ) NoSymm\\MolName:\\0,
 1\O,-3.4563822849,-1.4356608926,-0.0681336593\N,-3.1038179089,-0.24014
 8163,-0.086492312\O,-3.8988004779,0.7177529522,-0.0287680606\C,-1.6741
 344795,0.0226441332,-0.1854163272\C,-1.2968679598,1.2689560414,0.24240
 69028\N,-0.0544477862,1.7663622741,0.3642064153\C,1.2075257344,1.03518
 57774,0.3484492647\H,1.8474837375,1.5546790426,1.0768286369\C,1.927987
 9078,1.0476776004,-0.9978668752\C,3.3188025272,0.4278466082,-0.8189858
 349\C,3.2503823905,-0.9711788115,-0.200757775\C,2.438338529,-0.9820094
 698,1.0962239456\C,1.0362300878,-0.416420176,0.8410115156\H,0.44515566
 57,-0.395479731,1.7696693845\N,0.3985403349,-1.3116862725,-0.119174782
 8\C,-0.8436923062,-1.1384352099,-0.4384098024\H,-2.0978706732,1.976881
 4074,0.438793195\H,-0.0072211872,2.7223258902,0.6962211999\H,1.3377664
 513,0.4781626494,-1.7239817167\H,2.0060852286,2.0765821555,-1.36975733
 06\H,3.8350623983,0.3904072565,-1.7850718815\H,3.9160847876,1.08546084
 05,-0.1714671856\H,2.77522121,-1.660127897,-0.9063181759\H,4.263795396
 8,-1.3452310839,-0.0130150902\H,2.3399263451,-2.0049219249,1.473980652
 2\H,2.9422127158,-0.3908586051,1.8734399776\H,-1.2953763846,-1.9187563
 919,-1.0516242801\\Version=ES64L-G16RevC.02\HF=-661.2962223\MP2=-663.3
 316272\RMSD=8.590e-09\RMSF=2.655e-03\Dipole=1.9490217,1.6649903,0.4709
 453\PG=C01 [X(C9H13N3O2)]\\@
 The archive entry for this job was punched.


 THE PROMISED LAND ALWAYS LIES ON THE OTHER SIDE OF A WILDERNESS.

                         -- HAVELOCK ELLIS
 Job cpu time:       0 days  1 hours 18 minutes 23.0 seconds.
 Elapsed time:       0 days  0 hours 23 minutes 23.0 seconds.
 File lengths (MBytes):  RWF=     36 Int=      0 D2E=      0 Chk=      7 Scr=      1
 Normal termination of Gaussian 16 at Mon Jul  3 00:43:27 2023.
