 Entering Gaussian System, Link 0=g16
 Initial command:
 /home/alexey/programs//g16/l1.exe "/home/alexey/tmp/Gau-1602281.inp" -scrdir="/home/alexey/tmp/"
 Entering Link 1 = /home/alexey/programs//g16/l1.exe PID=   1602283.
  
 Copyright (c) 1988-2021, Gaussian, Inc.  All Rights Reserved.
  
 This is part of the Gaussian(R) 16 program.  It is based on
 the Gaussian(R) 09 system (copyright 2009, Gaussian, Inc.),
 the Gaussian(R) 03 system (copyright 2003, Gaussian, Inc.),
 the Gaussian(R) 98 system (copyright 1998, Gaussian, Inc.),
 the Gaussian(R) 94 system (copyright 1995, Gaussian, Inc.),
 the Gaussian 92(TM) system (copyright 1992, Gaussian, Inc.),
 the Gaussian 90(TM) system (copyright 1990, Gaussian, Inc.),
 the Gaussian 88(TM) system (copyright 1988, Gaussian, Inc.),
 the Gaussian 86(TM) system (copyright 1986, Carnegie Mellon
 University), and the Gaussian 82(TM) system (copyright 1983,
 Carnegie Mellon University). Gaussian is a federally registered
 trademark of Gaussian, Inc.
  
 This software contains proprietary and confidential information,
 including trade secrets, belonging to Gaussian, Inc.
  
 This software is provided under written license and may be
 used, copied, transmitted, or stored only in accord with that
 written license.
  
 The following legend is applicable only to US Government
 contracts under FAR:
  
                    RESTRICTED RIGHTS LEGEND
  
 Use, reproduction and disclosure by the US Government is
 subject to restrictions as set forth in subparagraphs (a)
 and (c) of the Commercial Computer Software - Restricted
 Rights clause in FAR 52.227-19.
  
 Gaussian, Inc.
 340 Quinnipiac St., Bldg. 40, Wallingford CT 06492
  
  
 ---------------------------------------------------------------
 Warning -- This program may not be used in any manner that
 competes with the business of Gaussian, Inc. or will provide
 assistance to any competitor of Gaussian, Inc.  The licensee
 of this program is prohibited from giving any competitor of
 Gaussian, Inc. access to this program.  By using this program,
 the user acknowledges that Gaussian, Inc. is engaged in the
 business of creating and licensing software in the field of
 computational chemistry and represents and warrants to the
 licensee that it is not a competitor of Gaussian, Inc. and that
 it will not use this program in any manner prohibited above.
 ---------------------------------------------------------------
  

 Cite this work as:
 Gaussian 16, Revision C.02,
 M. J. Frisch, G. W. Trucks, H. B. Schlegel, G. E. Scuseria, 
 M. A. Robb, J. R. Cheeseman, G. Scalmani, V. Barone, 
 G. A. Petersson, H. Nakatsuji, X. Li, M. Caricato, A. V. Marenich, 
 J. Bloino, B. G. Janesko, R. Gomperts, B. Mennucci, H. P. Hratchian, 
 J. V. Ortiz, A. F. Izmaylov, J. L. Sonnenberg, D. Williams-Young, 
 F. Ding, F. Lipparini, F. Egidi, J. Goings, B. Peng, A. Petrone, 
 T. Henderson, D. Ranasinghe, V. G. Zakrzewski, J. Gao, N. Rega, 
 G. Zheng, W. Liang, M. Hada, M. Ehara, K. Toyota, R. Fukuda, 
 J. Hasegawa, M. Ishida, T. Nakajima, Y. Honda, O. Kitao, H. Nakai, 
 T. Vreven, K. Throssell, J. A. Montgomery, Jr., J. E. Peralta, 
 F. Ogliaro, M. J. Bearpark, J. J. Heyd, E. N. Brothers, K. N. Kudin, 
 V. N. Staroverov, T. A. Keith, R. Kobayashi, J. Normand, 
 K. Raghavachari, A. P. Rendell, J. C. Burant, S. S. Iyengar, 
 J. Tomasi, M. Cossi, J. M. Millam, M. Klene, C. Adamo, R. Cammi, 
 J. W. Ochterski, R. L. Martin, K. Morokuma, O. Farkas, 
 J. B. Foresman, and D. J. Fox, Gaussian, Inc., Wallingford CT, 2019.
 
 ******************************************
 Gaussian 16:  ES64L-G16RevC.02  7-Dec-2021
                 2-Jul-2023 
 ******************************************
 %mem=8GB
 %NPROCS=4
 Will use up to    4 processors via shared memory.
 %NoSave
 ---------------------------------------------------------
 #MP2/6-31G* SCF=Tight Opt=(ModRedun, MaxCycle=20 ) NoSymm
 ---------------------------------------------------------
 1/6=20,18=120,19=15,38=1/1,3;
 2/9=110,12=2,15=1,17=6,18=5,40=1/2;
 3/5=1,6=6,7=1,11=9,25=1,30=1,71=1/1,2,3;
 4//1;
 5/5=2,32=2,38=5/2;
 8/6=4,10=2/1;
 9/15=2,16=-3/6;
 10/5=1,31=1/2;
 6/7=2,8=2,9=2,10=2/1;
 7/12=2,30=1/1,2,3,16;
 1/6=20,18=20,19=15/3(2);
 2/9=110,15=1/2;
 99//99;
 2/9=110,15=1/2;
 3/5=1,6=6,7=1,11=9,25=1,30=1,71=1/1,2,3;
 4/5=5,16=3,69=1/1;
 5/5=2,32=2,38=5/2;
 8/6=4,10=2/1;
 9/15=2,16=-3/6;
 10/5=1,31=1/2;
 7/12=2,30=1/1,2,3,16;
 1/6=20,18=20,19=15/3(-8);
 2/9=110,15=1/2;
 6/7=2,8=2,9=2,10=2/1;
 99/9=10/99;
 --------
 MolName:
 --------
 Symbolic Z-matrix:
 Charge =  0 Multiplicity = 1
 8                    0    -3.59514  -1.46949  -0.07328 
 7                    0    -3.24904  -0.29327   0.02256 
 8                    0    -4.03818   0.64403   0.1469 
 6                    0    -1.75828   0.01843  -0.08055 
 6                    0    -1.37049   1.31793   0.26486 
 7                    0    -0.08189   1.77442   0.36692 
 6                    0     1.19528   0.99811   0.34973 
 1                    0     1.85161   1.49141   1.11302 
 6                    0     1.97588   1.05193  -0.98719 
 6                    0     3.38364   0.46015  -0.78334 
 6                    0     3.31003  -0.95788  -0.19529 
 6                    0     2.44635  -0.99375   1.08402 
 6                    0     1.01414  -0.45205   0.82306 
 1                    0     0.45463  -0.49288   1.78701 
 7                    0     0.36631  -1.31573  -0.16703 
 6                    0    -0.87116  -1.10648  -0.47707 
 1                    0    -2.15723   2.04799   0.51788 
 1                    0     0.1506    2.75523   0.19301 
 1                    0     1.43385   0.47999  -1.77011 
 1                    0     2.06986   2.10297  -1.33381 
 1                    0     3.92986   0.43821  -1.7517 
 1                    0     3.95456   1.10938  -0.08247 
 1                    0     2.86937  -1.64274  -0.9546 
 1                    0     4.33412  -1.32606   0.03248 
 1                    0     2.38003  -2.04132   1.45135 
 1                    0     2.93331  -0.3875    1.87639 
 1                    0    -1.37201  -1.85004  -1.11574 
 
 The following ModRedundant input section has been read:
 D       4       5      16       2 F                                           
 D       1       2       4      16 F                                           
 D       7      13      15      16 F                                           
 D       7       9      10      11 F                                           
 D       9      10      11      12 F                                           
 D       6       7      13      15 F                                           
 

 GradGradGradGradGradGradGradGradGradGradGradGradGradGradGradGradGradGrad
 Berny optimization.
 Initialization pass.
                           ----------------------------
                           !    Initial Parameters    !
                           ! (Angstroms and Degrees)  !
 --------------------------                            --------------------------
 ! Name  Definition              Value          Derivative Info.                !
 --------------------------------------------------------------------------------
 ! R1    R(1,2)                  1.2298         estimate D2E/DX2                !
 ! R2    R(2,3)                  1.2316         estimate D2E/DX2                !
 ! R3    R(2,4)                  1.5265         estimate D2E/DX2                !
 ! R4    R(4,5)                  1.3994         estimate D2E/DX2                !
 ! R5    R(4,16)                 1.4865         estimate D2E/DX2                !
 ! R6    R(5,6)                  1.3709         estimate D2E/DX2                !
 ! R7    R(5,17)                 1.1027         estimate D2E/DX2                !
 ! R8    R(6,7)                  1.4947         estimate D2E/DX2                !
 ! R9    R(6,18)                 1.0229         estimate D2E/DX2                !
 ! R10   R(7,8)                  1.121          estimate D2E/DX2                !
 ! R11   R(7,9)                  1.5491         estimate D2E/DX2                !
 ! R12   R(7,13)                 1.5362         estimate D2E/DX2                !
 ! R13   R(9,10)                 1.5406         estimate D2E/DX2                !
 ! R14   R(9,19)                 1.1108         estimate D2E/DX2                !
 ! R15   R(9,20)                 1.1107         estimate D2E/DX2                !
 ! R16   R(10,11)                1.5369         estimate D2E/DX2                !
 ! R17   R(10,21)                1.112          estimate D2E/DX2                !
 ! R18   R(10,22)                1.113          estimate D2E/DX2                !
 ! R19   R(11,12)                1.544          estimate D2E/DX2                !
 ! R20   R(11,23)                1.1134         estimate D2E/DX2                !
 ! R21   R(11,24)                1.1118         estimate D2E/DX2                !
 ! R22   R(12,13)                1.5533         estimate D2E/DX2                !
 ! R23   R(12,25)                1.1121         estimate D2E/DX2                !
 ! R24   R(12,26)                1.1102         estimate D2E/DX2                !
 ! R25   R(13,14)                1.1153         estimate D2E/DX2                !
 ! R26   R(13,15)                1.4649         estimate D2E/DX2                !
 ! R27   R(15,16)                1.2928         estimate D2E/DX2                !
 ! R28   R(16,27)                1.1007         estimate D2E/DX2                !
 ! A1    A(1,2,3)              123.741          estimate D2E/DX2                !
 ! A2    A(1,2,4)              117.7016         estimate D2E/DX2                !
 ! A3    A(3,2,4)              118.5016         estimate D2E/DX2                !
 ! A4    A(2,4,5)              116.3315         estimate D2E/DX2                !
 ! A5    A(2,4,16)             116.5076         estimate D2E/DX2                !
 ! A6    A(5,4,16)             127.0986         estimate D2E/DX2                !
 ! A7    A(4,5,6)              126.02           estimate D2E/DX2                !
 ! A8    A(4,5,17)             118.2758         estimate D2E/DX2                !
 ! A9    A(6,5,17)             115.6644         estimate D2E/DX2                !
 ! A10   A(5,6,7)              129.0046         estimate D2E/DX2                !
 ! A11   A(5,6,18)             121.3516         estimate D2E/DX2                !
 ! A12   A(7,6,18)             107.5686         estimate D2E/DX2                !
 ! A13   A(6,7,8)              105.3008         estimate D2E/DX2                !
 ! A14   A(6,7,9)              114.9902         estimate D2E/DX2                !
 ! A15   A(6,7,13)             112.7057         estimate D2E/DX2                !
 ! A16   A(8,7,9)              106.1002         estimate D2E/DX2                !
 ! A17   A(8,7,13)             105.9407         estimate D2E/DX2                !
 ! A18   A(9,7,13)             110.9863         estimate D2E/DX2                !
 ! A19   A(7,9,10)             109.4459         estimate D2E/DX2                !
 ! A20   A(7,9,19)             110.1524         estimate D2E/DX2                !
 ! A21   A(7,9,20)             110.1727         estimate D2E/DX2                !
 ! A22   A(10,9,19)            109.9599         estimate D2E/DX2                !
 ! A23   A(10,9,20)            109.1146         estimate D2E/DX2                !
 ! A24   A(19,9,20)            107.9727         estimate D2E/DX2                !
 ! A25   A(9,10,11)            111.1783         estimate D2E/DX2                !
 ! A26   A(9,10,21)            109.9496         estimate D2E/DX2                !
 ! A27   A(9,10,22)            109.1468         estimate D2E/DX2                !
 ! A28   A(11,10,21)           109.7867         estimate D2E/DX2                !
 ! A29   A(11,10,22)           108.7743         estimate D2E/DX2                !
 ! A30   A(21,10,22)           107.9342         estimate D2E/DX2                !
 ! A31   A(10,11,12)           111.4237         estimate D2E/DX2                !
 ! A32   A(10,11,23)           108.9982         estimate D2E/DX2                !
 ! A33   A(10,11,24)           109.8648         estimate D2E/DX2                !
 ! A34   A(12,11,23)           109.2307         estimate D2E/DX2                !
 ! A35   A(12,11,24)           109.743          estimate D2E/DX2                !
 ! A36   A(23,11,24)           107.4905         estimate D2E/DX2                !
 ! A37   A(11,12,13)           111.6213         estimate D2E/DX2                !
 ! A38   A(11,12,25)           109.2039         estimate D2E/DX2                !
 ! A39   A(11,12,26)           109.471          estimate D2E/DX2                !
 ! A40   A(13,12,25)           109.209          estimate D2E/DX2                !
 ! A41   A(13,12,26)           109.5057         estimate D2E/DX2                !
 ! A42   A(25,12,26)           107.7466         estimate D2E/DX2                !
 ! A43   A(7,13,12)            105.7985         estimate D2E/DX2                !
 ! A44   A(7,13,14)            111.1015         estimate D2E/DX2                !
 ! A45   A(7,13,15)            113.6075         estimate D2E/DX2                !
 ! A46   A(12,13,14)           107.7331         estimate D2E/DX2                !
 ! A47   A(12,13,15)           108.4029         estimate D2E/DX2                !
 ! A48   A(14,13,15)           109.9205         estimate D2E/DX2                !
 ! A49   A(13,15,16)           119.3395         estimate D2E/DX2                !
 ! A50   A(4,16,15)            129.034          estimate D2E/DX2                !
 ! A51   A(4,16,27)            113.23           estimate D2E/DX2                !
 ! A52   A(15,16,27)           117.7336         estimate D2E/DX2                !
 ! D1    D(1,2,4,5)           -169.0784         estimate D2E/DX2                !
 ! D2    D(1,2,4,16)             8.2576         Frozen                          !
 ! D3    D(3,2,4,5)             13.5353         estimate D2E/DX2                !
 ! D4    D(3,2,4,16)          -169.1287         estimate D2E/DX2                !
 ! D5    D(2,4,5,6)            173.4142         estimate D2E/DX2                !
 ! D6    D(2,4,5,17)            -4.1842         estimate D2E/DX2                !
 ! D7    D(16,4,5,6)            -3.5965         estimate D2E/DX2                !
 ! D8    D(16,4,5,17)          178.805          estimate D2E/DX2                !
 ! D9    D(2,4,16,15)         -150.4157         estimate D2E/DX2                !
 ! D10   D(2,4,16,27)           29.0114         estimate D2E/DX2                !
 ! D11   D(5,4,16,15)           26.5905         estimate D2E/DX2                !
 ! D12   D(5,4,16,27)         -153.9824         estimate D2E/DX2                !
 ! D13   D(4,5,6,7)            -10.2614         estimate D2E/DX2                !
 ! D14   D(4,5,6,18)           151.2304         estimate D2E/DX2                !
 ! D15   D(17,5,6,7)           167.3921         estimate D2E/DX2                !
 ! D16   D(17,5,6,18)          -31.116          estimate D2E/DX2                !
 ! D17   D(4,5,16,2)            -1.886          Frozen                          !
 ! D18   D(5,6,7,8)           -140.8733         estimate D2E/DX2                !
 ! D19   D(5,6,7,9)            102.7212         estimate D2E/DX2                !
 ! D20   D(5,6,7,13)           -25.8409         estimate D2E/DX2                !
 ! D21   D(18,6,7,8)            55.6469         estimate D2E/DX2                !
 ! D22   D(18,6,7,9)           -60.7586         estimate D2E/DX2                !
 ! D23   D(18,6,7,13)          170.6793         estimate D2E/DX2                !
 ! D24   D(6,7,9,10)           168.6998         estimate D2E/DX2                !
 ! D25   D(6,7,9,19)           -70.2903         estimate D2E/DX2                !
 ! D26   D(6,7,9,20)            48.7216         estimate D2E/DX2                !
 ! D27   D(8,7,9,10)            52.7514         estimate D2E/DX2                !
 ! D28   D(8,7,9,19)           173.7613         estimate D2E/DX2                !
 ! D29   D(8,7,9,20)           -67.2268         estimate D2E/DX2                !
 ! D30   D(13,7,9,10)          -61.8865         estimate D2E/DX2                !
 ! D31   D(13,7,9,19)           59.1234         estimate D2E/DX2                !
 ! D32   D(13,7,9,20)          178.1353         estimate D2E/DX2                !
 ! D33   D(6,7,13,12)         -166.1806         estimate D2E/DX2                !
 ! D34   D(6,7,13,14)          -49.5344         estimate D2E/DX2                !
 ! D35   D(6,7,13,15)           75.0219         Frozen                          !
 ! D36   D(8,7,13,12)          -51.5347         estimate D2E/DX2                !
 ! D37   D(8,7,13,14)           65.1114         estimate D2E/DX2                !
 ! D38   D(8,7,13,15)         -170.3323         estimate D2E/DX2                !
 ! D39   D(9,7,13,12)           63.2028         estimate D2E/DX2                !
 ! D40   D(9,7,13,14)          179.8489         estimate D2E/DX2                !
 ! D41   D(9,7,13,15)          -55.5948         estimate D2E/DX2                !
 ! D42   D(7,9,10,11)           54.812          Frozen                          !
 ! D43   D(7,9,10,21)          176.6044         estimate D2E/DX2                !
 ! D44   D(7,9,10,22)          -65.1802         estimate D2E/DX2                !
 ! D45   D(19,9,10,11)         -66.3146         estimate D2E/DX2                !
 ! D46   D(19,9,10,21)          55.4778         estimate D2E/DX2                !
 ! D47   D(19,9,10,22)         173.6932         estimate D2E/DX2                !
 ! D48   D(20,9,10,11)         175.4365         estimate D2E/DX2                !
 ! D49   D(20,9,10,21)         -62.7711         estimate D2E/DX2                !
 ! D50   D(20,9,10,22)          55.4443         estimate D2E/DX2                !
 ! D51   D(9,10,11,12)         -52.8223         Frozen                          !
 ! D52   D(9,10,11,23)          67.7946         estimate D2E/DX2                !
 ! D53   D(9,10,11,24)        -174.6656         estimate D2E/DX2                !
 ! D54   D(21,10,11,12)       -174.7095         estimate D2E/DX2                !
 ! D55   D(21,10,11,23)        -54.0927         estimate D2E/DX2                !
 ! D56   D(21,10,11,24)         63.4472         estimate D2E/DX2                !
 ! D57   D(22,10,11,12)         67.3906         estimate D2E/DX2                !
 ! D58   D(22,10,11,23)       -171.9925         estimate D2E/DX2                !
 ! D59   D(22,10,11,24)        -54.4526         estimate D2E/DX2                !
 ! D60   D(10,11,12,13)         56.593          estimate D2E/DX2                !
 ! D61   D(10,11,12,25)        177.4453         estimate D2E/DX2                !
 ! D62   D(10,11,12,26)        -64.8125         estimate D2E/DX2                !
 ! D63   D(23,11,12,13)        -63.8873         estimate D2E/DX2                !
 ! D64   D(23,11,12,25)         56.965          estimate D2E/DX2                !
 ! D65   D(23,11,12,26)        174.7072         estimate D2E/DX2                !
 ! D66   D(24,11,12,13)        178.5068         estimate D2E/DX2                !
 ! D67   D(24,11,12,25)        -60.6409         estimate D2E/DX2                !
 ! D68   D(24,11,12,26)         57.1013         estimate D2E/DX2                !
 ! D69   D(11,12,13,7)         -60.2766         estimate D2E/DX2                !
 ! D70   D(11,12,13,14)       -179.1776         estimate D2E/DX2                !
 ! D71   D(11,12,13,15)         61.9156         estimate D2E/DX2                !
 ! D72   D(25,12,13,7)         178.874          estimate D2E/DX2                !
 ! D73   D(25,12,13,14)         59.973          estimate D2E/DX2                !
 ! D74   D(25,12,13,15)        -58.9338         estimate D2E/DX2                !
 ! D75   D(26,12,13,7)          61.1088         estimate D2E/DX2                !
 ! D76   D(26,12,13,14)        -57.7922         estimate D2E/DX2                !
 ! D77   D(26,12,13,15)       -176.6991         estimate D2E/DX2                !
 ! D78   D(7,13,15,16)         -67.1605         Frozen                          !
 ! D79   D(12,13,15,16)        175.5462         estimate D2E/DX2                !
 ! D80   D(14,13,15,16)         58.0298         estimate D2E/DX2                !
 ! D81   D(13,15,16,4)           7.64           estimate D2E/DX2                !
 ! D82   D(13,15,16,27)       -171.7651         estimate D2E/DX2                !
 --------------------------------------------------------------------------------
 Trust Radius=3.00D-01 FncErr=1.00D-07 GrdErr=1.00D-07 EigMax=2.50D+02 EigMin=1.00D-04
 Number of steps in this run=     20 maximum allowed number of steps=    162.
 GradGradGradGradGradGradGradGradGradGradGradGradGradGradGradGradGradGrad

                          Input orientation:                          
 ---------------------------------------------------------------------
 Center     Atomic      Atomic             Coordinates (Angstroms)
 Number     Number       Type             X           Y           Z
 ---------------------------------------------------------------------
      1          8           0       -3.595140   -1.469490   -0.073280
      2          7           0       -3.249040   -0.293270    0.022560
      3          8           0       -4.038180    0.644030    0.146900
      4          6           0       -1.758280    0.018430   -0.080550
      5          6           0       -1.370490    1.317930    0.264860
      6          7           0       -0.081890    1.774420    0.366920
      7          6           0        1.195280    0.998110    0.349730
      8          1           0        1.851610    1.491410    1.113020
      9          6           0        1.975880    1.051930   -0.987190
     10          6           0        3.383640    0.460150   -0.783340
     11          6           0        3.310030   -0.957880   -0.195290
     12          6           0        2.446350   -0.993750    1.084020
     13          6           0        1.014140   -0.452050    0.823060
     14          1           0        0.454630   -0.492880    1.787010
     15          7           0        0.366310   -1.315730   -0.167030
     16          6           0       -0.871160   -1.106480   -0.477070
     17          1           0       -2.157230    2.047990    0.517880
     18          1           0        0.150600    2.755230    0.193010
     19          1           0        1.433850    0.479990   -1.770110
     20          1           0        2.069860    2.102970   -1.333810
     21          1           0        3.929860    0.438210   -1.751700
     22          1           0        3.954560    1.109380   -0.082470
     23          1           0        2.869370   -1.642740   -0.954600
     24          1           0        4.334120   -1.326060    0.032480
     25          1           0        2.380030   -2.041320    1.451350
     26          1           0        2.933310   -0.387500    1.876390
     27          1           0       -1.372010   -1.850040   -1.115740
 ---------------------------------------------------------------------
                    Distance matrix (angstroms):
                    1          2          3          4          5
     1  O    0.000000
     2  N    1.229823   0.000000
     3  O    2.170652   1.231557   0.000000
     4  C    2.363898   1.526484   2.375090   0.000000
     5  C    3.582334   2.486690   2.754020   1.399425   0.000000
     6  N    4.802047   3.797995   4.120488   2.468606   1.370872
     7  C    5.405193   4.639686   5.249344   3.141406   2.587018
     8  H    6.311998   5.512787   6.028355   4.077448   3.336375
     9  C    6.182965   5.488984   6.133634   3.979205   3.582817
    10  C    7.275374   6.723806   7.482150   5.208490   4.943305
    11  C    6.925172   6.596254   7.528572   5.162762   5.224779
    12  C    6.169706   5.835652   6.753491   4.478800   4.536866
    13  C    4.804589   4.340589   5.213878   2.953671   3.021734
    14  H    4.562355   4.107347   4.916082   2.940440   2.987815
    15  N    3.965541   3.761931   4.831019   2.510248   3.184206
    16  C    2.777569   2.562275   3.672008   1.486483   2.584096
    17  H    3.845741   2.630378   2.376279   2.153229   1.102709
    18  H    5.652410   4.569459   4.690967   3.347944   2.093970
    19  H    5.654241   5.073564   5.800427   3.641064   3.564768
    20  H    6.814956   5.989357   6.452066   4.535485   3.874021
    21  H    7.942420   7.430994   8.193699   5.943391   5.738827
    22  H    7.978009   7.339640   8.009560   5.816074   5.340439
    23  H    6.526609   6.341203   7.359135   4.993856   5.313103
    24  H    7.931262   7.653174   8.601730   6.240013   6.291841
    25  H    6.193072   6.064944   7.078567   4.869794   5.172883
    26  H    6.898737   6.454999   7.256505   5.099550   4.901858
    27  H    2.484723   2.691190   3.863044   2.170715   3.455733
                    6          7          8          9         10
     6  N    0.000000
     7  C    1.494696   0.000000
     8  H    2.091694   1.121038   0.000000
     9  C    2.567104   1.549060   2.149295   0.000000
    10  C    3.880760   2.522334   2.647035   1.540632   0.000000
    11  C    4.391659   2.931742   3.136508   2.538976   1.536890
    12  C    3.816935   2.464115   2.555499   2.948908   2.545461
    13  C    2.523195   1.536170   2.135994   2.542421   3.004523
    14  H    2.728582   2.199406   2.518575   3.520913   4.011741
    15  N    3.167809   2.511591   3.424132   2.978119   3.554978
    16  C    3.104006   3.063180   4.085449   3.608960   4.544387
    17  H    2.098730   3.517079   4.090815   4.509986   5.908947
    18  H    1.022881   2.050217   2.310215   2.761476   4.083283
    19  H    2.922313   2.195242   3.083818   1.110800   2.185358
    20  H    2.762328   2.195430   2.531524   1.110704   2.174372
    21  H    4.729497   3.493912   3.692557   2.186130   1.112007
    22  H    4.115478   2.795139   2.448988   2.176463   1.112955
    23  H    4.704608   3.387911   3.890216   2.839125   2.171624
    24  H    5.406105   3.918511   3.907500   3.500837   2.181633
    25  H    4.668716   3.443158   3.588018   3.959547   3.501203
    26  H    4.005475   2.696545   2.298502   3.344955   2.827626
    27  H    4.123033   4.104941   5.150183   4.432417   5.297516
                   11         12         13         14         15
    11  C    0.000000
    12  C    1.543977   0.000000
    13  C    2.562033   1.553308   0.000000
    14  H    3.507000   2.170717   1.115311   0.000000
    15  N    2.965526   2.448543   1.464891   2.122064   0.000000
    16  C    4.193308   3.668185   2.381800   2.694491   1.292765
    17  H    6.279713   5.546679   4.049805   3.858565   4.260513
    18  H    4.890804   4.485445   3.380726   3.630907   4.092539
    19  H    2.840348   3.367955   2.787362   3.815554   2.633271
    20  H    3.493287   3.946812   3.506388   4.368858   3.993866
    21  H    2.180750   3.506083   3.990410   5.046446   4.276257
    22  H    2.168343   2.838759   3.450234   4.279218   4.331726
    23  H    1.113448   2.180850   2.831907   3.830088   2.644336
    24  H    1.111844   2.186285   3.522950   4.338549   3.972836
    25  H    2.179487   1.112085   2.187735   2.493491   2.683413
    26  H    2.181538   1.110189   2.190179   2.482529   3.409790
    27  H    4.854346   4.489103   3.377430   3.688422   2.051169
                   16         17         18         19         20
    16  C    0.000000
    17  H    3.548885   0.000000
    18  H    4.050408   2.435530   0.000000
    19  H    3.082517   4.537552   3.267612   0.000000
    20  H    4.436685   4.615200   2.537751   1.796923   0.000000
    21  H    5.201975   6.692910   4.840794   2.496428   2.530940
    22  H    5.324783   6.212518   4.153893   3.098103   2.470864
    23  H    3.808828   6.407526   5.296306   2.689193   3.848813
    24  H    5.234768   7.331947   5.846754   3.862993   4.330343
    25  H    3.893965   6.179041   5.436972   4.198817   5.002845
    26  H    4.530971   5.804374   4.522609   4.037063   4.153718
    27  H    1.100741   4.298828   5.023911   3.705414   5.245981
                   21         22         23         24         25
    21  H    0.000000
    22  H    1.799280   0.000000
    23  H    2.467866   3.084220   0.000000
    24  H    2.541530   2.467518   1.794465   0.000000
    25  H    4.337000   3.841700   2.487351   2.518582   0.000000
    26  H    3.852005   2.668470   3.097454   2.498633   1.794965
    27  H    5.809506   6.180466   4.249499   5.844047   4.550203
                   26         27
    26  H    0.000000
    27  H    5.443128   0.000000
 Symmetry turned off by external request.
 Stoichiometry    C9H13N3O2
 Framework group  C1[X(C9H13N3O2)]
 Deg. of freedom    75
 Full point group                 C1      NOp   1
 Rotational constants (GHZ):           1.6769369           0.4014507           0.3556245
 Standard basis: 6-31G(d) (6D, 7F)
   236 basis functions,   444 primitive gaussians,   236 cartesian basis functions
    52 alpha electrons       52 beta electrons
       nuclear repulsion energy       917.8073369649 Hartrees.
 NAtoms=   27 NActive=   27 NUniq=   27 SFac= 1.00D+00 NAtFMM=   60 NAOKFM=F Big=F
 Integral buffers will be    131072 words long.
 Raffenetti 1 integral format.
 Two-electron integral symmetry is turned off.
 One-electron integrals computed using PRISM.
 NBasis=   236 RedAO= T EigKep=  1.33D-03  NBF=   236
 NBsUse=   236 1.00D-06 EigRej= -1.00D+00 NBFU=   236
 ExpMin= 1.61D-01 ExpMax= 5.48D+03 ExpMxC= 8.25D+02 IAcc=3 IRadAn=         5 AccDes= 0.00D+00
 Harris functional with IExCor=  205 and IRadAn=       5 diagonalized for initial guess.
 HarFok:  IExCor=  205 AccDes= 0.00D+00 IRadAn=         5 IDoV= 1 UseB2=F ITyADJ=14
 ICtDFT=  3500011 ScaDFX=  1.000000  1.000000  1.000000  1.000000
 FoFCou: FMM=F IPFlag=           0 FMFlag=      100000 FMFlg1=           0
         NFxFlg=           0 DoJE=T BraDBF=F KetDBF=T FulRan=T
         wScrn=  0.000000 ICntrl=       500 IOpCl=  0 I1Cent=   200000004 NGrid=           0
         NMat0=    1 NMatS0=      1 NMatT0=    0 NMatD0=    1 NMtDS0=    0 NMtDT0=    0
 Symmetry not used in FoFCou.
 Keep R1 ints in memory in canonical form, NReq=397720213.
 Requested convergence on RMS density matrix=1.00D-08 within 128 cycles.
 Requested convergence on MAX density matrix=1.00D-06.
 Requested convergence on             energy=1.00D-06.
 No special actions if energy rises.
 SCF Done:  E(RHF) =  -661.279787070     A.U. after   16 cycles
            NFock= 16  Conv=0.91D-08     -V/T= 2.0037
 ExpMin= 1.61D-01 ExpMax= 5.48D+03 ExpMxC= 8.25D+02 IAcc=3 IRadAn=         5 AccDes= 0.00D+00
 HarFok:  IExCor=  205 AccDes= 0.00D+00 IRadAn=         5 IDoV=-2 UseB2=F ITyADJ=14
 ICtDFT= 12500011 ScaDFX=  1.000000  1.000000  1.000000  1.000000
 Range of M.O.s used for correlation:    15   236
 NBasis=   236 NAE=    52 NBE=    52 NFC=    14 NFV=     0
 NROrb=    222 NOA=    38 NOB=    38 NVA=   184 NVB=   184
 Fully direct method using O(ONN) memory.
 JobTyp=1 Pass  1:  I=  15 to  52 NPSUse=  4 ParTrn=T ParDer=T DoDerP=T.
 Spin components of T(2) and E(2):
     alpha-alpha T2 =       0.9195977744D-01 E2=     -0.2717488172D+00
     alpha-beta  T2 =       0.4998701525D+00 E2=     -0.1493935874D+01
     beta-beta   T2 =       0.9195977744D-01 E2=     -0.2717488172D+00
 ANorm=    0.1297609228D+01
 E2 =    -0.2037433508D+01 EUMP2 =    -0.66331722057882D+03
          IDoAtm=111111111111111111111111111
          Differentiating once with respect to electric field.
                with respect to dipole field.
          Differentiating once with respect to nuclear coordinates.
 Keep R1 ints in memory in canonical form, NReq=397723379.
          There are     1 degrees of freedom in the 1st order CPHF.  IDoFFX=0 NUNeed=     1.
 LinEq1:  Iter=  0 NonCon=     1 RMS=4.60D-03 Max=1.09D-01 NDo=     1
 AX will form     1 AO Fock derivatives at one time.
 LinEq1:  Iter=  1 NonCon=     1 RMS=1.56D-03 Max=3.08D-02 NDo=     1
 LinEq1:  Iter=  2 NonCon=     1 RMS=6.39D-04 Max=1.76D-02 NDo=     1
 LinEq1:  Iter=  3 NonCon=     1 RMS=2.94D-04 Max=9.06D-03 NDo=     1
 LinEq1:  Iter=  4 NonCon=     1 RMS=9.04D-05 Max=2.07D-03 NDo=     1
 LinEq1:  Iter=  5 NonCon=     1 RMS=3.76D-05 Max=1.89D-03 NDo=     1
 LinEq1:  Iter=  6 NonCon=     1 RMS=1.55D-05 Max=5.84D-04 NDo=     1
 LinEq1:  Iter=  7 NonCon=     1 RMS=5.94D-06 Max=9.98D-05 NDo=     1
 LinEq1:  Iter=  8 NonCon=     1 RMS=2.37D-06 Max=6.04D-05 NDo=     1
 LinEq1:  Iter=  9 NonCon=     1 RMS=8.77D-07 Max=2.50D-05 NDo=     1
 LinEq1:  Iter= 10 NonCon=     1 RMS=4.38D-07 Max=1.57D-05 NDo=     1
 LinEq1:  Iter= 11 NonCon=     1 RMS=1.56D-07 Max=5.73D-06 NDo=     1
 LinEq1:  Iter= 12 NonCon=     1 RMS=5.47D-08 Max=7.89D-07 NDo=     1
 LinEq1:  Iter= 13 NonCon=     1 RMS=1.73D-08 Max=3.46D-07 NDo=     1
 LinEq1:  Iter= 14 NonCon=     1 RMS=5.59D-09 Max=1.38D-07 NDo=     1
 LinEq1:  Iter= 15 NonCon=     1 RMS=2.07D-09 Max=4.73D-08 NDo=     1
 LinEq1:  Iter= 16 NonCon=     1 RMS=7.82D-10 Max=1.19D-08 NDo=     1
 LinEq1:  Iter= 17 NonCon=     1 RMS=2.58D-10 Max=3.82D-09 NDo=     1
 LinEq1:  Iter= 18 NonCon=     1 RMS=8.93D-11 Max=1.07D-09 NDo=     1
 LinEq1:  Iter= 19 NonCon=     0 RMS=2.99D-11 Max=4.36D-10 NDo=     1
 Linear equations converged to 1.000D-10 1.000D-09 after    19 iterations.
 End of Minotr F.D. properties file   721 does not exist.
 End of Minotr F.D. properties file   722 does not exist.
 End of Minotr F.D. properties file   788 does not exist.

 **********************************************************************

            Population analysis using the SCF Density.

 **********************************************************************

 Alpha  occ. eigenvalues --  -20.59872 -20.59400 -15.85264 -15.63205 -15.56969
 Alpha  occ. eigenvalues --  -11.35792 -11.30513 -11.30083 -11.30066 -11.27728
 Alpha  occ. eigenvalues --  -11.24617 -11.23876 -11.23417 -11.22863  -1.58500
 Alpha  occ. eigenvalues --   -1.38007  -1.28528  -1.22764  -1.13281  -1.08385
 Alpha  occ. eigenvalues --   -1.01819  -1.00667  -0.93565  -0.88987  -0.84927
 Alpha  occ. eigenvalues --   -0.81560  -0.78038  -0.76956  -0.74289  -0.71091
 Alpha  occ. eigenvalues --   -0.70390  -0.69736  -0.67409  -0.64388  -0.63299
 Alpha  occ. eigenvalues --   -0.61611  -0.60457  -0.57433  -0.56447  -0.54899
 Alpha  occ. eigenvalues --   -0.53523  -0.50737  -0.49341  -0.48507  -0.47737
 Alpha  occ. eigenvalues --   -0.47649  -0.46127  -0.45693  -0.44000  -0.42102
 Alpha  occ. eigenvalues --   -0.40013  -0.33849
 Alpha virt. eigenvalues --    0.07356   0.11692   0.18297   0.21286   0.23310
 Alpha virt. eigenvalues --    0.24184   0.26224   0.27781   0.28587   0.28866
 Alpha virt. eigenvalues --    0.29905   0.30987   0.31853   0.32257   0.33356
 Alpha virt. eigenvalues --    0.33764   0.34390   0.35500   0.37554   0.38602
 Alpha virt. eigenvalues --    0.40655   0.41736   0.44502   0.45273   0.45678
 Alpha virt. eigenvalues --    0.46033   0.49650   0.53198   0.57640   0.59229
 Alpha virt. eigenvalues --    0.63194   0.69193   0.69289   0.72143   0.74054
 Alpha virt. eigenvalues --    0.74881   0.75712   0.75834   0.77716   0.79348
 Alpha virt. eigenvalues --    0.80663   0.83504   0.85087   0.85310   0.88125
 Alpha virt. eigenvalues --    0.89035   0.90133   0.90644   0.91737   0.93877
 Alpha virt. eigenvalues --    0.95036   0.97187   0.98811   1.00395   1.01909
 Alpha virt. eigenvalues --    1.02727   1.05065   1.06383   1.07017   1.08605
 Alpha virt. eigenvalues --    1.09512   1.10444   1.11111   1.12031   1.13273
 Alpha virt. eigenvalues --    1.13797   1.14190   1.15304   1.16299   1.17166
 Alpha virt. eigenvalues --    1.17797   1.19854   1.21124   1.22120   1.23040
 Alpha virt. eigenvalues --    1.23437   1.24031   1.25674   1.27334   1.27834
 Alpha virt. eigenvalues --    1.29313   1.31032   1.33011   1.35969   1.39917
 Alpha virt. eigenvalues --    1.42549   1.46063   1.47309   1.48876   1.52561
 Alpha virt. eigenvalues --    1.53992   1.54684   1.60675   1.61452   1.64928
 Alpha virt. eigenvalues --    1.68778   1.70488   1.72646   1.73907   1.77326
 Alpha virt. eigenvalues --    1.77844   1.79321   1.84359   1.89254   1.92350
 Alpha virt. eigenvalues --    1.92921   1.95856   1.97339   1.98878   2.00805
 Alpha virt. eigenvalues --    2.02967   2.04099   2.05768   2.08823   2.12164
 Alpha virt. eigenvalues --    2.12886   2.14136   2.17723   2.19065   2.19409
 Alpha virt. eigenvalues --    2.20544   2.21843   2.24173   2.25234   2.26385
 Alpha virt. eigenvalues --    2.29188   2.32338   2.33671   2.35581   2.36285
 Alpha virt. eigenvalues --    2.38488   2.39425   2.41026   2.43034   2.46050
 Alpha virt. eigenvalues --    2.48629   2.50261   2.51085   2.56820   2.57146
 Alpha virt. eigenvalues --    2.60713   2.62924   2.65911   2.68406   2.68933
 Alpha virt. eigenvalues --    2.69913   2.70065   2.74523   2.77276   2.81098
 Alpha virt. eigenvalues --    2.84555   2.86950   2.90035   2.91268   2.95421
 Alpha virt. eigenvalues --    2.97708   2.98012   3.02066   3.03633   3.05640
 Alpha virt. eigenvalues --    3.07030   3.12543   3.19431   3.22237   3.27078
 Alpha virt. eigenvalues --    3.29632   3.33521   3.37198   3.43291   3.59750
 Alpha virt. eigenvalues --    4.09346   4.22640   4.31454   4.35616   4.42881
 Alpha virt. eigenvalues --    4.52750   4.59654   4.60008   4.70851   4.77257
 Alpha virt. eigenvalues --    4.96472   4.99229   5.02842   5.09769
          Condensed to atoms (all electrons):
               1          2          3          4          5          6
     1  O    8.298175   0.314137  -0.089470  -0.079075   0.003428  -0.000014
     2  N    0.314137   5.687839   0.306286   0.263858  -0.045075   0.000892
     3  O   -0.089470   0.306286   8.330696  -0.086506   0.007862   0.000449
     4  C   -0.079075   0.263858  -0.086506   5.246075   0.563319  -0.048776
     5  C    0.003428  -0.045075   0.007862   0.563319   4.675060   0.308767
     6  N   -0.000014   0.000892   0.000449  -0.048776   0.308767   7.190735
     7  C    0.000003  -0.000093   0.000002   0.003534  -0.029700   0.198821
     8  H   -0.000000   0.000002  -0.000000  -0.000142   0.002163  -0.050312
     9  C   -0.000000  -0.000003   0.000000   0.000414   0.001790  -0.055998
    10  C   -0.000000   0.000000  -0.000000  -0.000016  -0.000065   0.003329
    11  C   -0.000000  -0.000000  -0.000000  -0.000017   0.000014  -0.000154
    12  C   -0.000000   0.000002  -0.000000  -0.000081  -0.000112   0.003596
    13  C   -0.000020  -0.000032  -0.000002  -0.010368   0.000530  -0.044241
    14  H   -0.000003  -0.000042   0.000000   0.003111   0.004920  -0.005528
    15  N    0.000100   0.001687  -0.000015  -0.061314  -0.003658   0.001863
    16  C    0.004090  -0.028660   0.001904   0.320134  -0.041481  -0.001560
    17  H    0.000125  -0.003714   0.011564  -0.028732   0.378844  -0.033924
    18  H    0.000000  -0.000036   0.000008   0.000940  -0.024182   0.327975
    19  H    0.000000   0.000001  -0.000000  -0.000679   0.000581   0.000687
    20  H    0.000000  -0.000000   0.000000  -0.000025   0.000031  -0.001776
    21  H   -0.000000  -0.000000   0.000000   0.000000   0.000001  -0.000059
    22  H   -0.000000   0.000000  -0.000000  -0.000000  -0.000002  -0.000098
    23  H    0.000000  -0.000000   0.000000   0.000025  -0.000000  -0.000024
    24  H    0.000000   0.000000   0.000000   0.000000  -0.000000   0.000004
    25  H    0.000000  -0.000000   0.000000   0.000020  -0.000001  -0.000071
    26  H    0.000000  -0.000000   0.000000   0.000006  -0.000001  -0.000068
    27  H    0.004832  -0.000450  -0.000023  -0.066035   0.002363   0.000040
               7          8          9         10         11         12
     1  O    0.000003  -0.000000  -0.000000  -0.000000  -0.000000  -0.000000
     2  N   -0.000093   0.000002  -0.000003   0.000000  -0.000000   0.000002
     3  O    0.000002  -0.000000   0.000000  -0.000000  -0.000000  -0.000000
     4  C    0.003534  -0.000142   0.000414  -0.000016  -0.000017  -0.000081
     5  C   -0.029700   0.002163   0.001790  -0.000065   0.000014  -0.000112
     6  N    0.198821  -0.050312  -0.055998   0.003329  -0.000154   0.003596
     7  C    5.000559   0.417070   0.340523  -0.049335  -0.007665  -0.064092
     8  H    0.417070   0.547917  -0.060739   0.001489  -0.000332  -0.002841
     9  C    0.340523  -0.060739   5.181598   0.317832  -0.053053  -0.006227
    10  C   -0.049335   0.001489   0.317832   5.126936   0.332728  -0.060122
    11  C   -0.007665  -0.000332  -0.053053   0.332728   5.124003   0.330612
    12  C   -0.064092  -0.002841  -0.006227  -0.060122   0.330612   5.137137
    13  C    0.333213  -0.040636  -0.049965  -0.001815  -0.047867   0.368020
    14  H   -0.040083  -0.000943   0.003861  -0.000391   0.003948  -0.040811
    15  N   -0.058010   0.004068  -0.012879   0.001478  -0.007743  -0.074048
    16  C   -0.002310   0.000009  -0.000903  -0.000023   0.000002   0.002535
    17  H    0.001445  -0.000018  -0.000065   0.000001   0.000000   0.000001
    18  H   -0.028392  -0.002546   0.000792  -0.000121   0.000011  -0.000135
    19  H   -0.034949   0.004112   0.385830  -0.032608  -0.002273   0.000636
    20  H   -0.041540  -0.001852   0.397280  -0.037384   0.004139  -0.000360
    21  H    0.004039  -0.000080  -0.035836   0.400151  -0.035850   0.004209
    22  H   -0.004208   0.003509  -0.045660   0.395966  -0.045613  -0.001237
    23  H    0.000425   0.000034  -0.002006  -0.040109   0.396708  -0.036678
    24  H   -0.000140  -0.000098   0.004391  -0.038464   0.400306  -0.037848
    25  H    0.004971  -0.000004  -0.000370   0.004096  -0.033935   0.395475
    26  H   -0.004462   0.001624   0.001031  -0.002397  -0.042281   0.394686
    27  H   -0.000398   0.000009  -0.000060   0.000005   0.000005  -0.000018
              13         14         15         16         17         18
     1  O   -0.000020  -0.000003   0.000100   0.004090   0.000125   0.000000
     2  N   -0.000032  -0.000042   0.001687  -0.028660  -0.003714  -0.000036
     3  O   -0.000002   0.000000  -0.000015   0.001904   0.011564   0.000008
     4  C   -0.010368   0.003111  -0.061314   0.320134  -0.028732   0.000940
     5  C    0.000530   0.004920  -0.003658  -0.041481   0.378844  -0.024182
     6  N   -0.044241  -0.005528   0.001863  -0.001560  -0.033924   0.327975
     7  C    0.333213  -0.040083  -0.058010  -0.002310   0.001445  -0.028392
     8  H   -0.040636  -0.000943   0.004068   0.000009  -0.000018  -0.002546
     9  C   -0.049965   0.003861  -0.012879  -0.000903  -0.000065   0.000792
    10  C   -0.001815  -0.000391   0.001478  -0.000023   0.000001  -0.000121
    11  C   -0.047867   0.003948  -0.007743   0.000002   0.000000   0.000011
    12  C    0.368020  -0.040811  -0.074048   0.002535   0.000001  -0.000135
    13  C    5.025117   0.402103   0.238802  -0.069294  -0.000041   0.003676
    14  H    0.402103   0.519121  -0.035612  -0.005105   0.000063   0.000016
    15  N    0.238802  -0.035612   6.933561   0.587645  -0.000059  -0.000121
    16  C   -0.069294  -0.005105   0.587645   4.698940   0.001574  -0.000209
    17  H   -0.000041   0.000063  -0.000059   0.001574   0.387408  -0.001798
    18  H    0.003676   0.000016  -0.000121  -0.000209  -0.001798   0.324745
    19  H   -0.006360   0.000065   0.006994   0.002482   0.000010  -0.000122
    20  H    0.003857  -0.000049   0.000077  -0.000030  -0.000001   0.002904
    21  H   -0.000373   0.000009  -0.000029   0.000002  -0.000000  -0.000000
    22  H    0.000320  -0.000044   0.000003  -0.000001   0.000000   0.000002
    23  H   -0.005852   0.000007   0.006738   0.000064   0.000000   0.000000
    24  H    0.004136  -0.000058   0.000043   0.000005   0.000000  -0.000000
    25  H   -0.034530  -0.002650   0.000756  -0.000062  -0.000000   0.000002
    26  H   -0.044751  -0.000903   0.004184  -0.000056   0.000000  -0.000001
    27  H    0.004890  -0.000176  -0.040129   0.402292  -0.000056   0.000002
              19         20         21         22         23         24
     1  O    0.000000   0.000000  -0.000000  -0.000000   0.000000   0.000000
     2  N    0.000001  -0.000000  -0.000000   0.000000  -0.000000   0.000000
     3  O   -0.000000   0.000000   0.000000  -0.000000   0.000000   0.000000
     4  C   -0.000679  -0.000025   0.000000  -0.000000   0.000025   0.000000
     5  C    0.000581   0.000031   0.000001  -0.000002  -0.000000  -0.000000
     6  N    0.000687  -0.001776  -0.000059  -0.000098  -0.000024   0.000004
     7  C   -0.034949  -0.041540   0.004039  -0.004208   0.000425  -0.000140
     8  H    0.004112  -0.001852  -0.000080   0.003509   0.000034  -0.000098
     9  C    0.385830   0.397280  -0.035836  -0.045660  -0.002006   0.004391
    10  C   -0.032608  -0.037384   0.400151   0.395966  -0.040109  -0.038464
    11  C   -0.002273   0.004139  -0.035850  -0.045613   0.396708   0.400306
    12  C    0.000636  -0.000360   0.004209  -0.001237  -0.036678  -0.037848
    13  C   -0.006360   0.003857  -0.000373   0.000320  -0.005852   0.004136
    14  H    0.000065  -0.000049   0.000009  -0.000044   0.000007  -0.000058
    15  N    0.006994   0.000077  -0.000029   0.000003   0.006738   0.000043
    16  C    0.002482  -0.000030   0.000002  -0.000001   0.000064   0.000005
    17  H    0.000010  -0.000001  -0.000000   0.000000   0.000000   0.000000
    18  H   -0.000122   0.002904  -0.000000   0.000002   0.000000  -0.000000
    19  H    0.507232  -0.024004  -0.002592   0.003759   0.001645  -0.000070
    20  H   -0.024004   0.549930  -0.002610  -0.002964  -0.000049  -0.000090
    21  H   -0.002592  -0.002610   0.526132  -0.024693  -0.002817  -0.002058
    22  H    0.003759  -0.002964  -0.024693   0.568732   0.004063  -0.003592
    23  H    0.001645  -0.000049  -0.002817   0.004063   0.509858  -0.024977
    24  H   -0.000070  -0.000090  -0.002058  -0.003592  -0.024977   0.540871
    25  H   -0.000027   0.000011  -0.000086  -0.000082  -0.002093  -0.002378
    26  H    0.000023  -0.000035  -0.000074   0.002464   0.003821  -0.002764
    27  H    0.000075  -0.000000  -0.000000   0.000000  -0.000021  -0.000000
              25         26         27
     1  O    0.000000   0.000000   0.004832
     2  N   -0.000000  -0.000000  -0.000450
     3  O    0.000000   0.000000  -0.000023
     4  C    0.000020   0.000006  -0.066035
     5  C   -0.000001  -0.000001   0.002363
     6  N   -0.000071  -0.000068   0.000040
     7  C    0.004971  -0.004462  -0.000398
     8  H   -0.000004   0.001624   0.000009
     9  C   -0.000370   0.001031  -0.000060
    10  C    0.004096  -0.002397   0.000005
    11  C   -0.033935  -0.042281   0.000005
    12  C    0.395475   0.394686  -0.000018
    13  C   -0.034530  -0.044751   0.004890
    14  H   -0.002650  -0.000903  -0.000176
    15  N    0.000756   0.004184  -0.040129
    16  C   -0.000062  -0.000056   0.402292
    17  H   -0.000000   0.000000  -0.000056
    18  H    0.000002  -0.000001   0.000002
    19  H   -0.000027   0.000023   0.000075
    20  H    0.000011  -0.000035  -0.000000
    21  H   -0.000086  -0.000074  -0.000000
    22  H   -0.000082   0.002464   0.000000
    23  H   -0.002093   0.003821  -0.000021
    24  H   -0.002378  -0.002764  -0.000000
    25  H    0.510308  -0.023082  -0.000010
    26  H   -0.023082   0.560588   0.000001
    27  H   -0.000010   0.000001   0.456702
 Mulliken charges:
               1
     1  O   -0.456308
     2  N    0.503400
     3  O   -0.482756
     4  C   -0.019672
     5  C    0.194606
     6  N   -0.794559
     7  C    0.060773
     8  H    0.178537
     9  C   -0.311579
    10  C   -0.321160
    11  C   -0.315694
    12  C   -0.312298
    13  C   -0.028516
    14  H    0.195175
    15  N   -0.494381
    16  C    0.128014
    17  H    0.287373
    18  H    0.396586
    19  H    0.189553
    20  H    0.154542
    21  H    0.172614
    22  H    0.149378
    23  H    0.191239
    24  H    0.162780
    25  H    0.183742
    26  H    0.152446
    27  H    0.236163
 Sum of Mulliken charges =  -0.00000
 Mulliken charges with hydrogens summed into heavy atoms:
               1
     1  O   -0.456308
     2  N    0.503400
     3  O   -0.482756
     4  C   -0.019672
     5  C    0.481980
     6  N   -0.397973
     7  C    0.239310
     9  C    0.032517
    10  C    0.000832
    11  C    0.038325
    12  C    0.023891
    13  C    0.166659
    15  N   -0.494381
    16  C    0.364177
 Electronic spatial extent (au):  <R**2>=           3120.2973
 Charge=             -0.0000 electrons
 Dipole moment (field-independent basis, Debye):
    X=              5.3405    Y=              4.4820    Z=              0.4362  Tot=              6.9856
 Quadrupole moment (field-independent basis, Debye-Ang):
   XX=           -105.2750   YY=            -80.4074   ZZ=            -82.1603
   XY=             -1.9360   XZ=              1.3026   YZ=              0.2984
 Traceless Quadrupole moment (field-independent basis, Debye-Ang):
   XX=            -15.9941   YY=              8.8735   ZZ=              7.1206
   XY=             -1.9360   XZ=              1.3026   YZ=              0.2984
 Octapole moment (field-independent basis, Debye-Ang**2):
  XXX=            100.1322  YYY=             37.0951  ZZZ=             -5.4099  XYY=             -1.0792
  XXY=             11.9329  XXZ=             -2.4770  XZZ=             -8.6958  YZZ=             -2.9636
  YYZ=              0.1270  XYZ=             -2.6957
 Hexadecapole moment (field-independent basis, Debye-Ang**3):
 XXXX=          -3548.0683 YYYY=           -622.6457 ZZZZ=           -297.1066 XXXY=            -44.2369
 XXXZ=             43.0551 YYYX=            -24.2679 YYYZ=             13.6263 ZZZX=             29.2351
 ZZZY=             11.6702 XXYY=           -656.7839 XXZZ=           -541.1912 YYZZ=           -164.4318
 XXYZ=              7.1995 YYXZ=             14.3277 ZZXY=              2.0530
 N-N= 9.178073369649D+02 E-N=-3.381627602890D+03  KE= 6.588608709245D+02
 Calling FoFJK, ICntrl=  10002127 FMM=F ISym2X=0 I1Cent= 0 IOpClX= 0 NMat=1 NMatS=1 NMatT=0.
 -------------------------------------------------------------------
 Center     Atomic                   Forces (Hartrees/Bohr)
 Number     Number              X              Y              Z
 -------------------------------------------------------------------
      1        8           0.002774981   -0.019643927   -0.001150258
      2        7           0.038114752    0.014985000   -0.008737625
      3        8          -0.005733644    0.015657809    0.004463066
      4        6          -0.002222615    0.008229773    0.015808226
      5        6           0.002615861   -0.016664128   -0.006065605
      6        7           0.015333121   -0.010174469   -0.006169524
      7        6          -0.004683707    0.005374221    0.002554446
      8        1          -0.009942351   -0.001732591   -0.007724972
      9        6          -0.003846262    0.000078171   -0.002075829
     10        6           0.002846909   -0.000853428    0.000972053
     11        6          -0.001060029   -0.004580810   -0.002435669
     12        6           0.000817356   -0.008782773   -0.002880140
     13        6           0.009071178   -0.001553329    0.004636872
     14        1           0.000915631    0.004486495   -0.009910567
     15        7          -0.000440065    0.000988827    0.000859943
     16        6          -0.020897192    0.006842614    0.003744794
     17        1           0.007032252   -0.005675144   -0.006901657
     18        1          -0.017363348   -0.001648402    0.006470317
     19        1           0.003041762    0.005883435    0.007713086
     20        1          -0.003312871   -0.007343950    0.002553262
     21        1          -0.004439601    0.002380652    0.009580989
     22        1          -0.003920920   -0.003956755   -0.007463262
     23        1           0.003919557    0.006089095    0.009336029
     24        1          -0.009355727    0.002644046   -0.002218576
     25        1          -0.000715905    0.010587203   -0.002388636
     26        1          -0.004776013   -0.004783685   -0.004440652
     27        1           0.006226892    0.003166052    0.001869890
 -------------------------------------------------------------------
 Cartesian Forces:  Max     0.038114752 RMS     0.008522248

 GradGradGradGradGradGradGradGradGradGradGradGradGradGradGradGradGradGrad
 Berny optimization.
 FormGI is forming the generalized inverse of G from B-inverse, IUseBI=4.
 Internal  Forces:  Max     0.036942092 RMS     0.006802172
 Search for a local minimum.
 Step number   1 out of a maximum of   20
 All quantities printed in internal units (Hartrees-Bohrs-Radians)
 Mixed Optimization -- RFO/linear search
 Second derivative matrix not updated -- first step.
 ITU=  0
     Eigenvalues ---    0.00238   0.00770   0.01115   0.01185   0.01440
     Eigenvalues ---    0.01530   0.01610   0.01969   0.02017   0.02089
     Eigenvalues ---    0.02688   0.03658   0.04505   0.04693   0.04838
     Eigenvalues ---    0.05081   0.05138   0.05304   0.05893   0.06265
     Eigenvalues ---    0.07216   0.07701   0.07725   0.07871   0.07993
     Eigenvalues ---    0.08050   0.08058   0.10459   0.11739   0.12268
     Eigenvalues ---    0.13469   0.15272   0.15768   0.15993   0.16000
     Eigenvalues ---    0.20081   0.21891   0.23149   0.24973   0.25000
     Eigenvalues ---    0.25000   0.25366   0.26197   0.26652   0.27981
     Eigenvalues ---    0.28084   0.28466   0.29748   0.31459   0.31620
     Eigenvalues ---    0.32044   0.32238   0.32289   0.32380   0.32388
     Eigenvalues ---    0.32406   0.32516   0.32526   0.32580   0.33349
     Eigenvalues ---    0.33384   0.33600   0.35348   0.43882   0.44280
     Eigenvalues ---    0.49139   0.66937   0.90441   0.911601000.00000
     Eigenvalues --- 1000.000001000.000001000.000001000.000001000.00000
     Eigenvalues --- 1000.000001000.000001000.000001000.000001000.00000
     Eigenvalues --- 1000.000001000.000001000.000001000.000001000.00000
     Eigenvalues --- 1000.000001000.000001000.000001000.000001000.00000
     Eigenvalues --- 1000.000001000.000001000.000001000.000001000.00000
     Eigenvalues --- 1000.000001000.000001000.000001000.000001000.00000
     Eigenvalues --- 1000.000001000.000001000.000001000.000001000.00000
     Eigenvalues --- 1000.000001000.000001000.000001000.000001000.00000
     Eigenvalues --- 1000.000001000.000001000.000001000.000001000.00000
     Eigenvalues --- 1000.000001000.000001000.000001000.000001000.00000
     Eigenvalues --- 1000.000001000.000001000.000001000.000001000.00000
     Eigenvalues --- 1000.000001000.000001000.000001000.000001000.00000
     Eigenvalues --- 1000.000001000.000001000.000001000.000001000.00000
     Eigenvalues --- 1000.000001000.000001000.000001000.000001000.00000
     Eigenvalues --- 1000.000001000.000001000.000001000.000001000.00000
     Eigenvalues --- 1000.000001000.000001000.000001000.000001000.00000
     Eigenvalues --- 1000.000001000.000001000.000001000.000001000.00000
     Eigenvalues --- 1000.000001000.000001000.000001000.000001000.00000
     Eigenvalues --- 1000.000001000.00000
 RFO step:  Lambda=-2.38483054D-02 EMin= 2.37525762D-03
 Linear search not attempted -- first point.
 Iteration  1 RMS(Cart)=  0.05556969 RMS(Int)=  0.00124221
 Iteration  2 RMS(Cart)=  0.00132838 RMS(Int)=  0.00031952
 Iteration  3 RMS(Cart)=  0.00000141 RMS(Int)=  0.00031951
 Iteration  4 RMS(Cart)=  0.00000000 RMS(Int)=  0.00031951
 Iteration  1 RMS(Cart)=  0.00001902 RMS(Int)=  0.00001649
 Iteration  2 RMS(Cart)=  0.00001245 RMS(Int)=  0.00001786
 Iteration  3 RMS(Cart)=  0.00000867 RMS(Int)=  0.00002026
 Iteration  4 RMS(Cart)=  0.00000644 RMS(Int)=  0.00002260
 Iteration  5 RMS(Cart)=  0.00000504 RMS(Int)=  0.00002466
 Iteration  6 RMS(Cart)=  0.00000409 RMS(Int)=  0.00002643
 Iteration  7 RMS(Cart)=  0.00000338 RMS(Int)=  0.00002794
 Iteration  8 RMS(Cart)=  0.00000282 RMS(Int)=  0.00002923
 Iteration  9 RMS(Cart)=  0.00000237 RMS(Int)=  0.00003033
 Iteration 10 RMS(Cart)=  0.00000200 RMS(Int)=  0.00003127
 Iteration 11 RMS(Cart)=  0.00000168 RMS(Int)=  0.00003207
 Iteration 12 RMS(Cart)=  0.00000142 RMS(Int)=  0.00003275
 Iteration 13 RMS(Cart)=  0.00000119 RMS(Int)=  0.00003333
 Iteration 14 RMS(Cart)=  0.00000101 RMS(Int)=  0.00003382
 Iteration 15 RMS(Cart)=  0.00000085 RMS(Int)=  0.00003424
 Variable       Old X    -DE/DX   Delta X   Delta X   Delta X     New X
                                 (Linear)    (Quad)   (Total)
    R1        2.32403   0.01810   0.00000   0.01935   0.01935   2.34337
    R2        2.32731   0.01604   0.00000   0.01728   0.01728   2.34459
    R3        2.88464  -0.03694   0.00000  -0.11488  -0.11488   2.76976
    R4        2.64453  -0.03460   0.00000  -0.07440  -0.07417   2.57036
    R5        2.80905  -0.02092   0.00000  -0.05985  -0.05964   2.74941
    R6        2.59057  -0.02355   0.00000  -0.04549  -0.04543   2.54514
    R7        2.08382  -0.01036   0.00000  -0.02896  -0.02896   2.05486
    R8        2.82457  -0.01945   0.00000  -0.05401  -0.05414   2.77043
    R9        1.93296  -0.00663   0.00000  -0.01432  -0.01432   1.91864
   R10        2.11845  -0.01184   0.00000  -0.03499  -0.03499   2.08346
   R11        2.92730  -0.01296   0.00000  -0.04432  -0.04434   2.88296
   R12        2.90294  -0.00464   0.00000  -0.00988  -0.00993   2.89301
   R13        2.91137  -0.00466   0.00000  -0.01435  -0.01437   2.89700
   R14        2.09911  -0.00995   0.00000  -0.02851  -0.02851   2.07060
   R15        2.09893  -0.00803   0.00000  -0.02299  -0.02299   2.07593
   R16        2.90430  -0.00184   0.00000  -0.00710  -0.00716   2.89714
   R17        2.10139  -0.01057   0.00000  -0.03040  -0.03040   2.07099
   R18        2.10318  -0.00902   0.00000  -0.02601  -0.02601   2.07717
   R19        2.91769  -0.00907   0.00000  -0.02857  -0.02856   2.88914
   R20        2.10411  -0.01166   0.00000  -0.03369  -0.03369   2.07042
   R21        2.10108  -0.00995   0.00000  -0.02859  -0.02859   2.07249
   R22        2.93533  -0.01055   0.00000  -0.03642  -0.03640   2.89892
   R23        2.10154  -0.01072   0.00000  -0.03083  -0.03083   2.07070
   R24        2.09795  -0.00788   0.00000  -0.02253  -0.02253   2.07543
   R25        2.10763  -0.00919   0.00000  -0.02669  -0.02669   2.08094
   R26        2.76824  -0.00519   0.00000  -0.01113  -0.01137   2.75687
   R27        2.44297  -0.00629   0.00000  -0.00864  -0.00863   2.43434
   R28        2.08010  -0.00606   0.00000  -0.01683  -0.01683   2.06327
    A1        2.15969   0.01072   0.00000   0.04046   0.03868   2.19836
    A2        2.05428  -0.00816   0.00000  -0.02849  -0.03027   2.02401
    A3        2.06824  -0.00240   0.00000  -0.00746  -0.00925   2.05900
    A4        2.03037  -0.00639   0.00000  -0.02149  -0.02172   2.00865
    A5        2.03344  -0.00384   0.00000  -0.01214  -0.01237   2.02107
    A6        2.21829   0.01032   0.00000   0.03369   0.03414   2.25243
    A7        2.19946   0.00595   0.00000   0.02001   0.02019   2.21966
    A8        2.06430  -0.00322   0.00000  -0.01096  -0.01125   2.05305
    A9        2.01873  -0.00267   0.00000  -0.00801  -0.00830   2.01043
   A10        2.25156  -0.00541   0.00000  -0.01782  -0.01791   2.23365
   A11        2.11798  -0.01237   0.00000  -0.07141  -0.07173   2.04625
   A12        1.87743   0.01794   0.00000   0.09639   0.09650   1.97392
   A13        1.83785  -0.00154   0.00000  -0.01735  -0.01718   1.82067
   A14        2.00696  -0.00110   0.00000  -0.01116  -0.01121   1.99574
   A15        1.96708   0.00099   0.00000   0.00034  -0.00003   1.96705
   A16        1.85180   0.00268   0.00000   0.02421   0.02406   1.87585
   A17        1.84901   0.00075   0.00000   0.01692   0.01675   1.86576
   A18        1.93708  -0.00146   0.00000  -0.00886  -0.00858   1.92850
   A19        1.91019   0.00018   0.00000  -0.00465  -0.00478   1.90541
   A20        1.92252  -0.00074   0.00000  -0.01280  -0.01277   1.90975
   A21        1.92288  -0.00166   0.00000  -0.00722  -0.00722   1.91566
   A22        1.91916  -0.00041   0.00000   0.00580   0.00577   1.92493
   A23        1.90441   0.00305   0.00000   0.02441   0.02441   1.92882
   A24        1.88448  -0.00039   0.00000  -0.00512  -0.00537   1.87911
   A25        1.94043  -0.00089   0.00000   0.00541   0.00529   1.94572
   A26        1.91898  -0.00068   0.00000  -0.00664  -0.00666   1.91233
   A27        1.90497   0.00031   0.00000  -0.00292  -0.00297   1.90200
   A28        1.91614   0.00080   0.00000   0.00710   0.00715   1.92329
   A29        1.89847   0.00170   0.00000   0.01110   0.01113   1.90960
   A30        1.88381  -0.00123   0.00000  -0.01453  -0.01462   1.86919
   A31        1.94471   0.00058   0.00000   0.00479   0.00493   1.94964
   A32        1.90238   0.00066   0.00000   0.00599   0.00594   1.90832
   A33        1.91750   0.00038   0.00000   0.00529   0.00527   1.92277
   A34        1.90644  -0.00111   0.00000  -0.01389  -0.01394   1.89250
   A35        1.91538  -0.00046   0.00000   0.00010   0.00001   1.91539
   A36        1.87606  -0.00008   0.00000  -0.00266  -0.00269   1.87338
   A37        1.94816  -0.00291   0.00000  -0.01765  -0.01770   1.93046
   A38        1.90597   0.00254   0.00000   0.01710   0.01695   1.92292
   A39        1.91063   0.00136   0.00000   0.01286   0.01285   1.92348
   A40        1.90606   0.00016   0.00000  -0.00287  -0.00270   1.90336
   A41        1.91124  -0.00022   0.00000  -0.00509  -0.00503   1.90620
   A42        1.88053  -0.00086   0.00000  -0.00388  -0.00407   1.87646
   A43        1.84653   0.00451   0.00000   0.02339   0.02346   1.86999
   A44        1.93909  -0.00435   0.00000  -0.03171  -0.03213   1.90696
   A45        1.98282   0.00102   0.00000   0.01365   0.01387   1.99669
   A46        1.88030   0.00228   0.00000   0.03026   0.03056   1.91085
   A47        1.89199  -0.00395   0.00000  -0.02873  -0.02884   1.86315
   A48        1.91848   0.00069   0.00000  -0.00457  -0.00440   1.91408
   A49        2.08287  -0.00613   0.00000  -0.01240  -0.01289   2.06998
   A50        2.25207  -0.00490   0.00000  -0.01881  -0.01915   2.23292
   A51        1.97624   0.00609   0.00000   0.02937   0.02875   2.00499
   A52        2.05484  -0.00117   0.00000  -0.01006  -0.01066   2.04418
    D1       -2.95097  -0.00007   0.00000  -0.00222  -0.00224  -2.95321
    D2        0.14412   0.00214   0.00000   0.00000  -0.00000   0.14412
    D3        0.23624  -0.00393   0.00000  -0.10876  -0.10871   0.12753
    D4       -2.95185  -0.00172   0.00000  -0.10653  -0.10648  -3.05833
    D5        3.02665   0.00123   0.00000   0.00421   0.00427   3.03092
    D6       -0.07303  -0.00019   0.00000  -0.02685  -0.02690  -0.09993
    D7       -0.06277  -0.00074   0.00000   0.00336   0.00342  -0.05935
    D8        3.12074  -0.00216   0.00000  -0.02770  -0.02775   3.09299
    D9       -2.62525  -0.00237   0.00000  -0.03730  -0.03736  -2.66261
   D10        0.50634   0.00032   0.00000   0.02469   0.02489   0.53123
   D11        0.46409  -0.00046   0.00000  -0.03669  -0.03674   0.42735
   D12       -2.68750   0.00223   0.00000   0.02530   0.02551  -2.66199
   D13       -0.17910   0.00006   0.00000   0.01763   0.01807  -0.16103
   D14        2.63947   0.00371   0.00000   0.06436   0.06349   2.70296
   D15        2.92154   0.00143   0.00000   0.04789   0.04850   2.97004
   D16       -0.54308   0.00508   0.00000   0.09462   0.09392  -0.44916
   D17       -0.03292   0.00106   0.00000   0.00000   0.00000  -0.03291
   D18       -2.45870  -0.00079   0.00000  -0.02141  -0.02108  -2.47978
   D19        1.79282  -0.00247   0.00000  -0.03374  -0.03339   1.75943
   D20       -0.45101  -0.00031   0.00000  -0.01129  -0.01127  -0.46228
   D21        0.97122  -0.00010   0.00000  -0.04087  -0.04132   0.92991
   D22       -1.06044  -0.00178   0.00000  -0.05319  -0.05363  -1.11407
   D23        2.97892   0.00038   0.00000  -0.03074  -0.03151   2.94741
   D24        2.94437   0.00236   0.00000   0.02566   0.02553   2.96990
   D25       -1.22680   0.00151   0.00000   0.02178   0.02167  -1.20513
   D26        0.85035  -0.00048   0.00000   0.00297   0.00294   0.85329
   D27        0.92069   0.00310   0.00000   0.03720   0.03719   0.95788
   D28        3.03271   0.00225   0.00000   0.03331   0.03333   3.06603
   D29       -1.17333   0.00026   0.00000   0.01451   0.01460  -1.15873
   D30       -1.08012   0.00145   0.00000   0.00819   0.00818  -1.07194
   D31        1.03190   0.00059   0.00000   0.00431   0.00432   1.03621
   D32        3.10905  -0.00139   0.00000  -0.01449  -0.01441   3.09464
   D33       -2.90040  -0.00105   0.00000  -0.01230  -0.01206  -2.91246
   D34       -0.86454   0.00202   0.00000   0.02086   0.02071  -0.84383
   D35        1.30938   0.00026   0.00000   0.00000  -0.00001   1.30937
   D36       -0.89945  -0.00196   0.00000  -0.02287  -0.02276  -0.92221
   D37        1.13641   0.00112   0.00000   0.01028   0.01002   1.14642
   D38       -2.97286  -0.00064   0.00000  -0.01058  -0.01070  -2.98356
   D39        1.10310   0.00090   0.00000   0.01067   0.01078   1.11388
   D40        3.13896   0.00397   0.00000   0.04383   0.04356  -3.10067
   D41       -0.97031   0.00222   0.00000   0.02297   0.02284  -0.94748
   D42        0.95665   0.00063   0.00000   0.00000   0.00000   0.95665
   D43        3.08233   0.00059   0.00000   0.00806   0.00802   3.09035
   D44       -1.13761  -0.00112   0.00000  -0.01527  -0.01524  -1.15285
   D45       -1.15741   0.00169   0.00000   0.01513   0.01520  -1.14221
   D46        0.96827   0.00165   0.00000   0.02319   0.02321   0.99149
   D47        3.03152  -0.00006   0.00000  -0.00013  -0.00004   3.03148
   D48        3.06194   0.00058   0.00000   0.00333   0.00330   3.06524
   D49       -1.09556   0.00054   0.00000   0.01139   0.01131  -1.08425
   D50        0.96769  -0.00117   0.00000  -0.01193  -0.01195   0.95574
   D51       -0.92192  -0.00080   0.00000   0.00000   0.00000  -0.92192
   D52        1.18324  -0.00137   0.00000  -0.01033  -0.01034   1.17290
   D53       -3.04849  -0.00086   0.00000  -0.00697  -0.00701  -3.05550
   D54       -3.04926   0.00011   0.00000  -0.00005  -0.00003  -3.04928
   D55       -0.94410  -0.00047   0.00000  -0.01037  -0.01037  -0.95447
   D56        1.10736   0.00004   0.00000  -0.00701  -0.00704   1.10033
   D57        1.17619   0.00013   0.00000   0.00691   0.00694   1.18313
   D58       -3.00184  -0.00045   0.00000  -0.00342  -0.00340  -3.00524
   D59       -0.95038   0.00006   0.00000  -0.00006  -0.00007  -0.95045
   D60        0.98773  -0.00078   0.00000  -0.01174  -0.01179   0.97594
   D61        3.09701  -0.00075   0.00000  -0.01522  -0.01538   3.08163
   D62       -1.13119   0.00048   0.00000  -0.00250  -0.00248  -1.13367
   D63       -1.11504  -0.00124   0.00000  -0.01310  -0.01309  -1.12814
   D64        0.99423  -0.00121   0.00000  -0.01658  -0.01668   0.97755
   D65        3.04922   0.00002   0.00000  -0.00385  -0.00378   3.04544
   D66        3.11553  -0.00023   0.00000  -0.00178  -0.00178   3.11375
   D67       -1.05838  -0.00020   0.00000  -0.00526  -0.00537  -1.06375
   D68        0.99661   0.00103   0.00000   0.00747   0.00753   1.00414
   D69       -1.05203   0.00001   0.00000   0.00010   0.00017  -1.05185
   D70       -3.12724   0.00157   0.00000   0.00966   0.00929  -3.11795
   D71        1.08063   0.00165   0.00000   0.01403   0.01391   1.09454
   D72        3.12194  -0.00141   0.00000  -0.00806  -0.00790   3.11404
   D73        1.04673   0.00015   0.00000   0.00150   0.00121   1.04793
   D74       -1.02859   0.00024   0.00000   0.00586   0.00583  -1.02275
   D75        1.06655  -0.00034   0.00000   0.00126   0.00144   1.06799
   D76       -1.00866   0.00123   0.00000   0.01081   0.01056  -0.99811
   D77       -3.08398   0.00131   0.00000   0.01518   0.01518  -3.06880
   D78       -1.17217   0.00363   0.00000   0.00000  -0.00001  -1.17218
   D79        3.06386   0.00002   0.00000  -0.01825  -0.01810   3.04576
   D80        1.01281  -0.00082   0.00000  -0.03538  -0.03563   0.97718
   D81        0.13334   0.00188   0.00000   0.03166   0.03119   0.16453
   D82       -2.99787  -0.00095   0.00000  -0.03289  -0.03246  -3.03032
         Item               Value     Threshold  Converged?
 Maximum Force            0.036917     0.000450     NO 
 RMS     Force            0.006894     0.000300     NO 
 Maximum Displacement     0.288232     0.001800     NO 
 RMS     Displacement     0.055816     0.001200     NO 
 Predicted change in Energy=-1.355474D-02
 GradGradGradGradGradGradGradGradGradGradGradGradGradGradGradGradGradGrad

                          Input orientation:                          
 ---------------------------------------------------------------------
 Center     Atomic      Atomic             Coordinates (Angstroms)
 Number     Number       Type             X           Y           Z
 ---------------------------------------------------------------------
      1          8           0       -3.455130   -1.452943   -0.105431
      2          7           0       -3.123224   -0.262001   -0.009284
      3          8           0       -3.885654    0.691028    0.213824
      4          6           0       -1.685785    0.012278   -0.091707
      5          6           0       -1.320332    1.279177    0.242187
      6          7           0       -0.068006    1.759045    0.366143
      7          6           0        1.190991    1.007960    0.356501
      8          1           0        1.816920    1.515363    1.109033
      9          6           0        1.941447    1.055265   -0.970914
     10          6           0        3.337441    0.450591   -0.781855
     11          6           0        3.261907   -0.963485   -0.194421
     12          6           0        2.422880   -1.000999    1.083099
     13          6           0        1.018961   -0.439742    0.823684
     14          1           0        0.439383   -0.452866    1.759915
     15          7           0        0.389283   -1.318418   -0.155983
     16          6           0       -0.845881   -1.116804   -0.461227
     17          1           0       -2.112702    1.995976    0.444065
     18          1           0        0.062568    2.757072    0.232998
     19          1           0        1.382220    0.491469   -1.725888
     20          1           0        2.016003    2.094676   -1.318549
     21          1           0        3.863249    0.433327   -1.743243
     22          1           0        3.918104    1.095795   -0.107495
     23          1           0        2.805972   -1.637315   -0.928221
     24          1           0        4.270424   -1.340910    0.013478
     25          1           0        2.334814   -2.030713    1.447299
     26          1           0        2.907656   -0.411448    1.872791
     27          1           0       -1.323498   -1.850390   -1.113788
 ---------------------------------------------------------------------
                    Distance matrix (angstroms):
                    1          2          3          4          5
     1  O    0.000000
     2  N    1.240060   0.000000
     3  O    2.209952   1.240702   0.000000
     4  C    2.297312   1.465693   2.322386   0.000000
     5  C    3.484634   2.385139   2.632034   1.360174   0.000000
     6  N    4.691679   3.682381   3.967152   2.424464   1.346833
     7  C    5.277865   4.512100   5.088529   3.077029   2.528511
     8  H    6.170922   5.367931   5.830976   3.996246   3.263366
     9  C    6.013585   5.320791   5.957464   3.875259   3.487256
    10  C    7.086607   6.545597   7.295361   5.089323   4.840461
    11  C    6.735434   6.426216   7.347905   5.044037   5.120261
    12  C    6.013971   5.700762   6.589097   4.391813   4.462955
    13  C    4.680526   4.228845   5.070091   2.891006   2.960594
    14  H    4.432482   3.982294   4.733375   2.856781   2.898287
    15  N    3.847098   3.670864   4.738114   2.465925   3.135095
    16  C    2.654762   2.474112   3.600579   1.454926   2.541775
    17  H    3.741537   2.514983   2.213427   2.098659   1.087385
    18  H    5.496631   4.395767   4.456160   3.270484   2.024023
    19  H    5.459539   4.879904   5.617188   3.508963   3.434762
    20  H    6.632537   5.803426   6.256833   4.420945   3.772542
    21  H    7.732988   7.231936   7.996376   5.804879   5.614883
    22  H    7.801323   7.171719   7.820852   5.707698   5.253296
    23  H    6.317624   6.155591   7.176581   4.857653   5.186730
    24  H    7.727281   7.471988   8.407766   6.108896   6.178489
    25  H    6.022312   5.919473   6.900983   4.765246   5.076196
    26  H    6.744117   6.319498   7.079315   5.013830   4.836628
    27  H    2.391360   2.642333   3.845257   2.155327   3.410699
                    6          7          8          9         10
     6  N    0.000000
     7  C    1.466047   0.000000
     8  H    2.040641   1.102520   0.000000
     9  C    2.514146   1.525599   2.133865   0.000000
    10  C    3.824528   2.492741   2.649750   1.533027   0.000000
    11  C    4.337594   2.911838   3.151454   2.534148   1.533100
    12  C    3.786342   2.466052   2.588423   2.946009   2.534085
    13  C    2.495096   1.530913   2.130868   2.511296   2.957328
    14  H    2.663193   2.160671   2.489012   3.462381   3.959238
    15  N    3.154759   2.513446   3.415952   2.950881   3.494673
    16  C    3.091947   3.054856   4.060114   3.570275   4.478807
    17  H    2.059852   3.449381   4.014362   4.395819   5.796132
    18  H    1.015301   2.085182   2.320998   2.806374   4.132139
    19  H    2.843676   2.153990   3.045341   1.095713   2.171580
    20  H    2.700728   2.160414   2.503676   1.098537   2.176523
    21  H    4.654224   3.446751   3.673383   2.162550   1.095920
    22  H    4.068575   2.767698   2.463930   2.157384   1.099190
    23  H    4.633615   3.355020   3.881753   2.828288   2.159452
    24  H    5.343788   3.888157   3.921507   3.483507   2.170827
    25  H    4.615703   3.425158   3.599624   3.940274   3.482996
    26  H    3.979397   2.694587   2.342142   3.342375   2.823999
    27  H    4.098106   4.081001   5.111893   4.372998   5.208555
                   11         12         13         14         15
    11  C    0.000000
    12  C    1.528865   0.000000
    13  C    2.518262   1.534045   0.000000
    14  H    3.470850   2.166285   1.101187   0.000000
    15  N    2.894723   2.402414   1.458874   2.102939   0.000000
    16  C    4.119298   3.617064   2.363693   2.650696   1.288197
    17  H    6.168670   5.473731   3.985492   3.773781   4.195854
    18  H    4.925545   4.518500   3.388690   3.574516   4.107026
    19  H    2.827632   3.346765   2.738507   3.732496   2.593494
    20  H    3.488307   3.939120   3.465044   4.295654   3.955627
    21  H    2.170610   3.481402   3.929546   4.977983   4.201957
    22  H    2.163049   2.837208   3.410277   4.241116   4.275903
    23  H    1.095622   2.144077   2.774303   3.772233   2.557036
    24  H    1.096713   2.161723   3.469949   4.302969   3.884904
    25  H    2.166500   1.095768   2.156746   2.485959   2.619727
    26  H    2.168779   1.098268   2.160693   2.471200   3.358678
    27  H    4.760018   4.425282   3.351245   3.649519   2.033225
                   16         17         18         19         20
    16  C    0.000000
    17  H    3.480487   0.000000
    18  H    4.039077   2.314220   0.000000
    19  H    3.024953   4.380264   3.272869   0.000000
    20  H    4.386227   4.490296   2.581080   1.771406   0.000000
    21  H    5.120779   6.552723   4.873448   2.481771   2.520468
    22  H    5.264624   6.122513   4.211999   3.068405   2.466253
    23  H    3.718205   6.267163   5.308986   2.682361   3.834601
    24  H    5.143165   7.215574   5.877729   3.837282   4.319718
    25  H    3.820278   6.082854   5.436958   4.163887   4.976986
    26  H    4.475959   5.748126   4.563219   4.011571   4.154559
    27  H    1.091834   4.224249   4.996370   3.630410   5.172789
                   21         22         23         24         25
    21  H    0.000000
    22  H    1.765657   0.000000
    23  H    2.463667   3.062730   0.000000
    24  H    2.529779   2.465014   1.766147   0.000000
    25  H    4.311284   3.833959   2.453538   2.505645   0.000000
    26  H    3.834385   2.685949   3.059209   2.485574   1.769522
    27  H    5.702098   6.096476   4.139126   5.729072   4.469333
                   26         27
    26  H    0.000000
    27  H    5.375209   0.000000
 Symmetry turned off by external request.
 Stoichiometry    C9H13N3O2
 Framework group  C1[X(C9H13N3O2)]
 Deg. of freedom    75
 Full point group                 C1      NOp   1
 Rotational constants (GHZ):           1.6878432           0.4229228           0.3725415
 Standard basis: 6-31G(d) (6D, 7F)
   236 basis functions,   444 primitive gaussians,   236 cartesian basis functions
    52 alpha electrons       52 beta electrons
       nuclear repulsion energy       932.2913509368 Hartrees.
 NAtoms=   27 NActive=   27 NUniq=   27 SFac= 1.00D+00 NAtFMM=   60 NAOKFM=F Big=F
 Integral buffers will be    131072 words long.
 Raffenetti 1 integral format.
 Two-electron integral symmetry is turned off.
 One-electron integrals computed using PRISM.
 NBasis=   236 RedAO= T EigKep=  1.02D-03  NBF=   236
 NBsUse=   236 1.00D-06 EigRej= -1.00D+00 NBFU=   236
 Initial guess from the checkpoint file:  "/home/alexey/tmp/Gau-1602283.chk"
 B after Tr=     0.054608    0.004780    0.002725
         Rot=    0.999999   -0.001321   -0.000257    0.000957 Ang=  -0.19 deg.
 ExpMin= 1.61D-01 ExpMax= 5.48D+03 ExpMxC= 8.25D+02 IAcc=3 IRadAn=         5 AccDes= 0.00D+00
 Harris functional with IExCor=  205 and IRadAn=       5 diagonalized for initial guess.
 HarFok:  IExCor=  205 AccDes= 0.00D+00 IRadAn=         5 IDoV= 1 UseB2=F ITyADJ=14
 ICtDFT=  3500011 ScaDFX=  1.000000  1.000000  1.000000  1.000000
 FoFCou: FMM=F IPFlag=           0 FMFlag=      100000 FMFlg1=           0
         NFxFlg=           0 DoJE=T BraDBF=F KetDBF=T FulRan=T
         wScrn=  0.000000 ICntrl=       500 IOpCl=  0 I1Cent=   200000004 NGrid=           0
         NMat0=    1 NMatS0=      1 NMatT0=    0 NMatD0=    1 NMtDS0=    0 NMtDT0=    0
 Symmetry not used in FoFCou.
 Keep R1 ints in memory in canonical form, NReq=397720213.
 Requested convergence on RMS density matrix=1.00D-08 within 128 cycles.
 Requested convergence on MAX density matrix=1.00D-06.
 Requested convergence on             energy=1.00D-06.
 No special actions if energy rises.
 SCF Done:  E(RHF) =  -661.296763315     A.U. after   15 cycles
            NFock= 15  Conv=0.50D-08     -V/T= 2.0025
 ExpMin= 1.61D-01 ExpMax= 5.48D+03 ExpMxC= 8.25D+02 IAcc=3 IRadAn=         5 AccDes= 0.00D+00
 HarFok:  IExCor=  205 AccDes= 0.00D+00 IRadAn=         5 IDoV=-2 UseB2=F ITyADJ=14
 ICtDFT= 12500011 ScaDFX=  1.000000  1.000000  1.000000  1.000000
 Range of M.O.s used for correlation:    15   236
 NBasis=   236 NAE=    52 NBE=    52 NFC=    14 NFV=     0
 NROrb=    222 NOA=    38 NOB=    38 NVA=   184 NVB=   184
 Fully direct method using O(ONN) memory.
 JobTyp=1 Pass  1:  I=  15 to  52 NPSUse=  4 ParTrn=T ParDer=T DoDerP=T.
 Spin components of T(2) and E(2):
     alpha-alpha T2 =       0.9123903190D-01 E2=     -0.2722948537D+00
     alpha-beta  T2 =       0.4915120963D+00 E2=     -0.1488245523D+01
     beta-beta   T2 =       0.9123903190D-01 E2=     -0.2722948537D+00
 ANorm=    0.1293827717D+01
 E2 =    -0.2032835230D+01 EUMP2 =    -0.66332959854531D+03
          IDoAtm=111111111111111111111111111
          Differentiating once with respect to electric field.
                with respect to dipole field.
          Differentiating once with respect to nuclear coordinates.
 Keep R1 ints in memory in canonical form, NReq=397723379.
          There are     1 degrees of freedom in the 1st order CPHF.  IDoFFX=0 NUNeed=     1.
 LinEq1:  Iter=  0 NonCon=     1 RMS=4.57D-03 Max=1.04D-01 NDo=     1
 AX will form     1 AO Fock derivatives at one time.
 LinEq1:  Iter=  1 NonCon=     1 RMS=1.53D-03 Max=2.60D-02 NDo=     1
[...]
                   16         17         18         19         20
    16  C    0.000000
    17  H    3.469330   0.000000
    18  H    4.099946   2.234367   0.000000
    19  H    2.997071   4.317921   3.540907   0.000000
    20  H    4.385403   4.469371   2.922458   1.768409   0.000000
    21  H    5.099566   6.523200   5.112589   2.499432   2.521616
    22  H    5.254544   6.105911   4.326941   3.070283   2.462282
    23  H    3.690402   6.232785   5.428191   2.703797   3.843075
    24  H    5.131550   7.196583   5.939024   3.849313   4.317704
    25  H    3.817788   6.069529   5.351220   4.171332   4.985441
    26  H    4.497083   5.764852   4.464626   4.034892   4.181827
    27  H    1.090070   4.234738   5.103024   3.601813   5.169057
                   21         22         23         24         25
    21  H    0.000000
    22  H    1.758813   0.000000
    23  H    2.469624   3.062452   0.000000
    24  H    2.517237   2.460186   1.764467   0.000000
    25  H    4.312072   3.839552   2.444196   2.519612   0.000000
    26  H    3.846391   2.704021   3.060419   2.492503   1.768219
    27  H    5.661577   6.068860   4.084401   5.688446   4.440924
                   26         27
    26  H    0.000000
    27  H    5.374692   0.000000
 Symmetry turned off by external request.
 Stoichiometry    C9H13N3O2
 Framework group  C1[X(C9H13N3O2)]
 Deg. of freedom    75
 Full point group                 C1      NOp   1
 Rotational constants (GHZ):           1.6782554           0.4209312           0.3723006

 **********************************************************************

            Population analysis using the SCF Density.

 **********************************************************************

 Alpha  occ. eigenvalues --  -20.59296 -20.58963 -15.84722 -15.64022 -15.56170
 Alpha  occ. eigenvalues --  -11.34966 -11.29612 -11.29609 -11.28655 -11.27154
 Alpha  occ. eigenvalues --  -11.23698 -11.23194 -11.22683 -11.22089  -1.57140
 Alpha  occ. eigenvalues --   -1.36754  -1.30883  -1.23066  -1.14701  -1.09825
 Alpha  occ. eigenvalues --   -1.02788  -1.01298  -0.94495  -0.89694  -0.85513
 Alpha  occ. eigenvalues --   -0.82476  -0.78578  -0.77446  -0.75187  -0.71969
 Alpha  occ. eigenvalues --   -0.69894  -0.69348  -0.67759  -0.64935  -0.63804
 Alpha  occ. eigenvalues --   -0.62275  -0.60355  -0.57689  -0.56956  -0.55070
 Alpha  occ. eigenvalues --   -0.54558  -0.50727  -0.50140  -0.48699  -0.48117
 Alpha  occ. eigenvalues --   -0.47419  -0.46074  -0.46067  -0.43678  -0.41758
 Alpha  occ. eigenvalues --   -0.39739  -0.33880
 Alpha virt. eigenvalues --    0.07466   0.11716   0.17291   0.21758   0.24113
 Alpha virt. eigenvalues --    0.25735   0.26981   0.28861   0.29093   0.29630
 Alpha virt. eigenvalues --    0.30568   0.31744   0.31995   0.32754   0.34019
 Alpha virt. eigenvalues --    0.34382   0.35925   0.37354   0.38547   0.40385
 Alpha virt. eigenvalues --    0.41319   0.42289   0.44920   0.46100   0.46727
 Alpha virt. eigenvalues --    0.47069   0.48968   0.53923   0.57717   0.59895
 Alpha virt. eigenvalues --    0.63753   0.69651   0.69912   0.72832   0.74280
 Alpha virt. eigenvalues --    0.74780   0.75730   0.76644   0.78636   0.79605
 Alpha virt. eigenvalues --    0.81560   0.84276   0.85556   0.86051   0.88745
 Alpha virt. eigenvalues --    0.89371   0.91083   0.91888   0.92821   0.94586
 Alpha virt. eigenvalues --    0.95163   0.97907   0.99987   1.02023   1.02417
 Alpha virt. eigenvalues --    1.03005   1.05967   1.06745   1.07977   1.09249
 Alpha virt. eigenvalues --    1.10413   1.10827   1.11863   1.12446   1.13988
 Alpha virt. eigenvalues --    1.14543   1.15000   1.15527   1.16947   1.18793
 Alpha virt. eigenvalues --    1.19059   1.21176   1.22309   1.23190   1.24216
 Alpha virt. eigenvalues --    1.25027   1.26493   1.27023   1.27710   1.29543
 Alpha virt. eigenvalues --    1.30051   1.33482   1.35453   1.37216   1.40883
 Alpha virt. eigenvalues --    1.43341   1.48373   1.48488   1.51189   1.53535
 Alpha virt. eigenvalues --    1.56232   1.58432   1.60387   1.62722   1.64609
 Alpha virt. eigenvalues --    1.67521   1.68088   1.72867   1.75469   1.77788
 Alpha virt. eigenvalues --    1.81808   1.84536   1.87381   1.90672   1.92762
 Alpha virt. eigenvalues --    1.94727   1.96259   1.99369   2.00931   2.03022
 Alpha virt. eigenvalues --    2.04411   2.06733   2.08025   2.09460   2.12732
 Alpha virt. eigenvalues --    2.13078   2.15795   2.18301   2.19946   2.22220
 Alpha virt. eigenvalues --    2.22856   2.24214   2.25059   2.28314   2.29268
 Alpha virt. eigenvalues --    2.32475   2.33930   2.35231   2.36652   2.37716
 Alpha virt. eigenvalues --    2.39773   2.42160   2.43686   2.45536   2.47274
 Alpha virt. eigenvalues --    2.50644   2.52273   2.53452   2.55800   2.60793
 Alpha virt. eigenvalues --    2.62473   2.65451   2.67326   2.69690   2.70482
 Alpha virt. eigenvalues --    2.72153   2.72845   2.77500   2.78464   2.83465
 Alpha virt. eigenvalues --    2.88219   2.89004   2.92869   2.93205   2.96209
 Alpha virt. eigenvalues --    2.99802   3.01055   3.04027   3.05895   3.07768
 Alpha virt. eigenvalues --    3.09346   3.14964   3.21398   3.24231   3.27474
 Alpha virt. eigenvalues --    3.32115   3.36872   3.38837   3.52038   3.66219
 Alpha virt. eigenvalues --    4.12550   4.27071   4.34210   4.39013   4.45623
 Alpha virt. eigenvalues --    4.55841   4.61603   4.62163   4.73608   4.78952
 Alpha virt. eigenvalues --    4.99636   5.00931   5.05746   5.10531
          Condensed to atoms (all electrons):
               1          2          3          4          5          6
     1  O    8.315247   0.308232  -0.082531  -0.086033   0.004341  -0.000017
     2  N    0.308232   5.721714   0.300234   0.264451  -0.053256   0.000938
     3  O   -0.082531   0.300234   8.352067  -0.092362   0.004300   0.000745
     4  C   -0.086033   0.264451  -0.092362   5.221118   0.561789  -0.049464
     5  C    0.004341  -0.053256   0.004300   0.561789   4.712911   0.320093
     6  N   -0.000017   0.000938   0.000745  -0.049464   0.320093   7.190514
     7  C    0.000004  -0.000146   0.000001   0.003613  -0.031250   0.170526
     8  H   -0.000000   0.000003  -0.000000  -0.000183   0.002826  -0.050218
     9  C   -0.000000  -0.000005   0.000000   0.000732   0.000958  -0.061311
    10  C    0.000000   0.000000  -0.000000  -0.000031  -0.000061   0.003708
    11  C   -0.000000  -0.000000  -0.000000  -0.000036   0.000027  -0.000196
    12  C   -0.000000   0.000002  -0.000000  -0.000127  -0.000164   0.003995
    13  C   -0.000026  -0.000041  -0.000003  -0.010880  -0.000611  -0.048713
    14  H   -0.000005  -0.000071   0.000000   0.002906   0.006218  -0.006941
    15  N    0.000292   0.002502  -0.000019  -0.062015  -0.007346   0.001701
    16  C    0.002286  -0.029860   0.002490   0.331178  -0.050864  -0.001039
    17  H    0.000225  -0.006813   0.017055  -0.023746   0.374805  -0.033379
    18  H    0.000001  -0.000053   0.000011   0.001566  -0.031373   0.338903
    19  H    0.000000  -0.000000  -0.000000  -0.001027   0.001063  -0.000400
    20  H    0.000000  -0.000000   0.000000  -0.000087   0.000161  -0.000348
    21  H   -0.000000  -0.000000   0.000000   0.000001   0.000001  -0.000076
    22  H   -0.000000   0.000000  -0.000000   0.000000  -0.000003  -0.000116
    23  H    0.000000  -0.000000   0.000000   0.000042   0.000000  -0.000031
    24  H    0.000000   0.000000   0.000000   0.000000  -0.000000   0.000006
    25  H    0.000000  -0.000000   0.000000   0.000029  -0.000002  -0.000092
    26  H    0.000000  -0.000000   0.000000   0.000005  -0.000001  -0.000062
    27  H    0.004973  -0.001076  -0.000017  -0.063098   0.002583   0.000002
               7          8          9         10         11         12
     1  O    0.000004  -0.000000  -0.000000   0.000000  -0.000000  -0.000000
     2  N   -0.000146   0.000003  -0.000005   0.000000  -0.000000   0.000002
     3  O    0.000001  -0.000000   0.000000  -0.000000  -0.000000  -0.000000
     4  C    0.003613  -0.000183   0.000732  -0.000031  -0.000036  -0.000127
     5  C   -0.031250   0.002826   0.000958  -0.000061   0.000027  -0.000164
     6  N    0.170526  -0.050218  -0.061311   0.003708  -0.000196   0.003995
     7  C    5.019102   0.418236   0.349995  -0.054745  -0.008954  -0.061572
     8  H    0.418236   0.537443  -0.054280   0.000642  -0.000303  -0.002256
     9  C    0.349995  -0.054280   5.156276   0.324998  -0.050501  -0.005167
    10  C   -0.054745   0.000642   0.324998   5.119854   0.336849  -0.061067
    11  C   -0.008954  -0.000303  -0.050501   0.336849   5.120480   0.335911
    12  C   -0.061572  -0.002256  -0.005167  -0.061067   0.335911   5.120197
    13  C    0.338664  -0.037883  -0.060573  -0.000258  -0.050622   0.372137
    14  H   -0.046648  -0.000704   0.004408  -0.000400   0.004195  -0.036571
    15  N   -0.058262   0.003897  -0.014282   0.001586  -0.013227  -0.082805
    16  C   -0.000967  -0.000067  -0.001007  -0.000044   0.000053   0.002461
    17  H    0.001622  -0.000056  -0.000062   0.000001   0.000000   0.000000
    18  H   -0.021466  -0.004561   0.001453  -0.000084   0.000003  -0.000117
    19  H   -0.036794   0.004355   0.390532  -0.032367  -0.002202   0.000683
    20  H   -0.041985  -0.002032   0.399400  -0.035229   0.003918  -0.000417
    21  H    0.004600  -0.000074  -0.036380   0.402471  -0.034897   0.004347
    22  H   -0.004873   0.003554  -0.046885   0.397647  -0.045383  -0.001028
    23  H    0.000594   0.000037  -0.001972  -0.039048   0.399162  -0.037980
    24  H   -0.000130  -0.000102   0.004378  -0.038385   0.402333  -0.038626
    25  H    0.005147  -0.000024  -0.000430   0.004190  -0.033353   0.398113
    26  H   -0.003890   0.001692   0.000957  -0.002235  -0.041465   0.396545
    27  H   -0.000397   0.000008  -0.000053   0.000006   0.000013  -0.000036
              13         14         15         16         17         18
     1  O   -0.000026  -0.000005   0.000292   0.002286   0.000225   0.000001
     2  N   -0.000041  -0.000071   0.002502  -0.029860  -0.006813  -0.000053
     3  O   -0.000003   0.000000  -0.000019   0.002490   0.017055   0.000011
     4  C   -0.010880   0.002906  -0.062015   0.331178  -0.023746   0.001566
     5  C   -0.000611   0.006218  -0.007346  -0.050864   0.374805  -0.031373
     6  N   -0.048713  -0.006941   0.001701  -0.001039  -0.033379   0.338903
     7  C    0.338664  -0.046648  -0.058262  -0.000967   0.001622  -0.021466
     8  H   -0.037883  -0.000704   0.003897  -0.000067  -0.000056  -0.004561
     9  C   -0.060573   0.004408  -0.014282  -0.001007  -0.000062   0.001453
    10  C   -0.000258  -0.000400   0.001586  -0.000044   0.000001  -0.000084
    11  C   -0.050622   0.004195  -0.013227   0.000053   0.000000   0.000003
    12  C    0.372137  -0.036571  -0.082805   0.002461   0.000000  -0.000117
    13  C    5.040488   0.403318   0.244191  -0.069600  -0.000002   0.002939
    14  H    0.403318   0.527517  -0.036909  -0.005405   0.000074  -0.000091
    15  N    0.244191  -0.036909   6.964555   0.585906  -0.000080  -0.000125
    16  C   -0.069600  -0.005405   0.585906   4.699630   0.001816  -0.000173
    17  H   -0.000002   0.000074  -0.000080   0.001816   0.376574  -0.002839
    18  H    0.002939  -0.000091  -0.000125  -0.000173  -0.002839   0.311326
    19  H   -0.007712   0.000109   0.007769   0.002661   0.000012  -0.000142
    20  H    0.004335  -0.000067   0.000127  -0.000037   0.000002   0.000666
    21  H   -0.000431   0.000010  -0.000041   0.000004  -0.000000   0.000001
    22  H    0.000040  -0.000055   0.000021  -0.000002   0.000000   0.000001
    23  H   -0.007605   0.000002   0.008653   0.000135   0.000000   0.000000
    24  H    0.004694  -0.000057   0.000130   0.000006   0.000000  -0.000000
    25  H   -0.035512  -0.002807   0.000531  -0.000027  -0.000000   0.000002
    26  H   -0.047445  -0.001042   0.004939  -0.000052   0.000000  -0.000000
    27  H    0.005097  -0.000173  -0.041292   0.403871  -0.000075   0.000001
              19         20         21         22         23         24
     1  O    0.000000   0.000000  -0.000000  -0.000000   0.000000   0.000000
     2  N   -0.000000  -0.000000  -0.000000   0.000000  -0.000000   0.000000
     3  O   -0.000000   0.000000   0.000000  -0.000000   0.000000   0.000000
     4  C   -0.001027  -0.000087   0.000001   0.000000   0.000042   0.000000
     5  C    0.001063   0.000161   0.000001  -0.000003   0.000000  -0.000000
     6  N   -0.000400  -0.000348  -0.000076  -0.000116  -0.000031   0.000006
     7  C   -0.036794  -0.041985   0.004600  -0.004873   0.000594  -0.000130
     8  H    0.004355  -0.002032  -0.000074   0.003554   0.000037  -0.000102
     9  C    0.390532   0.399400  -0.036380  -0.046885  -0.001972   0.004378
    10  C   -0.032367  -0.035229   0.402471   0.397647  -0.039048  -0.038385
    11  C   -0.002202   0.003918  -0.034897  -0.045383   0.399162   0.402333
    12  C    0.000683  -0.000417   0.004347  -0.001028  -0.037980  -0.038626
    13  C   -0.007712   0.004335  -0.000431   0.000040  -0.007605   0.004694
    14  H    0.000109  -0.000067   0.000010  -0.000055   0.000002  -0.000057
    15  N    0.007769   0.000127  -0.000041   0.000021   0.008653   0.000130
    16  C    0.002661  -0.000037   0.000004  -0.000002   0.000135   0.000006
    17  H    0.000012   0.000002  -0.000000   0.000000   0.000000   0.000000
    18  H   -0.000142   0.000666   0.000001   0.000001   0.000000  -0.000000
    19  H    0.505671  -0.024593  -0.002775   0.003965   0.001528  -0.000067
    20  H   -0.024593   0.539253  -0.002686  -0.002974  -0.000045  -0.000082
    21  H   -0.002775  -0.002686   0.524008  -0.027403  -0.002906  -0.002244
    22  H    0.003965  -0.002974  -0.027403   0.571378   0.004139  -0.003646
    23  H    0.001528  -0.000045  -0.002906   0.004139   0.499244  -0.025430
    24  H   -0.000067  -0.000082  -0.002244  -0.003646  -0.025430   0.537894
    25  H   -0.000028   0.000013  -0.000087  -0.000080  -0.002303  -0.002294
    26  H    0.000020  -0.000030  -0.000081   0.002381   0.004073  -0.003019
    27  H    0.000072   0.000000  -0.000000   0.000000  -0.000035  -0.000000
              25         26         27
     1  O    0.000000   0.000000   0.004973
     2  N   -0.000000  -0.000000  -0.001076
     3  O    0.000000   0.000000  -0.000017
     4  C    0.000029   0.000005  -0.063098
     5  C   -0.000002  -0.000001   0.002583
     6  N   -0.000092  -0.000062   0.000002
     7  C    0.005147  -0.003890  -0.000397
     8  H   -0.000024   0.001692   0.000008
     9  C   -0.000430   0.000957  -0.000053
    10  C    0.004190  -0.002235   0.000006
    11  C   -0.033353  -0.041465   0.000013
    12  C    0.398113   0.396545  -0.000036
    13  C   -0.035512  -0.047445   0.005097
    14  H   -0.002807  -0.001042  -0.000173
    15  N    0.000531   0.004939  -0.041292
    16  C   -0.000027  -0.000052   0.403871
    17  H   -0.000000   0.000000  -0.000075
    18  H    0.000002  -0.000000   0.000001
    19  H   -0.000028   0.000020   0.000072
    20  H    0.000013  -0.000030   0.000000
    21  H   -0.000087  -0.000081  -0.000000
    22  H   -0.000080   0.002381   0.000000
    23  H   -0.002303   0.004073  -0.000035
    24  H   -0.002294  -0.003019  -0.000000
    25  H    0.505750  -0.024035  -0.000014
    26  H   -0.024035   0.562669   0.000001
    27  H   -0.000014   0.000001   0.446912
 Mulliken charges:
               1
     1  O   -0.466988
     2  N    0.493245
     3  O   -0.501973
     4  C    0.001661
     5  C    0.182856
     6  N   -0.778729
     7  C    0.059976
     8  H    0.180051
     9  C   -0.301179
    10  C   -0.328000
    11  C   -0.321804
    12  C   -0.306458
    13  C   -0.037985
    14  H    0.189189
    15  N   -0.510397
    16  C    0.126648
    17  H    0.294867
    18  H    0.404150
    19  H    0.189670
    20  H    0.162738
    21  H    0.174637
    22  H    0.149322
    23  H    0.199747
    24  H    0.164643
    25  H    0.187314
    26  H    0.150074
    27  H    0.242727
 Sum of Mulliken charges =  -0.00000
 Mulliken charges with hydrogens summed into heavy atoms:
               1
     1  O   -0.466988
     2  N    0.493245
     3  O   -0.501973
     4  C    0.001661
     5  C    0.477723
     6  N   -0.374579
     7  C    0.240027
     9  C    0.051229
    10  C   -0.004041
    11  C    0.042586
    12  C    0.030930
    13  C    0.151204
    15  N   -0.510397
    16  C    0.369375
 Electronic spatial extent (au):  <R**2>=           3000.8105
 Charge=              0.0000 electrons
 Dipole moment (field-independent basis, Debye):
    X=              5.3797    Y=              4.7640    Z=              1.3005  Tot=              7.3026
 Quadrupole moment (field-independent basis, Debye-Ang):
   XX=           -105.9172   YY=            -79.5811   ZZ=            -81.1821
   XY=             -1.8262   XZ=              0.2200   YZ=              2.6702
 Traceless Quadrupole moment (field-independent basis, Debye-Ang):
   XX=            -17.0238   YY=              9.3124   ZZ=              7.7114
   XY=             -1.8262   XZ=              0.2200   YZ=              2.6702
 Octapole moment (field-independent basis, Debye-Ang**2):
  XXX=             91.0838  YYY=             35.7450  ZZZ=             -0.5536  XYY=             -4.0368
  XXY=              9.8063  XXZ=              3.2373  XZZ=            -10.5995  YZZ=             -0.4351
  YYZ=              8.3926  XYZ=             -1.7061
 Hexadecapole moment (field-independent basis, Debye-Ang**3):
 XXXX=          -3371.0762 YYYY=           -608.5101 ZZZZ=           -299.8115 XXXY=            -24.0042
 XXXZ=             -1.5273 YYYX=            -12.0378 YYYZ=             31.0239 ZZZX=              6.0395
 ZZZY=             11.2556 XXYY=           -629.2228 XXZZ=           -519.4803 YYZZ=           -156.3213
 XXYZ=              3.4699 YYXZ=              4.5941 ZZXY=              5.0445
 N-N= 9.313736398348D+02 E-N=-3.409461293154D+03  KE= 6.596270995204D+02
 Unable to Open any file for archive entry.
 1\1\GINC-LOTUS\FOpt\RMP2-FC\6-31G(d)\C9H13N3O2\ALEXEY\03-Jul-2023\0\\#
 MP2/6-31G* SCF=Tight Opt=(ModRedun, MaxCycle=20 ) NoSymm\\MolName:\\0,
 1\O,-3.4899390115,-1.421474349,-0.2167954381\N,-3.1155442285,-0.238001
 3692,-0.1014266176\O,-3.897233886,0.7263168506,0.0089581308\C,-1.68169
 30903,-0.0005599818,-0.0969733504\C,-1.2990276625,1.2653788894,0.26116
 64065\N,-0.0551152184,1.7585797825,0.3744229602\C,1.2071689527,1.03014
 58473,0.3529210378\H,1.8514061436,1.5547923847,1.0742238602\C,1.918829
 2156,1.040984403,-0.9983707769\C,3.3134446427,0.427689774,-0.826903841
 9\C,3.2553442024,-0.9695055874,-0.203558043\C,2.4522288163,-0.97936173
 35,1.0989613933\C,1.0462732944,-0.4197300549,0.8531432579\H,0.46265596
 75,-0.397793743,1.7868456123\N,0.4038677645,-1.3141036174,-0.104413167
 5\C,-0.8410374869,-1.1382063101,-0.4119343335\H,-2.0960710373,1.983789
 7054,0.4332182245\H,-0.0019281505,2.7293231787,0.6593581033\H,1.326252
 1897,0.4671024858,-1.7189438204\H,1.9907858522,2.0691610359,-1.3738751
 283\H,3.8232717385,0.389264567,-1.7963580952\H,3.9122849193,1.09000849
 34,-0.1856264542\H,2.7786415129,-1.6627847221,-0.903675787\H,4.2717045
 618,-1.3382201314,-0.0211997356\H,2.3603389428,-2.0015278709,1.4805157
 663\H,2.9594140704,-0.384375137,1.8710594703\H,-1.2963130154,-1.905902
 7899,-1.0377296339\\Version=ES64L-G16RevC.02\HF=-661.2993304\MP2=-663.
 333904\RMSD=7.016e-09\RMSF=1.271e-03\Dipole=1.9659433,1.679825,0.47500
 8\PG=C01 [X(C9H13N3O2)]\\@
 The archive entry for this job was punched.


 READER, WHETHER YOU BE DILETTANTE OR PROFESSOR ... SHOW YOURSELF TO BE
 MORE HUMAN THAN CRITICAL, AND THEN YOUR PLEASURE WILL INCREASE.
                                           -- DOMENICO SCARLATTI (1738)
 Job cpu time:       0 days  1 hours  6 minutes 42.8 seconds.
 Elapsed time:       0 days  0 hours 20 minutes  4.0 seconds.
 File lengths (MBytes):  RWF=     36 Int=      0 D2E=      0 Chk=      7 Scr=      1
 Normal termination of Gaussian 16 at Mon Jul  3 00:19:42 2023.
