 Entering Gaussian System, Link 0=g16
 Initial command:
 /home/alexey/programs//g16/l1.exe "/home/alexey/tmp/Gau-1594834.inp" -scrdir="/home/alexey/tmp/"
 Entering Link 1 = /home/alexey/programs//g16/l1.exe PID=   1594836.
  
 Copyright (c) 1988-2021, Gaussian, Inc.  All Rights Reserved.
  
 This is part of the Gaussian(R) 16 program.  It is based on
 the Gaussian(R) 09 system (copyright 2009, Gaussian, Inc.),
 the Gaussian(R) 03 system (copyright 2003, Gaussian, Inc.),
 the Gaussian(R) 98 system (copyright 1998, Gaussian, Inc.),
 the Gaussian(R) 94 system (copyright 1995, Gaussian, Inc.),
 the Gaussian 92(TM) system (copyright 1992, Gaussian, Inc.),
 the Gaussian 90(TM) system (copyright 1990, Gaussian, Inc.),
 the Gaussian 88(TM) system (copyright 1988, Gaussian, Inc.),
 the Gaussian 86(TM) system (copyright 1986, Carnegie Mellon
 University), and the Gaussian 82(TM) system (copyright 1983,
 Carnegie Mellon University). Gaussian is a federally registered
 trademark of Gaussian, Inc.
  
 This software contains proprietary and confidential information,
 including trade secrets, belonging to Gaussian, Inc.
  
 This software is provided under written license and may be
 used, copied, transmitted, or stored only in accord with that
 written license.
  
 The following legend is applicable only to US Government
 contracts under FAR:
  
                    RESTRICTED RIGHTS LEGEND
  
 Use, reproduction and disclosure by the US Government is
 subject to restrictions as set forth in subparagraphs (a)
 and (c) of the Commercial Computer Software - Restricted
 Rights clause in FAR 52.227-19.
  
 Gaussian, Inc.
 340 Quinnipiac St., Bldg. 40, Wallingford CT 06492
  
  
 ---------------------------------------------------------------
 Warning -- This program may not be used in any manner that
 competes with the business of Gaussian, Inc. or will provide
 assistance to any competitor of Gaussian, Inc.  The licensee
 of this program is prohibited from giving any competitor of
 Gaussian, Inc. access to this program.  By using this program,
 the user acknowledges that Gaussian, Inc. is engaged in the
 business of creating and licensing software in the field of
 computational chemistry and represents and warrants to the
 licensee that it is not a competitor of Gaussian, Inc. and that
 it will not use this program in any manner prohibited above.
 ---------------------------------------------------------------
  

 Cite this work as:
 Gaussian 16, Revision C.02,
 M. J. Frisch, G. W. Trucks, H. B. Schlegel, G. E. Scuseria, 
 M. A. Robb, J. R. Cheeseman, G. Scalmani, V. Barone, 
 G. A. Petersson, H. Nakatsuji, X. Li, M. Caricato, A. V. Marenich, 
 J. Bloino, B. G. Janesko, R. Gomperts, B. Mennucci, H. P. Hratchian, 
 J. V. Ortiz, A. F. Izmaylov, J. L. Sonnenberg, D. Williams-Young, 
 F. Ding, F. Lipparini, F. Egidi, J. Goings, B. Peng, A. Petrone, 
 T. Henderson, D. Ranasinghe, V. G. Zakrzewski, J. Gao, N. Rega, 
 G. Zheng, W. Liang, M. Hada, M. Ehara, K. Toyota, R. Fukuda, 
 J. Hasegawa, M. Ishida, T. Nakajima, Y. Honda, O. Kitao, H. Nakai, 
 T. Vreven, K. Throssell, J. A. Montgomery, Jr., J. E. Peralta, 
 F. Ogliaro, M. J. Bearpark, J. J. Heyd, E. N. Brothers, K. N. Kudin, 
 V. N. Staroverov, T. A. Keith, R. Kobayashi, J. Normand, 
 K. Raghavachari, A. P. Rendell, J. C. Burant, S. S. Iyengar, 
 J. Tomasi, M. Cossi, J. M. Millam, M. Klene, C. Adamo, R. Cammi, 
 J. W. Ochterski, R. L. Martin, K. Morokuma, O. Farkas, 
 J. B. Foresman, and D. J. Fox, Gaussian, Inc., Wallingford CT, 2019.
 
 ******************************************
 Gaussian 16:  ES64L-G16RevC.02  7-Dec-2021
                 2-Jul-2023 
 ******************************************
 %mem=8GB
 %NPROCS=4
 Will use up to    4 processors via shared memory.
 %NoSave
 ---------------------------------------------------------
 #MP2/6-31G* SCF=Tight Opt=(ModRedun, MaxCycle=20 ) NoSymm
 ---------------------------------------------------------
 1/6=20,18=120,19=15,38=1/1,3;
 2/9=110,12=2,15=1,17=6,18=5,40=1/2;
 3/5=1,6=6,7=1,11=9,25=1,30=1,71=1/1,2,3;
 4//1;
 5/5=2,32=2,38=5/2;
 8/6=4,10=2/1;
 9/15=2,16=-3/6;
 10/5=1,31=1/2;
 6/7=2,8=2,9=2,10=2/1;
 7/12=2,30=1/1,2,3,16;
 1/6=20,18=20,19=15/3(2);
 2/9=110,15=1/2;
 99//99;
 2/9=110,15=1/2;
 3/5=1,6=6,7=1,11=9,25=1,30=1,71=1/1,2,3;
 4/5=5,16=3,69=1/1;
 5/5=2,32=2,38=5/2;
 8/6=4,10=2/1;
 9/15=2,16=-3/6;
 10/5=1,31=1/2;
 7/12=2,30=1/1,2,3,16;
 1/6=20,18=20,19=15/3(-8);
 2/9=110,15=1/2;
 6/7=2,8=2,9=2,10=2/1;
 99/9=10/99;
 --------
 MolName:
 --------
 Symbolic Z-matrix:
 Charge =  0 Multiplicity = 1
 8                    0    -3.63406  -1.41419  -0.31086 
 7                    0    -3.26342  -0.26619  -0.07173 
 8                    0    -4.03672   0.67049   0.13235 
 6                    0    -1.75786  -0.00711   0.00548 
 6                    0    -1.36904   1.30882   0.28328 
 7                    0    -0.08139   1.76227   0.40964 
 6                    0     1.19952   0.99327   0.37008 
 1                    0     1.8693    1.49468   1.11616 
 6                    0     1.95077   1.04301  -0.98383 
 6                    0     3.36587   0.46016  -0.80672 
 6                    0     3.31281  -0.95454  -0.2085 
 6                    0     2.47705  -0.98701   1.0893 
 6                    0     1.03668  -0.45483   0.85506 
 1                    0     0.49704  -0.49267   1.83034 
 7                    0     0.37348  -1.32764  -0.11625 
 6                    0    -0.87109  -1.12905  -0.40304 
 1                    0    -2.1564    2.05714   0.47255 
 1                    0     0.14985   2.74577   0.24988 
 1                    0     1.39514   0.46354  -1.75152 
 1                    0     2.03128   2.0924   -1.33872 
 1                    0     3.89117   0.43508  -1.78652 
 1                    0     3.94817   1.11688  -0.1224 
 1                    0     2.85994  -1.64655  -0.95402 
 1                    0     4.34362  -1.31563  -0.00053 
 1                    0     2.42447  -2.03259   1.46442 
 1                    0     2.97739  -0.37305   1.86726 
 1                    0    -1.37257  -1.87944  -1.03315 
 
 The following ModRedundant input section has been read:
 D       4       5      16       2 F                                           
 D       1       2       4      16 F                                           
 D       7      13      15      16 F                                           
 D       7       9      10      11 F                                           
 D       9      10      11      12 F                                           
 D       6       7      13      15 F                                           
 

 GradGradGradGradGradGradGradGradGradGradGradGradGradGradGradGradGradGrad
 Berny optimization.
 Initialization pass.
                           ----------------------------
                           !    Initial Parameters    !
                           ! (Angstroms and Degrees)  !
 --------------------------                            --------------------------
 ! Name  Definition              Value          Derivative Info.                !
 --------------------------------------------------------------------------------
 ! R1    R(1,2)                  1.2298         estimate D2E/DX2                !
 ! R2    R(2,3)                  1.2317         estimate D2E/DX2                !
 ! R3    R(2,4)                  1.5296         estimate D2E/DX2                !
 ! R4    R(4,5)                  1.4            estimate D2E/DX2                !
 ! R5    R(4,16)                 1.4873         estimate D2E/DX2                !
 ! R6    R(5,6)                  1.371          estimate D2E/DX2                !
 ! R7    R(5,17)                 1.1026         estimate D2E/DX2                !
 ! R8    R(6,7)                  1.4945         estimate D2E/DX2                !
 ! R9    R(6,18)                 1.0229         estimate D2E/DX2                !
 ! R10   R(7,8)                  1.121          estimate D2E/DX2                !
 ! R11   R(7,9)                  1.5492         estimate D2E/DX2                !
 ! R12   R(7,13)                 1.5358         estimate D2E/DX2                !
 ! R13   R(9,10)                 1.5406         estimate D2E/DX2                !
 ! R14   R(9,19)                 1.1108         estimate D2E/DX2                !
 ! R15   R(9,20)                 1.1107         estimate D2E/DX2                !
 ! R16   R(10,11)                1.5369         estimate D2E/DX2                !
 ! R17   R(10,21)                1.112          estimate D2E/DX2                !
 ! R18   R(10,22)                1.1129         estimate D2E/DX2                !
 ! R19   R(11,12)                1.544          estimate D2E/DX2                !
 ! R20   R(11,23)                1.1134         estimate D2E/DX2                !
 ! R21   R(11,24)                1.1118         estimate D2E/DX2                !
 ! R22   R(12,13)                1.5533         estimate D2E/DX2                !
 ! R23   R(12,25)                1.1121         estimate D2E/DX2                !
 ! R24   R(12,26)                1.1102         estimate D2E/DX2                !
 ! R25   R(13,14)                1.1153         estimate D2E/DX2                !
 ! R26   R(13,15)                1.4646         estimate D2E/DX2                !
 ! R27   R(15,16)                1.2925         estimate D2E/DX2                !
 ! R28   R(16,27)                1.1007         estimate D2E/DX2                !
 ! A1    A(1,2,3)              123.5661         estimate D2E/DX2                !
 ! A2    A(1,2,4)              117.6813         estimate D2E/DX2                !
 ! A3    A(3,2,4)              118.7372         estimate D2E/DX2                !
 ! A4    A(2,4,5)              116.2681         estimate D2E/DX2                !
 ! A5    A(2,4,16)             116.4373         estimate D2E/DX2                !
 ! A6    A(5,4,16)             126.7244         estimate D2E/DX2                !
 ! A7    A(4,5,6)              126.158          estimate D2E/DX2                !
 ! A8    A(4,5,17)             118.2723         estimate D2E/DX2                !
 ! A9    A(6,5,17)             115.4921         estimate D2E/DX2                !
 ! A10   A(5,6,7)              129.2227         estimate D2E/DX2                !
 ! A11   A(5,6,18)             121.0607         estimate D2E/DX2                !
 ! A12   A(7,6,18)             107.2682         estimate D2E/DX2                !
 ! A13   A(6,7,8)              105.3262         estimate D2E/DX2                !
 ! A14   A(6,7,9)              114.9756         estimate D2E/DX2                !
 ! A15   A(6,7,13)             112.701          estimate D2E/DX2                !
 ! A16   A(8,7,9)              106.1145         estimate D2E/DX2                !
 ! A17   A(8,7,13)             105.9575         estimate D2E/DX2                !
 ! A18   A(9,7,13)             110.9572         estimate D2E/DX2                !
 ! A19   A(7,9,10)             109.4391         estimate D2E/DX2                !
 ! A20   A(7,9,19)             110.1629         estimate D2E/DX2                !
 ! A21   A(7,9,20)             110.1656         estimate D2E/DX2                !
 ! A22   A(10,9,19)            109.9709         estimate D2E/DX2                !
 ! A23   A(10,9,20)            109.1223         estimate D2E/DX2                !
 ! A24   A(19,9,20)            107.9574         estimate D2E/DX2                !
 ! A25   A(9,10,11)            111.1783         estimate D2E/DX2                !
 ! A26   A(9,10,21)            109.946          estimate D2E/DX2                !
 ! A27   A(9,10,22)            109.1487         estimate D2E/DX2                !
 ! A28   A(11,10,21)           109.786          estimate D2E/DX2                !
 ! A29   A(11,10,22)           108.7771         estimate D2E/DX2                !
 ! A30   A(21,10,22)           107.9339         estimate D2E/DX2                !
 ! A31   A(10,11,12)           111.4214         estimate D2E/DX2                !
 ! A32   A(10,11,23)           108.9964         estimate D2E/DX2                !
 ! A33   A(10,11,24)           109.8612         estimate D2E/DX2                !
 ! A34   A(12,11,23)           109.2428         estimate D2E/DX2                !
 ! A35   A(12,11,24)           109.7427         estimate D2E/DX2                !
 ! A36   A(23,11,24)           107.4865         estimate D2E/DX2                !
 ! A37   A(11,12,13)           111.5916         estimate D2E/DX2                !
 ! A38   A(11,12,25)           109.202          estimate D2E/DX2                !
 ! A39   A(11,12,26)           109.4774         estimate D2E/DX2                !
 ! A40   A(13,12,25)           109.2171         estimate D2E/DX2                !
 ! A41   A(13,12,26)           109.5188         estimate D2E/DX2                !
 ! A42   A(25,12,26)           107.7517         estimate D2E/DX2                !
 ! A43   A(7,13,12)            105.8039         estimate D2E/DX2                !
 ! A44   A(7,13,14)            111.0658         estimate D2E/DX2                !
 ! A45   A(7,13,15)            113.6088         estimate D2E/DX2                !
 ! A46   A(12,13,14)           107.7696         estimate D2E/DX2                !
 ! A47   A(12,13,15)           108.4049         estimate D2E/DX2                !
 ! A48   A(14,13,15)           109.9149         estimate D2E/DX2                !
 ! A49   A(13,15,16)           119.446          estimate D2E/DX2                !
 ! A50   A(4,16,15)            128.9814         estimate D2E/DX2                !
 ! A51   A(4,16,27)            113.5694         estimate D2E/DX2                !
 ! A52   A(15,16,27)           117.4488         estimate D2E/DX2                !
 ! D1    D(1,2,4,5)           -179.8086         estimate D2E/DX2                !
 ! D2    D(1,2,4,16)             8.2592         Frozen                          !
 ! D3    D(3,2,4,5)             -1.1891         estimate D2E/DX2                !
 ! D4    D(3,2,4,16)          -173.1213         estimate D2E/DX2                !
 ! D5    D(2,4,5,6)            179.3686         estimate D2E/DX2                !
 ! D6    D(2,4,5,17)             2.7273         estimate D2E/DX2                !
 ! D7    D(16,4,5,6)            -9.6518         estimate D2E/DX2                !
 ! D8    D(16,4,5,17)          173.7068         estimate D2E/DX2                !
 ! D9    D(2,4,16,15)         -159.7036         estimate D2E/DX2                !
 ! D10   D(2,4,16,27)           20.0865         estimate D2E/DX2                !
 ! D11   D(5,4,16,15)           29.3302         estimate D2E/DX2                !
 ! D12   D(5,4,16,27)         -150.8797         estimate D2E/DX2                !
 ! D13   D(4,5,6,7)             -4.0141         estimate D2E/DX2                !
 ! D14   D(4,5,6,18)           155.8592         estimate D2E/DX2                !
 ! D15   D(17,5,6,7)           172.709          estimate D2E/DX2                !
 ! D16   D(17,5,6,18)          -27.4177         estimate D2E/DX2                !
 ! D17   D(4,5,16,2)             5.6838         Frozen                          !
 ! D18   D(5,6,7,8)           -143.8504         estimate D2E/DX2                !
 ! D19   D(5,6,7,9)             99.7176         estimate D2E/DX2                !
 ! D20   D(5,6,7,13)           -28.7853         estimate D2E/DX2                !
 ! D21   D(18,6,7,8)            54.129          estimate D2E/DX2                !
 ! D22   D(18,6,7,9)           -62.303          estimate D2E/DX2                !
 ! D23   D(18,6,7,13)          169.1941         estimate D2E/DX2                !
 ! D24   D(6,7,9,10)           168.7234         estimate D2E/DX2                !
 ! D25   D(6,7,9,19)           -70.2508         estimate D2E/DX2                !
 ! D26   D(6,7,9,20)            48.7444         estimate D2E/DX2                !
 ! D27   D(8,7,9,10)            52.7422         estimate D2E/DX2                !
 ! D28   D(8,7,9,19)           173.7681         estimate D2E/DX2                !
 ! D29   D(8,7,9,20)           -67.2368         estimate D2E/DX2                !
 ! D30   D(13,7,9,10)          -61.909          estimate D2E/DX2                !
 ! D31   D(13,7,9,19)           59.1168         estimate D2E/DX2                !
 ! D32   D(13,7,9,20)          178.1119         estimate D2E/DX2                !
 ! D33   D(6,7,13,12)         -166.1732         estimate D2E/DX2                !
 ! D34   D(6,7,13,14)          -49.4988         estimate D2E/DX2                !
 ! D35   D(6,7,13,15)           75.0225         Frozen                          !
 ! D36   D(8,7,13,12)          -51.4894         estimate D2E/DX2                !
 ! D37   D(8,7,13,14)           65.185          estimate D2E/DX2                !
 ! D38   D(8,7,13,15)         -170.2936         estimate D2E/DX2                !
 ! D39   D(9,7,13,12)           63.2599         estimate D2E/DX2                !
 ! D40   D(9,7,13,14)          179.9343         estimate D2E/DX2                !
 ! D41   D(9,7,13,15)          -55.5443         estimate D2E/DX2                !
 ! D42   D(7,9,10,11)           54.8122         Frozen                          !
 ! D43   D(7,9,10,21)          176.6013         estimate D2E/DX2                !
 ! D44   D(7,9,10,22)          -65.1847         estimate D2E/DX2                !
 ! D45   D(19,9,10,11)         -66.33           estimate D2E/DX2                !
 ! D46   D(19,9,10,21)          55.4591         estimate D2E/DX2                !
 ! D47   D(19,9,10,22)         173.6732         estimate D2E/DX2                !
 ! D48   D(20,9,10,11)         175.4286         estimate D2E/DX2                !
 ! D49   D(20,9,10,21)         -62.7823         estimate D2E/DX2                !
 ! D50   D(20,9,10,22)          55.4317         estimate D2E/DX2                !
 ! D51   D(9,10,11,12)         -52.8219         Frozen                          !
 ! D52   D(9,10,11,23)          67.8074         estimate D2E/DX2                !
 ! D53   D(9,10,11,24)        -174.6608         estimate D2E/DX2                !
 ! D54   D(21,10,11,12)       -174.7041         estimate D2E/DX2                !
 ! D55   D(21,10,11,23)        -54.0748         estimate D2E/DX2                !
 ! D56   D(21,10,11,24)         63.4571         estimate D2E/DX2                !
 ! D57   D(22,10,11,12)         67.3952         estimate D2E/DX2                !
 ! D58   D(22,10,11,23)       -171.9755         estimate D2E/DX2                !
 ! D59   D(22,10,11,24)        -54.4437         estimate D2E/DX2                !
 ! D60   D(10,11,12,13)         56.6033         estimate D2E/DX2                !
 ! D61   D(10,11,12,25)        177.4455         estimate D2E/DX2                !
 ! D62   D(10,11,12,26)        -64.8035         estimate D2E/DX2                !
 ! D63   D(23,11,12,13)        -63.8813         estimate D2E/DX2                !
 ! D64   D(23,11,12,25)         56.9609         estimate D2E/DX2                !
 ! D65   D(23,11,12,26)        174.7118         estimate D2E/DX2                !
 ! D66   D(24,11,12,13)        178.5108         estimate D2E/DX2                !
 ! D67   D(24,11,12,25)        -60.647          estimate D2E/DX2                !
 ! D68   D(24,11,12,26)         57.104          estimate D2E/DX2                !
 ! D69   D(11,12,13,7)         -60.3296         estimate D2E/DX2                !
 ! D70   D(11,12,13,14)       -179.2102         estimate D2E/DX2                !
 ! D71   D(11,12,13,15)         61.8683         estimate D2E/DX2                !
 ! D72   D(25,12,13,7)         178.837          estimate D2E/DX2                !
 ! D73   D(25,12,13,14)         59.9564         estimate D2E/DX2                !
 ! D74   D(25,12,13,15)        -58.9652         estimate D2E/DX2                !
 ! D75   D(26,12,13,7)          61.0532         estimate D2E/DX2                !
 ! D76   D(26,12,13,14)        -57.8274         estimate D2E/DX2                !
 ! D77   D(26,12,13,15)       -176.7489         estimate D2E/DX2                !
 ! D78   D(7,13,15,16)         -67.1602         Frozen                          !
 ! D79   D(12,13,15,16)        175.5378         estimate D2E/DX2                !
 ! D80   D(14,13,15,16)         57.9794         estimate D2E/DX2                !
 ! D81   D(13,15,16,4)           7.6068         estimate D2E/DX2                !
 ! D82   D(13,15,16,27)       -172.1765         estimate D2E/DX2                !
 --------------------------------------------------------------------------------
 Trust Radius=3.00D-01 FncErr=1.00D-07 GrdErr=1.00D-07 EigMax=2.50D+02 EigMin=1.00D-04
 Number of steps in this run=     20 maximum allowed number of steps=    162.
 GradGradGradGradGradGradGradGradGradGradGradGradGradGradGradGradGradGrad

                          Input orientation:                          
 ---------------------------------------------------------------------
 Center     Atomic      Atomic             Coordinates (Angstroms)
 Number     Number       Type             X           Y           Z
 ---------------------------------------------------------------------
      1          8           0       -3.634060   -1.414190   -0.310860
      2          7           0       -3.263420   -0.266190   -0.071730
      3          8           0       -4.036720    0.670490    0.132350
      4          6           0       -1.757860   -0.007110    0.005480
      5          6           0       -1.369040    1.308820    0.283280
      6          7           0       -0.081390    1.762270    0.409640
      7          6           0        1.199520    0.993270    0.370080
      8          1           0        1.869300    1.494680    1.116160
      9          6           0        1.950770    1.043010   -0.983830
     10          6           0        3.365870    0.460160   -0.806720
     11          6           0        3.312810   -0.954540   -0.208500
     12          6           0        2.477050   -0.987010    1.089300
     13          6           0        1.036680   -0.454830    0.855060
     14          1           0        0.497040   -0.492670    1.830340
     15          7           0        0.373480   -1.327640   -0.116250
     16          6           0       -0.871090   -1.129050   -0.403040
     17          1           0       -2.156400    2.057140    0.472550
     18          1           0        0.149850    2.745770    0.249880
     19          1           0        1.395140    0.463540   -1.751520
     20          1           0        2.031280    2.092400   -1.338720
     21          1           0        3.891170    0.435080   -1.786520
     22          1           0        3.948170    1.116880   -0.122400
     23          1           0        2.859940   -1.646550   -0.954020
     24          1           0        4.343620   -1.315630   -0.000530
     25          1           0        2.424470   -2.032590    1.464420
     26          1           0        2.977390   -0.373050    1.867260
     27          1           0       -1.372570   -1.879440   -1.033150
 ---------------------------------------------------------------------
                    Distance matrix (angstroms):
                    1          2          3          4          5
     1  O    0.000000
     2  N    1.229822   0.000000
     3  O    2.168977   1.231670   0.000000
     4  C    2.366447   1.529639   2.380849   0.000000
     5  C    3.591393   2.489049   2.747137   1.400009   0.000000
     6  N    4.819801   3.804166   4.112604   2.470749   1.370995
     7  C    5.442705   4.658247   5.251563   3.143213   2.589325
     8  H    6.386304   5.554868   6.043860   4.079862   3.348892
     9  C    6.138489   5.452862   6.102021   3.979375   3.563336
    10  C    7.263476   6.709343   7.464880   5.208706   4.932311
    11  C    6.962813   6.613572   7.534752   5.162858   5.223444
    12  C    6.283995   5.900896   6.789128   4.479881   4.551144
    13  C    4.908722   4.402884   5.246717   2.954944   3.037249
    14  H    4.743408   4.220216   4.979065   2.941166   3.020102
    15  N    4.013196   3.788892   4.848112   2.510225   3.185423
    16  C    2.779173   2.564671   3.680516   1.487279   2.581124
    17  H    3.853225   2.630513   2.360961   2.153629   1.102607
    18  H    5.651342   4.563524   4.674181   3.358190   2.091164
    19  H    5.558257   5.005635   5.752990   3.640051   3.534912
    20  H    6.741569   5.933132   6.403632   4.535681   3.847994
    21  H    7.888375   7.390564   8.160203   5.942923   5.719904
    22  H    7.995752   7.343193   8.001414   5.817086   5.336117
    23  H    6.529907   6.338720   7.356140   4.993243   5.305600
    24  H    7.984322   7.679417   8.613503   6.240218   6.293073
    25  H    6.343487   6.150774   7.129378   4.870622   5.191419
    26  H    7.038427   6.535963   7.300454   5.101248   4.922310
    27  H    2.419194   2.664999   3.867587   2.175505   3.449348
                    6          7          8          9         10
     6  N    0.000000
     7  C    1.494542   0.000000
     8  H    2.091881   1.121005   0.000000
     9  C    2.566860   1.549168   2.149558   0.000000
    10  C    3.880544   2.522328   2.647153   1.540646   0.000000
    11  C    4.391326   2.931674   3.136419   2.538995   1.536899
    12  C    3.816555   2.463913   2.555165   2.948868   2.545426
    13  C    2.522699   1.535811   2.135888   2.541771   3.003972
    14  H    2.727219   2.198603   2.518474   3.520113   4.011503
    15  N    3.167177   2.511072   3.423712   2.976663   3.553502
    16  C    3.105448   3.064210   4.086767   3.608054   4.543168
    17  H    2.096801   3.522005   4.115441   4.474187   5.889172
    18  H    1.022872   2.046341   2.296122   2.768528   4.084507
    19  H    2.921892   2.195465   3.084099   1.110792   2.185506
    20  H    2.762087   2.195429   2.531786   1.110697   2.174480
    21  H    4.729248   3.493920   3.692731   2.186102   1.112015
    22  H    4.115452   2.795155   2.449176   2.176494   1.112946
    23  H    4.704364   3.388050   3.890288   2.839227   2.171610
    24  H    5.405777   3.918384   3.907313   3.500827   2.181597
    25  H    4.668282   3.442951   3.587636   3.959499   3.501159
    26  H    4.005045   2.696145   2.297919   3.344830   2.827601
    27  H    4.124420   4.103311   5.149169   4.425803   5.289406
                   11         12         13         14         15
    11  C    0.000000
    12  C    1.543967   0.000000
    13  C    2.561569   1.553303   0.000000
    14  H    3.506958   2.171164   1.115264   0.000000
    15  N    2.964351   2.448344   1.464607   2.121710   0.000000
    16  C    4.192054   3.668419   2.382640   2.695319   1.292533
    17  H    6.280629   5.578180   4.080694   3.922482   4.266581
    18  H    4.889450   4.478184   3.375878   3.620206   4.095941
    19  H    2.840655   3.368217   2.786782   3.814530   2.631772
    20  H    3.493359   3.946740   3.505750   4.368000   3.992419
    21  H    2.180755   3.506054   3.989737   5.046040   4.274474
    22  H    2.168381   2.838796   3.449996   4.279503   4.330603
    23  H    1.113449   2.180998   2.831474   3.829804   2.643113
    24  H    1.111848   2.186276   3.522622   4.338839   3.971844
    25  H    2.179450   1.112078   2.187832   2.494040   2.683660
    26  H    2.181609   1.110184   2.190341   2.483507   3.409678
    27  H    4.846470   4.485621   3.376290   3.690277   2.047896
                   16         17         18         19         20
    16  C    0.000000
    17  H    3.545488   0.000000
    18  H    4.059908   2.417143   0.000000
    19  H    3.080672   4.483245   3.280994   0.000000
    20  H    4.435875   4.562741   2.547611   1.796737   0.000000
    21  H    5.199965   6.656394   4.845997   2.496438   2.531092
    22  H    5.324305   6.205145   4.149592   3.098201   2.470939
    23  H    3.806832   6.396569   5.299664   2.689633   3.848950
    24  H    5.233548   7.338232   5.843405   3.863282   4.330397
    25  H    3.894163   6.220456   5.429708   4.199102   5.002773
    26  H    4.531732   5.848661   4.509760   4.037198   4.153538
    27  H    1.100730   4.286978   5.035523   3.696732   5.239760
                   21         22         23         24         25
    21  H    0.000000
    22  H    1.799276   0.000000
    23  H    2.467727   3.084215   0.000000
    24  H    2.541546   2.467456   1.794424   0.000000
    25  H    4.336959   3.841721   2.487471   2.518580   0.000000
    26  H    3.852035   2.668530   3.097615   2.498736   1.795014
    27  H    5.799270   6.173951   4.239651   5.836010   4.547397
                   26         27
    26  H    0.000000
    27  H    5.440932   0.000000
 Symmetry turned off by external request.
 Stoichiometry    C9H13N3O2
 Framework group  C1[X(C9H13N3O2)]
 Deg. of freedom    75
 Full point group                 C1      NOp   1
 Rotational constants (GHZ):           1.6740481           0.3989284           0.3550090
 Standard basis: 6-31G(d) (6D, 7F)
   236 basis functions,   444 primitive gaussians,   236 cartesian basis functions
    52 alpha electrons       52 beta electrons
       nuclear repulsion energy       917.1803834130 Hartrees.
 NAtoms=   27 NActive=   27 NUniq=   27 SFac= 1.00D+00 NAtFMM=   60 NAOKFM=F Big=F
 Integral buffers will be    131072 words long.
 Raffenetti 1 integral format.
 Two-electron integral symmetry is turned off.
 One-electron integrals computed using PRISM.
 NBasis=   236 RedAO= T EigKep=  1.29D-03  NBF=   236
 NBsUse=   236 1.00D-06 EigRej= -1.00D+00 NBFU=   236
 ExpMin= 1.61D-01 ExpMax= 5.48D+03 ExpMxC= 8.25D+02 IAcc=3 IRadAn=         5 AccDes= 0.00D+00
 Harris functional with IExCor=  205 and IRadAn=       5 diagonalized for initial guess.
 HarFok:  IExCor=  205 AccDes= 0.00D+00 IRadAn=         5 IDoV= 1 UseB2=F ITyADJ=14
 ICtDFT=  3500011 ScaDFX=  1.000000  1.000000  1.000000  1.000000
 FoFCou: FMM=F IPFlag=           0 FMFlag=      100000 FMFlg1=           0
         NFxFlg=           0 DoJE=T BraDBF=F KetDBF=T FulRan=T
         wScrn=  0.000000 ICntrl=       500 IOpCl=  0 I1Cent=   200000004 NGrid=           0
         NMat0=    1 NMatS0=      1 NMatT0=    0 NMatD0=    1 NMtDS0=    0 NMtDT0=    0
 Symmetry not used in FoFCou.
 Keep R1 ints in memory in canonical form, NReq=397720213.
 Requested convergence on RMS density matrix=1.00D-08 within 128 cycles.
 Requested convergence on MAX density matrix=1.00D-06.
 Requested convergence on             energy=1.00D-06.
 No special actions if energy rises.
 SCF Done:  E(RHF) =  -661.281659773     A.U. after   16 cycles
            NFock= 16  Conv=0.67D-08     -V/T= 2.0037
 ExpMin= 1.61D-01 ExpMax= 5.48D+03 ExpMxC= 8.25D+02 IAcc=3 IRadAn=         5 AccDes= 0.00D+00
 HarFok:  IExCor=  205 AccDes= 0.00D+00 IRadAn=         5 IDoV=-2 UseB2=F ITyADJ=14
 ICtDFT= 12500011 ScaDFX=  1.000000  1.000000  1.000000  1.000000
 Range of M.O.s used for correlation:    15   236
 NBasis=   236 NAE=    52 NBE=    52 NFC=    14 NFV=     0
 NROrb=    222 NOA=    38 NOB=    38 NVA=   184 NVB=   184
 Fully direct method using O(ONN) memory.
 JobTyp=1 Pass  1:  I=  15 to  52 NPSUse=  4 ParTrn=T ParDer=T DoDerP=T.
 Spin components of T(2) and E(2):
     alpha-alpha T2 =       0.9200227730D-01 E2=     -0.2717962582D+00
     alpha-beta  T2 =       0.4996272760D+00 E2=     -0.1493713371D+01
     beta-beta   T2 =       0.9200227730D-01 E2=     -0.2717962582D+00
 ANorm=    0.1297548392D+01
 E2 =    -0.2037305887D+01 EUMP2 =    -0.66331896566062D+03
          IDoAtm=111111111111111111111111111
          Differentiating once with respect to electric field.
                with respect to dipole field.
          Differentiating once with respect to nuclear coordinates.
 Keep R1 ints in memory in canonical form, NReq=397723379.
          There are     1 degrees of freedom in the 1st order CPHF.  IDoFFX=0 NUNeed=     1.
 LinEq1:  Iter=  0 NonCon=     1 RMS=4.62D-03 Max=1.16D-01 NDo=     1
 AX will form     1 AO Fock derivatives at one time.
 LinEq1:  Iter=  1 NonCon=     1 RMS=1.57D-03 Max=2.92D-02 NDo=     1
 LinEq1:  Iter=  2 NonCon=     1 RMS=6.42D-04 Max=1.85D-02 NDo=     1
 LinEq1:  Iter=  3 NonCon=     1 RMS=2.94D-04 Max=9.11D-03 NDo=     1
 LinEq1:  Iter=  4 NonCon=     1 RMS=9.02D-05 Max=2.10D-03 NDo=     1
 LinEq1:  Iter=  5 NonCon=     1 RMS=3.73D-05 Max=1.87D-03 NDo=     1
 LinEq1:  Iter=  6 NonCon=     1 RMS=1.53D-05 Max=5.83D-04 NDo=     1
 LinEq1:  Iter=  7 NonCon=     1 RMS=5.91D-06 Max=1.03D-04 NDo=     1
 LinEq1:  Iter=  8 NonCon=     1 RMS=2.36D-06 Max=5.86D-05 NDo=     1
 LinEq1:  Iter=  9 NonCon=     1 RMS=8.80D-07 Max=2.49D-05 NDo=     1
 LinEq1:  Iter= 10 NonCon=     1 RMS=4.27D-07 Max=1.44D-05 NDo=     1
 LinEq1:  Iter= 11 NonCon=     1 RMS=1.52D-07 Max=5.72D-06 NDo=     1
 LinEq1:  Iter= 12 NonCon=     1 RMS=5.36D-08 Max=7.85D-07 NDo=     1
 LinEq1:  Iter= 13 NonCon=     1 RMS=1.68D-08 Max=3.24D-07 NDo=     1
 LinEq1:  Iter= 14 NonCon=     1 RMS=5.25D-09 Max=1.46D-07 NDo=     1
 LinEq1:  Iter= 15 NonCon=     1 RMS=1.94D-09 Max=4.76D-08 NDo=     1
 LinEq1:  Iter= 16 NonCon=     1 RMS=7.33D-10 Max=1.39D-08 NDo=     1
 LinEq1:  Iter= 17 NonCon=     1 RMS=2.49D-10 Max=4.05D-09 NDo=     1
 LinEq1:  Iter= 18 NonCon=     1 RMS=8.64D-11 Max=1.06D-09 NDo=     1
 LinEq1:  Iter= 19 NonCon=     0 RMS=2.89D-11 Max=3.37D-10 NDo=     1
 Linear equations converged to 1.000D-10 1.000D-09 after    19 iterations.
 End of Minotr F.D. properties file   721 does not exist.
 End of Minotr F.D. properties file   722 does not exist.
 End of Minotr F.D. properties file   788 does not exist.

 **********************************************************************

            Population analysis using the SCF Density.

 **********************************************************************

 Alpha  occ. eigenvalues --  -20.59794 -20.59388 -15.85288 -15.63492 -15.56716
 Alpha  occ. eigenvalues --  -11.35961 -11.30429 -11.30104 -11.30083 -11.27656
 Alpha  occ. eigenvalues --  -11.24647 -11.23888 -11.23387 -11.22846  -1.58469
 Alpha  occ. eigenvalues --   -1.37961  -1.28661  -1.22698  -1.13281  -1.08367
 Alpha  occ. eigenvalues --   -1.01807  -1.00676  -0.93603  -0.88932  -0.84949
 Alpha  occ. eigenvalues --   -0.81523  -0.78013  -0.76969  -0.74349  -0.71148
 Alpha  occ. eigenvalues --   -0.70259  -0.69822  -0.67394  -0.64343  -0.63231
 Alpha  occ. eigenvalues --   -0.61696  -0.60275  -0.57419  -0.56510  -0.54876
 Alpha  occ. eigenvalues --   -0.53687  -0.50721  -0.49401  -0.48462  -0.47836
 Alpha  occ. eigenvalues --   -0.47689  -0.46172  -0.45697  -0.44016  -0.42092
 Alpha  occ. eigenvalues --   -0.39905  -0.33722
 Alpha virt. eigenvalues --    0.07384   0.11851   0.18021   0.21456   0.23440
 Alpha virt. eigenvalues --    0.24278   0.26313   0.27754   0.28528   0.28875
 Alpha virt. eigenvalues --    0.29890   0.31198   0.31838   0.32291   0.33289
 Alpha virt. eigenvalues --    0.33787   0.34215   0.35462   0.37611   0.38579
 Alpha virt. eigenvalues --    0.40589   0.41768   0.44381   0.45256   0.45671
 Alpha virt. eigenvalues --    0.46111   0.49725   0.53256   0.57483   0.58732
 Alpha virt. eigenvalues --    0.63424   0.69006   0.69226   0.72251   0.73973
 Alpha virt. eigenvalues --    0.74982   0.75680   0.75881   0.77833   0.79172
 Alpha virt. eigenvalues --    0.80321   0.83774   0.84870   0.85447   0.87785
 Alpha virt. eigenvalues --    0.89074   0.90219   0.90836   0.91859   0.93850
 Alpha virt. eigenvalues --    0.95361   0.97184   0.98876   1.00326   1.01980
 Alpha virt. eigenvalues --    1.02744   1.05093   1.06509   1.06946   1.08653
 Alpha virt. eigenvalues --    1.09557   1.10497   1.11608   1.11842   1.13219
 Alpha virt. eigenvalues --    1.13836   1.14138   1.15491   1.16348   1.17309
 Alpha virt. eigenvalues --    1.18076   1.20112   1.21221   1.22205   1.22794
 Alpha virt. eigenvalues --    1.24209   1.24807   1.25505   1.26480   1.27556
 Alpha virt. eigenvalues --    1.29454   1.31406   1.33099   1.36141   1.39317
 Alpha virt. eigenvalues --    1.42342   1.45209   1.46494   1.50560   1.52907
 Alpha virt. eigenvalues --    1.54191   1.56609   1.60129   1.61359   1.67834
 Alpha virt. eigenvalues --    1.68508   1.70172   1.72537   1.73227   1.76435
 Alpha virt. eigenvalues --    1.77927   1.80757   1.84326   1.89041   1.92807
 Alpha virt. eigenvalues --    1.94251   1.96288   1.97569   1.99215   2.00427
 Alpha virt. eigenvalues --    2.02856   2.03603   2.06117   2.08967   2.11902
 Alpha virt. eigenvalues --    2.12832   2.13366   2.17743   2.18724   2.19447
 Alpha virt. eigenvalues --    2.21011   2.22314   2.23997   2.24951   2.26381
 Alpha virt. eigenvalues --    2.29263   2.32046   2.33241   2.35303   2.35742
 Alpha virt. eigenvalues --    2.38640   2.40143   2.42188   2.43383   2.46507
 Alpha virt. eigenvalues --    2.48466   2.50291   2.50346   2.56684   2.57289
 Alpha virt. eigenvalues --    2.60787   2.62668   2.65986   2.68394   2.68647
 Alpha virt. eigenvalues --    2.69829   2.70363   2.74895   2.76838   2.81097
 Alpha virt. eigenvalues --    2.84648   2.86626   2.89938   2.91440   2.95049
 Alpha virt. eigenvalues --    2.97545   2.98783   3.02398   3.03586   3.05815
 Alpha virt. eigenvalues --    3.07037   3.12889   3.18938   3.22983   3.27145
 Alpha virt. eigenvalues --    3.31716   3.34131   3.37418   3.43239   3.59737
 Alpha virt. eigenvalues --    4.10496   4.23556   4.32255   4.35772   4.43641
 Alpha virt. eigenvalues --    4.52612   4.59658   4.60339   4.70836   4.77950
 Alpha virt. eigenvalues --    4.96173   4.99241   5.02692   5.10126
          Condensed to atoms (all electrons):
               1          2          3          4          5          6
     1  O    8.300735   0.311681  -0.089589  -0.078589   0.003581  -0.000013
     2  N    0.311681   5.682166   0.309066   0.266013  -0.046137   0.000824
     3  O   -0.089589   0.309066   8.331051  -0.087096   0.007498   0.000472
     4  C   -0.078589   0.266013  -0.087096   5.245174   0.566683  -0.048199
     5  C    0.003581  -0.046137   0.007498   0.566683   4.672023   0.307650
     6  N   -0.000013   0.000824   0.000472  -0.048199   0.307650   7.187011
     7  C    0.000002  -0.000091   0.000002   0.004802  -0.028827   0.198251
     8  H   -0.000000   0.000001  -0.000000  -0.000227   0.002455  -0.049551
     9  C   -0.000000  -0.000003   0.000000   0.000565   0.001463  -0.056358
    10  C   -0.000000   0.000000  -0.000000  -0.000023  -0.000058   0.003338
    11  C   -0.000000  -0.000000  -0.000000  -0.000011   0.000014  -0.000154
    12  C   -0.000000   0.000001  -0.000000  -0.000125  -0.000137   0.003600
    13  C   -0.000018  -0.000015  -0.000003  -0.010583   0.000299  -0.044580
    14  H   -0.000002  -0.000062   0.000000   0.002801   0.004594  -0.005571
    15  N    0.000255   0.001570  -0.000011  -0.061513  -0.003500   0.001812
    16  C    0.002560  -0.025575   0.002100   0.317240  -0.042197  -0.000971
    17  H    0.000132  -0.004551   0.012438  -0.025900   0.376097  -0.033854
    18  H    0.000000  -0.000035   0.000008   0.000986  -0.024562   0.328762
    19  H    0.000000  -0.000001   0.000000  -0.000857   0.000744   0.000584
    20  H    0.000000  -0.000000   0.000000  -0.000028   0.000029  -0.001630
    21  H   -0.000000  -0.000000   0.000000   0.000000   0.000001  -0.000059
    22  H   -0.000000   0.000000  -0.000000  -0.000000  -0.000002  -0.000097
    23  H    0.000000  -0.000000   0.000000   0.000024  -0.000000  -0.000024
    24  H    0.000000   0.000000   0.000000   0.000000  -0.000000   0.000004
    25  H    0.000000  -0.000000   0.000000   0.000018  -0.000000  -0.000071
    26  H    0.000000  -0.000000   0.000000   0.000006  -0.000001  -0.000065
    27  H    0.005909  -0.000039   0.000032  -0.065850   0.001916   0.000051
               7          8          9         10         11         12
     1  O    0.000002  -0.000000  -0.000000  -0.000000  -0.000000  -0.000000
     2  N   -0.000091   0.000001  -0.000003   0.000000  -0.000000   0.000001
     3  O    0.000002  -0.000000   0.000000  -0.000000  -0.000000  -0.000000
     4  C    0.004802  -0.000227   0.000565  -0.000023  -0.000011  -0.000125
     5  C   -0.028827   0.002455   0.001463  -0.000058   0.000014  -0.000137
     6  N    0.198251  -0.049551  -0.056358   0.003338  -0.000154   0.003600
     7  C    5.007510   0.416363   0.340926  -0.049310  -0.007764  -0.064178
     8  H    0.416363   0.546771  -0.060349   0.001449  -0.000330  -0.002837
     9  C    0.340926  -0.060349   5.180839   0.318026  -0.053049  -0.006210
    10  C   -0.049310   0.001449   0.318026   5.126575   0.332770  -0.060178
    11  C   -0.007764  -0.000330  -0.053049   0.332770   5.123915   0.330692
    12  C   -0.064178  -0.002837  -0.006210  -0.060178   0.330692   5.136816
    13  C    0.331121  -0.040084  -0.050926  -0.001631  -0.047905   0.368392
    14  H   -0.040443  -0.000947   0.003871  -0.000392   0.003963  -0.040646
    15  N   -0.058366   0.004018  -0.012840   0.001434  -0.007718  -0.074271
    16  C   -0.002554   0.000041  -0.000893  -0.000027  -0.000003   0.002498
    17  H    0.001416  -0.000019  -0.000066   0.000001   0.000000   0.000001
    18  H   -0.028586  -0.002826   0.000904  -0.000121   0.000011  -0.000137
    19  H   -0.035071   0.004079   0.386150  -0.032520  -0.002254   0.000623
    20  H   -0.041783  -0.001855   0.397206  -0.037344   0.004139  -0.000364
    21  H    0.004047  -0.000080  -0.035831   0.400138  -0.035829   0.004213
    22  H   -0.004232   0.003512  -0.045721   0.395981  -0.045628  -0.001221
    23  H    0.000433   0.000033  -0.002002  -0.040076   0.396693  -0.036577
    24  H   -0.000141  -0.000099   0.004400  -0.038498   0.400293  -0.037887
    25  H    0.004993  -0.000006  -0.000369   0.004098  -0.033908   0.395400
    26  H   -0.004441   0.001582   0.001053  -0.002410  -0.042356   0.394679
    27  H   -0.000405   0.000009  -0.000059   0.000005   0.000005  -0.000019
              13         14         15         16         17         18
     1  O   -0.000018  -0.000002   0.000255   0.002560   0.000132   0.000000
     2  N   -0.000015  -0.000062   0.001570  -0.025575  -0.004551  -0.000035
     3  O   -0.000003   0.000000  -0.000011   0.002100   0.012438   0.000008
     4  C   -0.010583   0.002801  -0.061513   0.317240  -0.025900   0.000986
     5  C    0.000299   0.004594  -0.003500  -0.042197   0.376097  -0.024562
     6  N   -0.044580  -0.005571   0.001812  -0.000971  -0.033854   0.328762
     7  C    0.331121  -0.040443  -0.058366  -0.002554   0.001416  -0.028586
     8  H   -0.040084  -0.000947   0.004018   0.000041  -0.000019  -0.002826
     9  C   -0.050926   0.003871  -0.012840  -0.000893  -0.000066   0.000904
    10  C   -0.001631  -0.000392   0.001434  -0.000027   0.000001  -0.000121
    11  C   -0.047905   0.003963  -0.007718  -0.000003   0.000000   0.000011
    12  C    0.368392  -0.040646  -0.074271   0.002498   0.000001  -0.000137
    13  C    5.023415   0.402609   0.241042  -0.070059  -0.000043   0.003691
    14  H    0.402609   0.519413  -0.036043  -0.004538   0.000062   0.000001
    15  N    0.241042  -0.036043   6.939649   0.586705  -0.000058  -0.000119
    16  C   -0.070059  -0.004538   0.586705   4.706241   0.001745  -0.000218
    17  H   -0.000043   0.000062  -0.000058   0.001745   0.385040  -0.001959
    18  H    0.003691   0.000001  -0.000119  -0.000218  -0.001959   0.324139
    19  H   -0.006171   0.000065   0.006902   0.002592   0.000012  -0.000133
    20  H    0.003871  -0.000049   0.000081  -0.000031  -0.000002   0.002822
    21  H   -0.000381   0.000009  -0.000030   0.000002  -0.000000  -0.000000
    22  H    0.000318  -0.000044   0.000002  -0.000001   0.000000   0.000002
    23  H   -0.005867   0.000008   0.006791   0.000057   0.000000   0.000000
    24  H    0.004148  -0.000058   0.000044   0.000005   0.000000  -0.000000
    25  H   -0.034405  -0.002666   0.000772  -0.000060  -0.000000   0.000002
    26  H   -0.044886  -0.000909   0.004190  -0.000055   0.000000  -0.000001
    27  H    0.004859  -0.000174  -0.039512   0.402284  -0.000062   0.000002
              19         20         21         22         23         24
     1  O    0.000000   0.000000  -0.000000  -0.000000   0.000000   0.000000
     2  N   -0.000001  -0.000000  -0.000000   0.000000  -0.000000   0.000000
     3  O    0.000000   0.000000   0.000000  -0.000000   0.000000   0.000000
     4  C   -0.000857  -0.000028   0.000000  -0.000000   0.000024   0.000000
     5  C    0.000744   0.000029   0.000001  -0.000002  -0.000000  -0.000000
     6  N    0.000584  -0.001630  -0.000059  -0.000097  -0.000024   0.000004
     7  C   -0.035071  -0.041783   0.004047  -0.004232   0.000433  -0.000141
     8  H    0.004079  -0.001855  -0.000080   0.003512   0.000033  -0.000099
     9  C    0.386150   0.397206  -0.035831  -0.045721  -0.002002   0.004400
    10  C   -0.032520  -0.037344   0.400138   0.395981  -0.040076  -0.038498
    11  C   -0.002254   0.004139  -0.035829  -0.045628   0.396693   0.400293
    12  C    0.000623  -0.000364   0.004213  -0.001221  -0.036577  -0.037887
    13  C   -0.006171   0.003871  -0.000381   0.000318  -0.005867   0.004148
    14  H    0.000065  -0.000049   0.000009  -0.000044   0.000008  -0.000058
    15  N    0.006902   0.000081  -0.000030   0.000002   0.006791   0.000044
    16  C    0.002592  -0.000031   0.000002  -0.000001   0.000057   0.000005
    17  H    0.000012  -0.000002  -0.000000   0.000000   0.000000   0.000000
    18  H   -0.000133   0.002822  -0.000000   0.000002   0.000000  -0.000000
    19  H    0.506344  -0.024043  -0.002594   0.003754   0.001636  -0.000070
    20  H   -0.024043   0.550339  -0.002619  -0.002969  -0.000049  -0.000090
    21  H   -0.002594  -0.002619   0.525979  -0.024692  -0.002808  -0.002060
    22  H    0.003754  -0.002969  -0.024692   0.568940   0.004059  -0.003599
    23  H    0.001636  -0.000049  -0.002808   0.004059   0.509381  -0.025005
    24  H   -0.000070  -0.000090  -0.002060  -0.003599  -0.025005   0.541165
    25  H   -0.000027   0.000011  -0.000086  -0.000082  -0.002092  -0.002381
    26  H    0.000022  -0.000035  -0.000074   0.002465   0.003821  -0.002771
    27  H    0.000076  -0.000000  -0.000000   0.000000  -0.000022  -0.000000
              25         26         27
     1  O    0.000000   0.000000   0.005909
     2  N   -0.000000  -0.000000  -0.000039
     3  O    0.000000   0.000000   0.000032
     4  C    0.000018   0.000006  -0.065850
     5  C   -0.000000  -0.000001   0.001916
     6  N   -0.000071  -0.000065   0.000051
     7  C    0.004993  -0.004441  -0.000405
     8  H   -0.000006   0.001582   0.000009
     9  C   -0.000369   0.001053  -0.000059
    10  C    0.004098  -0.002410   0.000005
    11  C   -0.033908  -0.042356   0.000005
    12  C    0.395400   0.394679  -0.000019
    13  C   -0.034405  -0.044886   0.004859
    14  H   -0.002666  -0.000909  -0.000174
    15  N    0.000772   0.004190  -0.039512
    16  C   -0.000060  -0.000055   0.402284
    17  H   -0.000000   0.000000  -0.000062
    18  H    0.000002  -0.000001   0.000002
    19  H   -0.000027   0.000022   0.000076
    20  H    0.000011  -0.000035  -0.000000
    21  H   -0.000086  -0.000074  -0.000000
    22  H   -0.000082   0.002465   0.000000
    23  H   -0.002092   0.003821  -0.000022
    24  H   -0.002381  -0.002771  -0.000000
    25  H    0.510413  -0.023116  -0.000010
    26  H   -0.023116   0.561380   0.000001
    27  H   -0.000010   0.000001   0.446952
 Mulliken charges:
               1
     1  O   -0.456647
     2  N    0.505185
     3  O   -0.485967
     4  C   -0.025311
     5  C    0.200372
     6  N   -0.791162
     7  C    0.056325
     8  H    0.178897
     9  C   -0.310727
    10  C   -0.321228
    11  C   -0.315586
    12  C   -0.312129
    13  C   -0.026212
    14  H    0.195146
    15  N   -0.501286
    16  C    0.123111
    17  H    0.289570
    18  H    0.397364
    19  H    0.190157
    20  H    0.154394
    21  H    0.172753
    22  H    0.149255
    23  H    0.191584
    24  H    0.162600
    25  H    0.183571
    26  H    0.151920
    27  H    0.244051
 Sum of Mulliken charges =  -0.00000
 Mulliken charges with hydrogens summed into heavy atoms:
               1
     1  O   -0.456647
     2  N    0.505185
     3  O   -0.485967
     4  C   -0.025311
     5  C    0.489942
     6  N   -0.393798
     7  C    0.235221
     9  C    0.033823
    10  C    0.000780
    11  C    0.038598
    12  C    0.023362
    13  C    0.168934
    15  N   -0.501286
    16  C    0.367162
 Electronic spatial extent (au):  <R**2>=           3130.3944
 Charge=             -0.0000 electrons
 Dipole moment (field-independent basis, Debye):
    X=              5.3799    Y=              4.5224    Z=              0.5657  Tot=              7.0508
 Quadrupole moment (field-independent basis, Debye-Ang):
   XX=           -105.6153   YY=            -80.0330   ZZ=            -82.4375
   XY=             -1.7660   XZ=              0.5202   YZ=             -0.2417
 Traceless Quadrupole moment (field-independent basis, Debye-Ang):
   XX=            -16.2534   YY=              9.3289   ZZ=              6.9245
   XY=             -1.7660   XZ=              0.5202   YZ=             -0.2417
 Octapole moment (field-independent basis, Debye-Ang**2):
  XXX=            102.4653  YYY=             36.3595  ZZZ=             -5.1690  XYY=             -1.9852
  XXY=             11.3727  XXZ=              1.6674  XZZ=             -7.6101  YZZ=             -2.6856
  YYZ=              1.4034  XYZ=              0.0252
 Hexadecapole moment (field-independent basis, Debye-Ang**3):
 XXXX=          -3569.8536 YYYY=           -615.4759 ZZZZ=           -302.7332 XXXY=            -36.6611
 XXXZ=              9.1119 YYYX=            -16.2685 YYYZ=              8.9960 ZZZX=             13.0246
 ZZZY=              5.7053 XXYY=           -655.6114 XXZZ=           -546.9697 YYZZ=           -164.8465
 XXYZ=             -3.1750 YYXZ=              5.9308 ZZXY=              2.5385
 N-N= 9.171803834130D+02 E-N=-3.380369119200D+03  KE= 6.588512512144D+02
 Calling FoFJK, ICntrl=  10002127 FMM=F ISym2X=0 I1Cent= 0 IOpClX= 0 NMat=1 NMatS=1 NMatT=0.
 -------------------------------------------------------------------
 Center     Atomic                   Forces (Hartrees/Bohr)
 Number     Number              X              Y              Z
 -------------------------------------------------------------------
      1        8           0.002121756   -0.018642335   -0.005547624
      2        7           0.039703039    0.011665010    0.006428030
      3        8          -0.004720561    0.016203335    0.002720917
      4        6          -0.004021400    0.009223352    0.001897574
      5        6           0.004272854   -0.016221857   -0.004069676
      6        7           0.014064229   -0.009944738   -0.006857687
      7        6          -0.004606478    0.005008126    0.003343689
      8        1          -0.010275467   -0.001735904   -0.007569392
      9        6          -0.004089212    0.000291377   -0.002188821
     10        6           0.002831935   -0.000902019    0.000997886
     11        6          -0.001039985   -0.004640225   -0.002387262
     12        6           0.000826102   -0.008722872   -0.002838204
     13        6           0.008827911   -0.002439265    0.004784721
     14        1           0.000863666    0.004444316   -0.009792070
     15        7           0.000574396    0.000979555    0.001934159
     16        6          -0.020750329    0.008096467    0.003426886
     17        1           0.007214725   -0.006383405   -0.005536716
     18        1          -0.017827029   -0.001751711    0.005870248
     19        1           0.003175824    0.005893336    0.007669681
     20        1          -0.003175385   -0.007342628    0.002666191
     21        1          -0.004275825    0.002440075    0.009653850
     22        1          -0.004059461   -0.004007444   -0.007337292
     23        1           0.004055238    0.006183188    0.009247352
     24        1          -0.009402839    0.002593030   -0.002037576
     25        1          -0.000841511    0.010592508   -0.002441908
     26        1          -0.004782561   -0.004836507   -0.004293031
     27        1           0.005336366    0.003957235    0.002256076
 -------------------------------------------------------------------
 Cartesian Forces:  Max     0.039703039 RMS     0.008321420

 GradGradGradGradGradGradGradGradGradGradGradGradGradGradGradGradGradGrad
 Berny optimization.
 FormGI is forming the generalized inverse of G from B-inverse, IUseBI=4.
 Internal  Forces:  Max     0.038275610 RMS     0.006914127
 Search for a local minimum.
 Step number   1 out of a maximum of   20
 All quantities printed in internal units (Hartrees-Bohrs-Radians)
 Mixed Optimization -- RFO/linear search
 Second derivative matrix not updated -- first step.
 ITU=  0
     Eigenvalues ---    0.00232   0.00771   0.01116   0.01187   0.01447
     Eigenvalues ---    0.01530   0.01588   0.01974   0.02017   0.02086
     Eigenvalues ---    0.02690   0.03666   0.04506   0.04695   0.04838
     Eigenvalues ---    0.05079   0.05138   0.05304   0.05889   0.06262
     Eigenvalues ---    0.07213   0.07700   0.07722   0.07864   0.07993
     Eigenvalues ---    0.08050   0.08054   0.10457   0.11733   0.12265
     Eigenvalues ---    0.13430   0.15174   0.15589   0.15986   0.16000
     Eigenvalues ---    0.20010   0.21970   0.22533   0.24764   0.25000
     Eigenvalues ---    0.25000   0.25380   0.26178   0.26649   0.27978
     Eigenvalues ---    0.28083   0.28474   0.29434   0.31462   0.31563
     Eigenvalues ---    0.32049   0.32238   0.32290   0.32381   0.32388
     Eigenvalues ---    0.32405   0.32516   0.32526   0.32581   0.33260
     Eigenvalues ---    0.33395   0.33602   0.35361   0.43883   0.44083
     Eigenvalues ---    0.49189   0.67053   0.90394   0.911611000.00000
     Eigenvalues --- 1000.000001000.000001000.000001000.000001000.00000
     Eigenvalues --- 1000.000001000.000001000.000001000.000001000.00000
     Eigenvalues --- 1000.000001000.000001000.000001000.000001000.00000
     Eigenvalues --- 1000.000001000.000001000.000001000.000001000.00000
     Eigenvalues --- 1000.000001000.000001000.000001000.000001000.00000
     Eigenvalues --- 1000.000001000.000001000.000001000.000001000.00000
     Eigenvalues --- 1000.000001000.000001000.000001000.000001000.00000
     Eigenvalues --- 1000.000001000.000001000.000001000.000001000.00000
     Eigenvalues --- 1000.000001000.000001000.000001000.000001000.00000
     Eigenvalues --- 1000.000001000.000001000.000001000.000001000.00000
     Eigenvalues --- 1000.000001000.000001000.000001000.000001000.00000
     Eigenvalues --- 1000.000001000.000001000.000001000.000001000.00000
     Eigenvalues --- 1000.000001000.000001000.000001000.000001000.00000
     Eigenvalues --- 1000.000001000.000001000.000001000.000001000.00000
     Eigenvalues --- 1000.000001000.000001000.000001000.000001000.00000
     Eigenvalues --- 1000.000001000.000001000.000001000.000001000.00000
     Eigenvalues --- 1000.000001000.000001000.000001000.000001000.00000
     Eigenvalues --- 1000.000001000.000001000.000001000.000001000.00000
     Eigenvalues --- 1000.000001000.00000
 RFO step:  Lambda=-2.38315533D-02 EMin= 2.32081436D-03
 Linear search not attempted -- first point.
 Iteration  1 RMS(Cart)=  0.05542693 RMS(Int)=  0.00108084
 Iteration  2 RMS(Cart)=  0.00117496 RMS(Int)=  0.00021390
 Iteration  3 RMS(Cart)=  0.00000104 RMS(Int)=  0.00021390
 Iteration  4 RMS(Cart)=  0.00000000 RMS(Int)=  0.00021390
 Iteration  1 RMS(Cart)=  0.00001821 RMS(Int)=  0.00001418
 Iteration  2 RMS(Cart)=  0.00001128 RMS(Int)=  0.00001547
 Iteration  3 RMS(Cart)=  0.00000731 RMS(Int)=  0.00001754
 Iteration  4 RMS(Cart)=  0.00000503 RMS(Int)=  0.00001940
 Iteration  5 RMS(Cart)=  0.00000368 RMS(Int)=  0.00002095
 Iteration  6 RMS(Cart)=  0.00000285 RMS(Int)=  0.00002222
 Iteration  7 RMS(Cart)=  0.00000229 RMS(Int)=  0.00002328
 Iteration  8 RMS(Cart)=  0.00000188 RMS(Int)=  0.00002418
 Iteration  9 RMS(Cart)=  0.00000156 RMS(Int)=  0.00002494
 Iteration 10 RMS(Cart)=  0.00000131 RMS(Int)=  0.00002559
 Iteration 11 RMS(Cart)=  0.00000110 RMS(Int)=  0.00002615
 Iteration 12 RMS(Cart)=  0.00000092 RMS(Int)=  0.00002663
 Variable       Old X    -DE/DX   Delta X   Delta X   Delta X     New X
                                 (Linear)    (Quad)   (Total)
    R1        2.32403   0.01784   0.00000   0.01907   0.01907   2.34310
    R2        2.32752   0.01574   0.00000   0.01696   0.01696   2.34448
    R3        2.89060  -0.03828   0.00000  -0.12036  -0.12036   2.77024
    R4        2.64563  -0.03444   0.00000  -0.07440  -0.07417   2.57146
    R5        2.81055  -0.02256   0.00000  -0.06445  -0.06423   2.74632
    R6        2.59080  -0.02550   0.00000  -0.04943  -0.04934   2.54147
    R7        2.08362  -0.01043   0.00000  -0.02916  -0.02916   2.05446
    R8        2.82428  -0.01935   0.00000  -0.05386  -0.05395   2.77033
    R9        1.93295  -0.00663   0.00000  -0.01433  -0.01433   1.91862
   R10        2.11839  -0.01195   0.00000  -0.03532  -0.03532   2.08307
   R11        2.92750  -0.01303   0.00000  -0.04437  -0.04439   2.88311
   R12        2.90226  -0.00422   0.00000  -0.00816  -0.00818   2.89409
   R13        2.91140  -0.00460   0.00000  -0.01437  -0.01439   2.89700
   R14        2.09909  -0.00996   0.00000  -0.02855  -0.02855   2.07054
   R15        2.09891  -0.00802   0.00000  -0.02297  -0.02297   2.07594
   R16        2.90432  -0.00180   0.00000  -0.00711  -0.00715   2.89716
   R17        2.10140  -0.01058   0.00000  -0.03043  -0.03043   2.07097
   R18        2.10316  -0.00900   0.00000  -0.02596  -0.02596   2.07721
   R19        2.91767  -0.00908   0.00000  -0.02877  -0.02875   2.88892
   R20        2.10411  -0.01168   0.00000  -0.03375  -0.03375   2.07037
   R21        2.10109  -0.00994   0.00000  -0.02858  -0.02858   2.07251
   R22        2.93532  -0.01059   0.00000  -0.03633  -0.03630   2.89901
   R23        2.10152  -0.01074   0.00000  -0.03090  -0.03090   2.07062
   R24        2.09794  -0.00784   0.00000  -0.02242  -0.02242   2.07553
   R25        2.10754  -0.00913   0.00000  -0.02652  -0.02652   2.08102
   R26        2.76771  -0.00530   0.00000  -0.01108  -0.01139   2.75631
   R27        2.44253  -0.00518   0.00000  -0.00693  -0.00698   2.43556
   R28        2.08008  -0.00642   0.00000  -0.01784  -0.01784   2.06224
    A1        2.15664   0.01122   0.00000   0.04112   0.04101   2.19765
    A2        2.05393  -0.00699   0.00000  -0.02540  -0.02550   2.02842
    A3        2.07235  -0.00418   0.00000  -0.01513  -0.01524   2.05711
    A4        2.02926  -0.00814   0.00000  -0.02645  -0.02663   2.00263
    A5        2.03221  -0.00212   0.00000  -0.00427  -0.00447   2.02774
    A6        2.21176   0.01022   0.00000   0.03120   0.03158   2.24333
    A7        2.20187   0.00650   0.00000   0.02046   0.02079   2.22266
    A8        2.06424  -0.00354   0.00000  -0.01165  -0.01184   2.05240
    A9        2.01572  -0.00293   0.00000  -0.00821  -0.00842   2.00730
   A10        2.25536  -0.00563   0.00000  -0.01974  -0.01980   2.23556
   A11        2.11291  -0.01268   0.00000  -0.07229  -0.07273   2.04018
   A12        1.87218   0.01856   0.00000   0.10072   0.10088   1.97306
   A13        1.83829  -0.00165   0.00000  -0.01794  -0.01775   1.82054
   A14        2.00670  -0.00117   0.00000  -0.01322  -0.01328   1.99343
   A15        1.96700   0.00110   0.00000   0.00159   0.00116   1.96817
   A16        1.85205   0.00270   0.00000   0.02426   0.02411   1.87615
   A17        1.84931   0.00087   0.00000   0.01876   0.01854   1.86785
   A18        1.93657  -0.00152   0.00000  -0.00910  -0.00879   1.92778
   A19        1.91007   0.00009   0.00000  -0.00510  -0.00524   1.90483
   A20        1.92270  -0.00072   0.00000  -0.01304  -0.01301   1.90969
   A21        1.92275  -0.00163   0.00000  -0.00683  -0.00681   1.91594
   A22        1.91935  -0.00040   0.00000   0.00564   0.00560   1.92495
   A23        1.90454   0.00307   0.00000   0.02451   0.02452   1.92906
   A24        1.88421  -0.00038   0.00000  -0.00475  -0.00500   1.87921
   A25        1.94043  -0.00084   0.00000   0.00575   0.00565   1.94608
   A26        1.91892  -0.00074   0.00000  -0.00703  -0.00705   1.91187
   A27        1.90500   0.00031   0.00000  -0.00299  -0.00305   1.90195
   A28        1.91613   0.00078   0.00000   0.00712   0.00716   1.92329
   A29        1.89852   0.00172   0.00000   0.01117   0.01119   1.90971
   A30        1.88380  -0.00122   0.00000  -0.01450  -0.01458   1.86922
   A31        1.94467   0.00071   0.00000   0.00520   0.00530   1.94998
   A32        1.90235   0.00057   0.00000   0.00584   0.00580   1.90815
   A33        1.91744   0.00039   0.00000   0.00525   0.00522   1.92266
   A34        1.90665  -0.00115   0.00000  -0.01429  -0.01433   1.89231
   A35        1.91537  -0.00050   0.00000   0.00017   0.00009   1.91546
   A36        1.87599  -0.00005   0.00000  -0.00254  -0.00257   1.87342
   A37        1.94764  -0.00305   0.00000  -0.01808  -0.01810   1.92954
   A38        1.90593   0.00253   0.00000   0.01683   0.01669   1.92263
   A39        1.91074   0.00143   0.00000   0.01318   0.01314   1.92388
   A40        1.90620   0.00024   0.00000  -0.00300  -0.00285   1.90335
   A41        1.91146  -0.00020   0.00000  -0.00456  -0.00450   1.90696
   A42        1.88062  -0.00088   0.00000  -0.00388  -0.00406   1.87656
   A43        1.84663   0.00461   0.00000   0.02320   0.02323   1.86985
   A44        1.93846  -0.00431   0.00000  -0.03081  -0.03123   1.90724
   A45        1.98285   0.00057   0.00000   0.01037   0.01062   1.99347
   A46        1.88093   0.00217   0.00000   0.02971   0.03002   1.91095
   A47        1.89202  -0.00379   0.00000  -0.02808  -0.02814   1.86388
   A48        1.91838   0.00096   0.00000  -0.00213  -0.00203   1.91635
   A49        2.08473  -0.00621   0.00000  -0.01389  -0.01438   2.07035
   A50        2.25115  -0.00493   0.00000  -0.02015  -0.02016   2.23099
   A51        1.98216   0.00490   0.00000   0.02336   0.02303   2.00519
   A52        2.04987   0.00003   0.00000  -0.00309  -0.00341   2.04646
    D1       -3.13825  -0.00139   0.00000   0.00610   0.00608  -3.13217
    D2        0.14415  -0.00198   0.00000   0.00000  -0.00000   0.14415
    D3       -0.02075   0.00108   0.00000   0.03301   0.03300   0.01224
    D4       -3.02154   0.00049   0.00000   0.02691   0.02692  -2.99462
    D5        3.13057  -0.00052   0.00000  -0.01626  -0.01633   3.11424
    D6        0.04760  -0.00106   0.00000  -0.02892  -0.02912   0.01848
    D7       -0.16846  -0.00124   0.00000  -0.01346  -0.01361  -0.18206
    D8        3.03176  -0.00178   0.00000  -0.02612  -0.02640   3.00536
    D9       -2.78735  -0.00133   0.00000  -0.01177  -0.01185  -2.79920
   D10        0.35058   0.00073   0.00000   0.02845   0.02853   0.37911
   D11        0.51191  -0.00014   0.00000  -0.01284  -0.01293   0.49898
   D12       -2.63335   0.00192   0.00000   0.02738   0.02745  -2.60590
   D13       -0.07006  -0.00044   0.00000   0.01460   0.01488  -0.05517
   D14        2.72026   0.00384   0.00000   0.06702   0.06591   2.78617
   D15        3.01434   0.00006   0.00000   0.02681   0.02726   3.04160
   D16       -0.47853   0.00434   0.00000   0.07923   0.07829  -0.40024
   D17        0.09920   0.00108   0.00000   0.00000   0.00001   0.09921
   D18       -2.51066  -0.00063   0.00000  -0.01567  -0.01529  -2.52595
   D19        1.74040  -0.00223   0.00000  -0.02655  -0.02623   1.71418
   D20       -0.50240  -0.00002   0.00000  -0.00308  -0.00310  -0.50550
   D21        0.94473  -0.00007   0.00000  -0.03779  -0.03835   0.90637
   D22       -1.08739  -0.00168   0.00000  -0.04867  -0.04929  -1.13668
   D23        2.95299   0.00054   0.00000  -0.02520  -0.02617   2.92682
   D24        2.94478   0.00232   0.00000   0.02563   0.02550   2.97028
   D25       -1.22611   0.00143   0.00000   0.02111   0.02099  -1.20511
   D26        0.85075  -0.00051   0.00000   0.00286   0.00282   0.85357
   D27        0.92053   0.00321   0.00000   0.03901   0.03900   0.95952
   D28        3.03282   0.00232   0.00000   0.03448   0.03449   3.06731
   D29       -1.17350   0.00039   0.00000   0.01623   0.01632  -1.15719
   D30       -1.08052   0.00144   0.00000   0.00793   0.00794  -1.07258
   D31        1.03178   0.00055   0.00000   0.00340   0.00343   1.03521
   D32        3.10864  -0.00139   0.00000  -0.01484  -0.01474   3.09390
   D33       -2.90027  -0.00101   0.00000  -0.01347  -0.01325  -2.91352
   D34       -0.86392   0.00202   0.00000   0.01938   0.01922  -0.84470
   D35        1.30939   0.00031   0.00000   0.00000  -0.00001   1.30938
   D36       -0.89866  -0.00191   0.00000  -0.02303  -0.02294  -0.92160
   D37        1.13769   0.00111   0.00000   0.00982   0.00953   1.14723
   D38       -2.97218  -0.00060   0.00000  -0.00956  -0.00970  -2.98188
   D39        1.10409   0.00101   0.00000   0.01147   0.01156   1.11566
   D40        3.14045   0.00403   0.00000   0.04432   0.04404  -3.09870
   D41       -0.96943   0.00232   0.00000   0.02493   0.02481  -0.94462
   D42        0.95665   0.00067   0.00000   0.00000   0.00000   0.95666
   D43        3.08227   0.00060   0.00000   0.00804   0.00800   3.09027
   D44       -1.13769  -0.00113   0.00000  -0.01551  -0.01548  -1.15317
   D45       -1.15768   0.00176   0.00000   0.01582   0.01589  -1.14178
   D46        0.96794   0.00169   0.00000   0.02387   0.02389   0.99183
   D47        3.03117  -0.00004   0.00000   0.00031   0.00041   3.03158
   D48        3.06181   0.00062   0.00000   0.00360   0.00356   3.06537
   D49       -1.09576   0.00054   0.00000   0.01164   0.01156  -1.08420
   D50        0.96747  -0.00118   0.00000  -0.01191  -0.01193   0.95554
   D51       -0.92192  -0.00082   0.00000   0.00000   0.00000  -0.92191
   D52        1.18346  -0.00143   0.00000  -0.01068  -0.01069   1.17278
   D53       -3.04841  -0.00093   0.00000  -0.00729  -0.00732  -3.05573
   D54       -3.04916   0.00014   0.00000   0.00021   0.00022  -3.04894
   D55       -0.94378  -0.00047   0.00000  -0.01047  -0.01047  -0.95425
   D56        1.10753   0.00003   0.00000  -0.00709  -0.00711   1.10043
   D57        1.17627   0.00015   0.00000   0.00708   0.00711   1.18338
   D58       -3.00154  -0.00046   0.00000  -0.00360  -0.00358  -3.00512
   D59       -0.95022   0.00004   0.00000  -0.00022  -0.00022  -0.95044
   D60        0.98791  -0.00088   0.00000  -0.01181  -0.01183   0.97608
   D61        3.09701  -0.00085   0.00000  -0.01591  -0.01605   3.08096
   D62       -1.13103   0.00039   0.00000  -0.00316  -0.00312  -1.13415
   D63       -1.11494  -0.00129   0.00000  -0.01296  -0.01294  -1.12788
   D64        0.99416  -0.00125   0.00000  -0.01706  -0.01716   0.97700
   D65        3.04930  -0.00001   0.00000  -0.00431  -0.00422   3.04507
   D66        3.11560  -0.00026   0.00000  -0.00159  -0.00158   3.11402
   D67       -1.05849  -0.00022   0.00000  -0.00569  -0.00580  -1.06429
   D68        0.99665   0.00102   0.00000   0.00707   0.00714   1.00379
   D69       -1.05295   0.00009   0.00000  -0.00008  -0.00001  -1.05296
   D70       -3.12781   0.00161   0.00000   0.00878   0.00844  -3.11937
   D71        1.07980   0.00134   0.00000   0.01020   0.01015   1.08996
   D72        3.12129  -0.00129   0.00000  -0.00754  -0.00741   3.11389
   D73        1.04644   0.00023   0.00000   0.00132   0.00104   1.04747
   D74       -1.02914  -0.00004   0.00000   0.00274   0.00275  -1.02638
   D75        1.06558  -0.00024   0.00000   0.00156   0.00173   1.06731
   D76       -1.00928   0.00127   0.00000   0.01042   0.01017  -0.99911
   D77       -3.08485   0.00100   0.00000   0.01183   0.01189  -3.07297
   D78       -1.17217   0.00395   0.00000   0.00000  -0.00001  -1.17218
   D79        3.06371   0.00039   0.00000  -0.01648  -0.01639   3.04732
   D80        1.01193  -0.00056   0.00000  -0.03471  -0.03495   0.97698
   D81        0.13276   0.00177   0.00000   0.02072   0.02056   0.15332
   D82       -3.00505  -0.00037   0.00000  -0.02085  -0.02069  -3.02574
         Item               Value     Threshold  Converged?
 Maximum Force            0.038401     0.000450     NO 
 RMS     Force            0.006999     0.000300     NO 
 Maximum Displacement     0.301884     0.001800     NO 
 RMS     Displacement     0.055574     0.001200     NO 
 Predicted change in Energy=-1.322431D-02
 GradGradGradGradGradGradGradGradGradGradGradGradGradGradGradGradGradGrad

                          Input orientation:                          
 ---------------------------------------------------------------------
 Center     Atomic      Atomic             Coordinates (Angstroms)
 Number     Number       Type             X           Y           Z
 ---------------------------------------------------------------------
      1          8           0       -3.495789   -1.402819   -0.294183
      2          7           0       -3.130960   -0.240299   -0.064323
      3          8           0       -3.876970    0.735461    0.110502
      4          6           0       -1.683632   -0.016332   -0.000469
      5          6           0       -1.317068    1.267030    0.264628
      6          7           0       -0.068514    1.745997    0.407536
      7          6           0        1.194407    1.002195    0.377125
      8          1           0        1.832441    1.518477    1.112967
      9          6           0        1.915178    1.047594   -0.966794
     10          6           0        3.318597    0.452315   -0.804817
     11          6           0        3.264929   -0.959209   -0.208866
     12          6           0        2.454135   -0.996039    1.086640
     13          6           0        1.041426   -0.445173    0.853747
     14          1           0        0.480997   -0.458483    1.801613
     15          7           0        0.398674   -1.328561   -0.112662
     16          6           0       -0.843703   -1.134601   -0.395488
     17          1           0       -2.109289    1.995074    0.420465
     18          1           0        0.056294    2.746289    0.286505
     19          1           0        1.343167    0.476351   -1.706394
     20          1           0        1.975606    2.085620   -1.321255
     21          1           0        3.823279    0.433429   -1.777423
     22          1           0        3.909728    1.104669   -0.146592
     23          1           0        2.797474   -1.639479   -0.929309
     24          1           0        4.280194   -1.329143   -0.021258
     25          1           0        2.380433   -2.024688    1.456858
     26          1           0        2.951948   -0.399999    1.863317
     27          1           0       -1.331981   -1.872655   -1.034057
 ---------------------------------------------------------------------
                    Distance matrix (angstroms):
                    1          2          3          4          5
     1  O    0.000000
     2  N    1.239914   0.000000
     3  O    2.209369   1.240646   0.000000
     4  C    2.300549   1.465946   2.321258   0.000000
     5  C    3.491015   2.381271   2.619049   1.360758   0.000000
     6  N    4.706768   3.680571   3.951424   2.425052   1.344887
     7  C    5.313443   4.521888   5.085381   3.076212   2.527904
     8  H    6.237313   5.395800   5.849395   3.994766   3.271440
     9  C    5.977916   5.285512   5.899743   3.875197   3.465829
    10  C    7.080827   6.528769   7.259074   5.088113   4.826682
    11  C    6.775793   6.437789   7.347151   5.041895   5.116155
    12  C    6.121579   5.752316   6.635799   4.388935   4.474277
    13  C    4.777148   4.277105   5.112428   2.887825   2.973415
    14  H    4.593359   4.071308   4.824648   2.851073   2.927927
    15  N    3.899398   3.693910   4.753012   2.463846   3.134201
    16  C    2.667539   2.478102   3.599148   1.453289   2.535283
    17  H    3.738821   2.505140   2.192578   2.098600   1.087174
    18  H    5.492684   4.381937   4.420969   3.277464   2.018615
    19  H    5.379694   4.819523   5.533360   3.509192   3.403961
    20  H    6.569645   5.750373   6.174585   4.421843   3.745239
    21  H    7.690290   7.193752   7.934061   5.803957   5.593571
    22  H    7.819908   7.168473   7.799684   5.706459   5.245461
    23  H    6.329656   6.152417   7.160290   4.855684   5.177136
    24  H    7.781119   7.490837   8.415418   6.106646   6.176665
    25  H    6.163022   5.989448   6.970379   4.761715   5.091988
    26  H    6.872682   6.383030   7.141131   5.010938   4.853792
    27  H    2.334571   2.615587   3.819588   2.153578   3.397709
                    6          7          8          9         10
     6  N    0.000000
     7  C    1.465993   0.000000
     8  H    2.040350   1.102315   0.000000
     9  C    2.512287   1.525677   2.134006   0.000000
    10  C    3.823079   2.492295   2.650143   1.533029   0.000000
    11  C    4.337042   2.911624   3.152490   2.534470   1.533113
    12  C    3.787308   2.466427   2.590364   2.946778   2.534291
    13  C    2.496457   1.531485   2.132798   2.511208   2.956658
    14  H    2.665547   2.161411   2.491788   3.462545   3.959167
    15  N    3.153059   2.511077   3.415184   2.945409   3.489490
    16  C    3.089273   3.052330   4.059065   3.563676   4.473320
    17  H    2.055959   3.449941   4.030377   4.361025   5.774371
    18  H    1.015287   2.084557   2.311982   2.812788   4.134721
    19  H    2.841398   2.153995   3.045360   1.095684   2.171576
    20  H    2.698608   2.160689   2.503514   1.098541   2.176699
    21  H    4.652196   3.446235   3.673570   2.162213   1.095912
    22  H    4.067526   2.767264   2.464315   2.157364   1.099210
    23  H    4.632762   3.354852   3.882636   2.828464   2.159321
    24  H    5.343370   3.887920   3.922614   3.483707   2.170766
    25  H    4.616978   3.425566   3.601747   3.940745   3.482940
    26  H    3.980928   2.695156   2.344541   3.343642   2.824855
    27  H    4.095019   4.079073   5.111072   4.367656   5.204412
                   11         12         13         14         15
    11  C    0.000000
    12  C    1.528752   0.000000
    13  C    2.517409   1.534092   0.000000
    14  H    3.470307   2.166432   1.101230   0.000000
    15  N    2.891555   2.402876   1.458578   2.104344   0.000000
    16  C    4.116606   3.618237   2.364235   2.653152   1.288841
    17  H    6.164906   5.496852   4.008683   3.825845   4.197696
    18  H    4.926606   4.516068   3.387872   3.570222   4.108644
    19  H    2.827824   3.347121   2.737622   3.731402   2.586456
    20  H    3.488659   3.939996   3.465291   4.296349   3.950195
    21  H    2.170613   3.481492   3.928575   4.977535   4.195706
    22  H    2.163154   2.837708   3.410257   4.242069   4.271915
    23  H    1.095590   2.143816   2.772970   3.770776   2.553003
    24  H    1.096727   2.161687   3.469388   4.302884   3.882595
    25  H    2.166153   1.095725   2.156745   2.485903   2.622090
    26  H    2.169013   1.098321   2.161335   2.472413   3.359453
    27  H    4.758877   4.427244   3.351801   3.650725   2.034742
                   16         17         18         19         20
    16  C    0.000000
    17  H    3.473090   0.000000
    18  H    4.041833   2.296087   0.000000
    19  H    3.015964   4.330069   3.283338   0.000000
    20  H    4.378969   4.441638   2.589428   1.771456   0.000000
    21  H    5.113627   6.516503   4.878452   2.481500   2.520262
    22  H    5.260360   6.110887   4.210872   3.068388   2.466359
    23  H    3.714571   6.253654   5.312930   2.682462   3.834768
    24  H    5.141227   7.216025   5.877516   3.837397   4.319922
    25  H    3.823414   6.114752   5.434479   4.163806   4.977593
    26  H    4.477589   5.782241   4.557441   4.012356   4.156085
    27  H    1.091288   4.204661   5.000583   3.623021   5.166290
                   21         22         23         24         25
    21  H    0.000000
    22  H    1.765685   0.000000
    23  H    2.463436   3.062695   0.000000
    24  H    2.529732   2.465034   1.766160   0.000000
    25  H    4.311000   3.834407   2.452775   2.505535   0.000000
    26  H    3.835206   2.687211   3.059237   2.485793   1.769591
    27  H    5.696255   6.093239   4.137360   5.728671   4.473230
                   26         27
    26  H    0.000000
    27  H    5.377317   0.000000
 Symmetry turned off by external request.
 Stoichiometry    C9H13N3O2
 Framework group  C1[X(C9H13N3O2)]
 Deg. of freedom    75
 Full point group                 C1      NOp   1
 Rotational constants (GHZ):           1.6864243           0.4209358           0.3721775
 Standard basis: 6-31G(d) (6D, 7F)
   236 basis functions,   444 primitive gaussians,   236 cartesian basis functions
    52 alpha electrons       52 beta electrons
       nuclear repulsion energy       932.0349468342 Hartrees.
 NAtoms=   27 NActive=   27 NUniq=   27 SFac= 1.00D+00 NAtFMM=   60 NAOKFM=F Big=F
 Integral buffers will be    131072 words long.
 Raffenetti 1 integral format.
 Two-electron integral symmetry is turned off.
 One-electron integrals computed using PRISM.
 NBasis=   236 RedAO= T EigKep=  1.03D-03  NBF=   236
 NBsUse=   236 1.00D-06 EigRej= -1.00D+00 NBFU=   236
 Initial guess from the checkpoint file:  "/home/alexey/tmp/Gau-1594836.chk"
 B after Tr=     0.056488    0.005494    0.000743
         Rot=    0.999999    0.000834    0.000235    0.001126 Ang=   0.16 deg.
 ExpMin= 1.61D-01 ExpMax= 5.48D+03 ExpMxC= 8.25D+02 IAcc=3 IRadAn=         5 AccDes= 0.00D+00
 Harris functional with IExCor=  205 and IRadAn=       5 diagonalized for initial guess.
 HarFok:  IExCor=  205 AccDes= 0.00D+00 IRadAn=         5 IDoV= 1 UseB2=F ITyADJ=14
 ICtDFT=  3500011 ScaDFX=  1.000000  1.000000  1.000000  1.000000
 FoFCou: FMM=F IPFlag=           0 FMFlag=      100000 FMFlg1=           0
         NFxFlg=           0 DoJE=T BraDBF=F KetDBF=T FulRan=T
         wScrn=  0.000000 ICntrl=       500 IOpCl=  0 I1Cent=   200000004 NGrid=           0
         NMat0=    1 NMatS0=      1 NMatT0=    0 NMatD0=    1 NMtDS0=    0 NMtDT0=    0
 Symmetry not used in FoFCou.
 Keep R1 ints in memory in canonical form, NReq=397720213.
 Requested convergence on RMS density matrix=1.00D-08 within 128 cycles.
 Requested convergence on MAX density matrix=1.00D-06.
 Requested convergence on             energy=1.00D-06.
 No special actions if energy rises.
 SCF Done:  E(RHF) =  -661.298768195     A.U. after   15 cycles
            NFock= 15  Conv=0.39D-08     -V/T= 2.0024
 ExpMin= 1.61D-01 ExpMax= 5.48D+03 ExpMxC= 8.25D+02 IAcc=3 IRadAn=         5 AccDes= 0.00D+00
 HarFok:  IExCor=  205 AccDes= 0.00D+00 IRadAn=         5 IDoV=-2 UseB2=F ITyADJ=14
 ICtDFT= 12500011 ScaDFX=  1.000000  1.000000  1.000000  1.000000
 Range of M.O.s used for correlation:    15   236
 NBasis=   236 NAE=    52 NBE=    52 NFC=    14 NFV=     0
 NROrb=    222 NOA=    38 NOB=    38 NVA=   184 NVB=   184
 Fully direct method using O(ONN) memory.
 JobTyp=1 Pass  1:  I=  15 to  52 NPSUse=  4 ParTrn=T ParDer=T DoDerP=T.
 Spin components of T(2) and E(2):
     alpha-alpha T2 =       0.9126376873D-01 E2=     -0.2723602566D+00
     alpha-beta  T2 =       0.4911927848D+00 E2=     -0.1487964215D+01
     beta-beta   T2 =       0.9126376873D-01 E2=     -0.2723602566D+00
 ANorm=    0.1293723433D+01
 E2 =    -0.2032684728D+01 EUMP2 =    -0.66333145292373D+03
          IDoAtm=111111111111111111111111111
          Differentiating once with respect to electric field.
                with respect to dipole field.
          Differentiating once with respect to nuclear coordinates.
 Keep R1 ints in memory in canonical form, NReq=397723379.
          There are     1 degrees of freedom in the 1st order CPHF.  IDoFFX=0 NUNeed=     1.
 LinEq1:  Iter=  0 NonCon=     1 RMS=4.57D-03 Max=1.06D-01 NDo=     1
 AX will form     1 AO Fock derivatives at one time.
 LinEq1:  Iter=  1 NonCon=     1 RMS=1.54D-03 Max=2.87D-02 NDo=     1
 LinEq1:  Iter=  2 NonCon=     1 RMS=6.42D-04 Max=1.80D-02 NDo=     1
 LinEq1:  Iter=  3 NonCon=     1 RMS=2.80D-04 Max=8.24D-03 NDo=     1
 LinEq1:  Iter=  4 NonCon=     1 RMS=8.71D-05 Max=1.94D-03 NDo=     1
[...]
    27  H    4.723881   4.418627   3.356688   3.656695   2.029377
                   16         17         18         19         20
    16  C    0.000000
    17  H    3.463947   0.000000
    18  H    4.088406   2.235820   0.000000
    19  H    2.990739   4.303340   3.511845   0.000000
    20  H    4.375233   4.449288   2.882004   1.768529   0.000000
    21  H    5.096554   6.511226   5.086524   2.499172   2.521020
    22  H    5.248777   6.100602   4.313340   3.070225   2.461451
    23  H    3.694905   6.234962   5.421184   2.704207   3.842913
    24  H    5.133762   7.200866   5.936715   3.849619   4.317103
    25  H    3.821428   6.088254   5.369678   4.171506   4.985026
    26  H    4.495207   5.781247   4.485251   4.035977   4.182243
    27  H    1.089677   4.215335   5.079342   3.583169   5.147820
                   21         22         23         24         25
    21  H    0.000000
    22  H    1.758860   0.000000
    23  H    2.469442   3.062279   0.000000
    24  H    2.517344   2.459888   1.764579   0.000000
    25  H    4.311995   3.839509   2.444103   2.519684   0.000000
    26  H    3.846712   2.704373   3.060440   2.491756   1.767990
    27  H    5.652737   6.060359   4.090224   5.694589   4.454430
                   26         27
    26  H    0.000000
    27  H    5.378515   0.000000
 Symmetry turned off by external request.
 Stoichiometry    C9H13N3O2
 Framework group  C1[X(C9H13N3O2)]
 Deg. of freedom    75
 Full point group                 C1      NOp   1
 Rotational constants (GHZ):           1.6800263           0.4193545           0.3721501

 **********************************************************************

            Population analysis using the SCF Density.

 **********************************************************************

 Alpha  occ. eigenvalues --  -20.59237 -20.58904 -15.84722 -15.64136 -15.56112
 Alpha  occ. eigenvalues --  -11.35017 -11.29623 -11.29559 -11.28627 -11.27134
 Alpha  occ. eigenvalues --  -11.23728 -11.23208 -11.22691 -11.22089  -1.57115
 Alpha  occ. eigenvalues --   -1.36709  -1.30977  -1.23065  -1.14703  -1.09819
 Alpha  occ. eigenvalues --   -1.02805  -1.01308  -0.94481  -0.89685  -0.85566
 Alpha  occ. eigenvalues --   -0.82448  -0.78609  -0.77411  -0.75203  -0.72019
 Alpha  occ. eigenvalues --   -0.69771  -0.69438  -0.67820  -0.64893  -0.63778
 Alpha  occ. eigenvalues --   -0.62367  -0.60282  -0.57700  -0.57001  -0.55077
 Alpha  occ. eigenvalues --   -0.54582  -0.50762  -0.50109  -0.48656  -0.48102
 Alpha  occ. eigenvalues --   -0.47372  -0.46146  -0.46044  -0.43678  -0.41695
 Alpha  occ. eigenvalues --   -0.39848  -0.33830
 Alpha virt. eigenvalues --    0.07465   0.11799   0.17308   0.21848   0.24112
 Alpha virt. eigenvalues --    0.25664   0.27134   0.28695   0.29044   0.29636
 Alpha virt. eigenvalues --    0.30682   0.31798   0.32036   0.32767   0.33951
 Alpha virt. eigenvalues --    0.34386   0.35849   0.37313   0.38581   0.40292
 Alpha virt. eigenvalues --    0.41387   0.42443   0.45026   0.46117   0.46731
 Alpha virt. eigenvalues --    0.47077   0.49000   0.53997   0.57579   0.59406
 Alpha virt. eigenvalues --    0.63913   0.69543   0.69908   0.72861   0.74243
 Alpha virt. eigenvalues --    0.74867   0.75781   0.76677   0.78661   0.79442
 Alpha virt. eigenvalues --    0.81386   0.84693   0.85718   0.85807   0.88530
 Alpha virt. eigenvalues --    0.89424   0.91052   0.92114   0.92855   0.94527
 Alpha virt. eigenvalues --    0.95642   0.98039   0.99638   1.01675   1.02471
 Alpha virt. eigenvalues --    1.03152   1.05873   1.06970   1.07900   1.09015
 Alpha virt. eigenvalues --    1.10283   1.11418   1.11855   1.12443   1.13916
 Alpha virt. eigenvalues --    1.14766   1.14991   1.15831   1.16904   1.18726
 Alpha virt. eigenvalues --    1.19137   1.21337   1.22576   1.23916   1.24534
 Alpha virt. eigenvalues --    1.24829   1.26039   1.26911   1.27488   1.29558
 Alpha virt. eigenvalues --    1.30009   1.33128   1.36069   1.37182   1.40861
 Alpha virt. eigenvalues --    1.41850   1.46492   1.48741   1.51702   1.54292
 Alpha virt. eigenvalues --    1.56373   1.58779   1.59554   1.63466   1.65625
 Alpha virt. eigenvalues --    1.68030   1.68624   1.72992   1.75223   1.77378
 Alpha virt. eigenvalues --    1.81580   1.84602   1.87687   1.90651   1.93492
 Alpha virt. eigenvalues --    1.95815   1.96957   1.99719   2.01571   2.02522
 Alpha virt. eigenvalues --    2.05102   2.05606   2.08497   2.09558   2.12395
 Alpha virt. eigenvalues --    2.13264   2.15297   2.18826   2.20015   2.22453
 Alpha virt. eigenvalues --    2.22640   2.24493   2.25492   2.28215   2.29549
 Alpha virt. eigenvalues --    2.31995   2.33725   2.34702   2.36401   2.38462
 Alpha virt. eigenvalues --    2.40483   2.41928   2.43869   2.45136   2.47364
 Alpha virt. eigenvalues --    2.50722   2.51948   2.53115   2.55575   2.61504
 Alpha virt. eigenvalues --    2.62311   2.65194   2.67627   2.70314   2.70495
 Alpha virt. eigenvalues --    2.72273   2.72650   2.76985   2.78442   2.83804
 Alpha virt. eigenvalues --    2.88566   2.88950   2.92945   2.93137   2.96057
 Alpha virt. eigenvalues --    2.99440   3.01343   3.04316   3.05726   3.07678
 Alpha virt. eigenvalues --    3.09416   3.15048   3.21212   3.25216   3.27458
 Alpha virt. eigenvalues --    3.33447   3.37785   3.38784   3.52166   3.65802
 Alpha virt. eigenvalues --    4.13675   4.28072   4.34717   4.38923   4.46297
 Alpha virt. eigenvalues --    4.56308   4.61873   4.62354   4.73466   4.79740
 Alpha virt. eigenvalues --    4.99416   5.00899   5.05025   5.11166
          Condensed to atoms (all electrons):
               1          2          3          4          5          6
     1  O    8.316115   0.306958  -0.082536  -0.085472   0.004640  -0.000016
     2  N    0.306958   5.722348   0.301242   0.264185  -0.053652   0.000969
     3  O   -0.082536   0.301242   8.353637  -0.092659   0.003636   0.000785
     4  C   -0.085472   0.264185  -0.092659   5.225600   0.560359  -0.047289
     5  C    0.004640  -0.053652   0.003636   0.560359   4.710003   0.317423
     6  N   -0.000016   0.000969   0.000785  -0.047289   0.317423   7.195587
     7  C    0.000004  -0.000140   0.000002   0.004629  -0.030204   0.169269
     8  H   -0.000000   0.000002  -0.000000  -0.000261   0.003094  -0.050666
     9  C   -0.000000  -0.000004  -0.000000   0.000855   0.000627  -0.061664
    10  C    0.000000   0.000000   0.000000  -0.000038  -0.000052   0.003748
    11  C   -0.000000  -0.000000  -0.000000  -0.000028   0.000025  -0.000190
    12  C   -0.000000   0.000002  -0.000000  -0.000127  -0.000176   0.003874
    13  C   -0.000025  -0.000039  -0.000004  -0.011559  -0.000585  -0.047696
    14  H   -0.000004  -0.000104   0.000001   0.002645   0.006076  -0.006959
    15  N    0.000382   0.002362  -0.000016  -0.063517  -0.006402   0.001598
    16  C    0.000845  -0.027274   0.002548   0.328502  -0.050337  -0.001854
    17  H    0.000220  -0.007232   0.017392  -0.023145   0.374513  -0.034182
    18  H    0.000001  -0.000050   0.000012   0.001506  -0.031445   0.338681
    19  H    0.000001  -0.000004   0.000000  -0.001226   0.001233  -0.000352
    20  H    0.000000  -0.000000   0.000000  -0.000079   0.000153  -0.000429
    21  H   -0.000000   0.000000   0.000000   0.000001   0.000001  -0.000077
    22  H   -0.000000   0.000000  -0.000000  -0.000000  -0.000003  -0.000117
    23  H    0.000000  -0.000000   0.000000   0.000041  -0.000000  -0.000031
    24  H    0.000000   0.000000   0.000000   0.000000  -0.000000   0.000006
    25  H    0.000000  -0.000000   0.000000   0.000024   0.000000  -0.000090
    26  H    0.000000  -0.000000   0.000000   0.000006  -0.000002  -0.000060
    27  H    0.006122  -0.000879   0.000018  -0.063399   0.002214   0.000017
               7          8          9         10         11         12
     1  O    0.000004  -0.000000  -0.000000   0.000000  -0.000000  -0.000000
     2  N   -0.000140   0.000002  -0.000004   0.000000  -0.000000   0.000002
     3  O    0.000002  -0.000000  -0.000000   0.000000  -0.000000  -0.000000
     4  C    0.004629  -0.000261   0.000855  -0.000038  -0.000028  -0.000127
     5  C   -0.030204   0.003094   0.000627  -0.000052   0.000025  -0.000176
     6  N    0.169269  -0.050666  -0.061664   0.003748  -0.000190   0.003874
     7  C    5.017563   0.418414   0.350533  -0.054672  -0.009030  -0.061077
     8  H    0.418414   0.538068  -0.055038   0.000777  -0.000325  -0.002230
     9  C    0.350533  -0.055038   5.158242   0.324775  -0.050416  -0.005343
    10  C   -0.054672   0.000777   0.324775   5.119309   0.337001  -0.060994
    11  C   -0.009030  -0.000325  -0.050416   0.337001   5.119930   0.335976
    12  C   -0.061077  -0.002230  -0.005343  -0.060994   0.335976   5.118638
    13  C    0.338601  -0.037934  -0.060248  -0.000285  -0.050690   0.371989
    14  H   -0.046596  -0.000746   0.004423  -0.000405   0.004196  -0.036320
    15  N   -0.057951   0.003899  -0.014616   0.001561  -0.013062  -0.082066
    16  C   -0.001776   0.000009  -0.001270  -0.000029   0.000029   0.002608
    17  H    0.001616  -0.000045  -0.000070   0.000001   0.000000   0.000000
    18  H   -0.021214  -0.004472   0.001328  -0.000083   0.000004  -0.000114
    19  H   -0.036855   0.004361   0.390226  -0.032071  -0.002212   0.000689
    20  H   -0.042413  -0.002077   0.399485  -0.035301   0.003931  -0.000415
    21  H    0.004599  -0.000076  -0.036357   0.402433  -0.034896   0.004349
    22  H   -0.004847   0.003558  -0.046956   0.397753  -0.045403  -0.001021
    23  H    0.000577   0.000035  -0.001958  -0.039018   0.399179  -0.037864
    24  H   -0.000130  -0.000102   0.004388  -0.038437   0.402340  -0.038691
    25  H    0.005152  -0.000025  -0.000423   0.004190  -0.033399   0.398274
    26  H   -0.003906   0.001685   0.000969  -0.002232  -0.041480   0.396732
    27  H   -0.000408   0.000009  -0.000058   0.000007   0.000012  -0.000036
              13         14         15         16         17         18
     1  O   -0.000025  -0.000004   0.000382   0.000845   0.000220   0.000001
     2  N   -0.000039  -0.000104   0.002362  -0.027274  -0.007232  -0.000050
     3  O   -0.000004   0.000001  -0.000016   0.002548   0.017392   0.000012
     4  C   -0.011559   0.002645  -0.063517   0.328502  -0.023145   0.001506
     5  C   -0.000585   0.006076  -0.006402  -0.050337   0.374513  -0.031445
     6  N   -0.047696  -0.006959   0.001598  -0.001854  -0.034182   0.338681
     7  C    0.338601  -0.046596  -0.057951  -0.001776   0.001616  -0.021214
     8  H   -0.037934  -0.000746   0.003899   0.000009  -0.000045  -0.004472
     9  C   -0.060248   0.004423  -0.014616  -0.001270  -0.000070   0.001328
    10  C   -0.000285  -0.000405   0.001561  -0.000029   0.000001  -0.000083
    11  C   -0.050690   0.004196  -0.013062   0.000029   0.000000   0.000004
    12  C    0.371989  -0.036320  -0.082066   0.002608   0.000000  -0.000114
    13  C    5.040276   0.403080   0.244772  -0.071085  -0.000008   0.002971
    14  H    0.403080   0.526778  -0.037369  -0.004538   0.000093  -0.000108
    15  N    0.244772  -0.037369   6.965133   0.585199  -0.000080  -0.000132
    16  C   -0.071085  -0.004538   0.585199   4.709879   0.002012  -0.000197
    17  H   -0.000008   0.000093  -0.000080   0.002012   0.376482  -0.002817
    18  H    0.002971  -0.000108  -0.000132  -0.000197  -0.002817   0.310601
    19  H   -0.007549   0.000106   0.007694   0.003001   0.000016  -0.000149
    20  H    0.004340  -0.000066   0.000126  -0.000036   0.000002   0.000807
    21  H   -0.000433   0.000010  -0.000041   0.000004  -0.000000   0.000001
    22  H    0.000045  -0.000055   0.000019  -0.000002   0.000000   0.000001
    23  H   -0.007524   0.000003   0.008590   0.000106   0.000000   0.000000
    24  H    0.004700  -0.000057   0.000136   0.000007   0.000000  -0.000000
    25  H   -0.035564  -0.002818   0.000409  -0.000022  -0.000000   0.000002
    26  H   -0.047415  -0.001047   0.004900  -0.000061   0.000000  -0.000000
    27  H    0.005060  -0.000174  -0.040317   0.403676  -0.000079   0.000001
              19         20         21         22         23         24
     1  O    0.000001   0.000000  -0.000000  -0.000000   0.000000   0.000000
     2  N   -0.000004  -0.000000   0.000000   0.000000  -0.000000   0.000000
     3  O    0.000000   0.000000   0.000000  -0.000000   0.000000   0.000000
     4  C   -0.001226  -0.000079   0.000001  -0.000000   0.000041   0.000000
     5  C    0.001233   0.000153   0.000001  -0.000003  -0.000000  -0.000000
     6  N   -0.000352  -0.000429  -0.000077  -0.000117  -0.000031   0.000006
     7  C   -0.036855  -0.042413   0.004599  -0.004847   0.000577  -0.000130
     8  H    0.004361  -0.002077  -0.000076   0.003558   0.000035  -0.000102
     9  C    0.390226   0.399485  -0.036357  -0.046956  -0.001958   0.004388
    10  C   -0.032071  -0.035301   0.402433   0.397753  -0.039018  -0.038437
    11  C   -0.002212   0.003931  -0.034896  -0.045403   0.399179   0.402340
    12  C    0.000689  -0.000415   0.004349  -0.001021  -0.037864  -0.038691
    13  C   -0.007549   0.004340  -0.000433   0.000045  -0.007524   0.004700
    14  H    0.000106  -0.000066   0.000010  -0.000055   0.000003  -0.000057
    15  N    0.007694   0.000126  -0.000041   0.000019   0.008590   0.000136
    16  C    0.003001  -0.000036   0.000004  -0.000002   0.000106   0.000007
    17  H    0.000016   0.000002  -0.000000   0.000000   0.000000   0.000000
    18  H   -0.000149   0.000807   0.000001   0.000001   0.000000  -0.000000
    19  H    0.504950  -0.024738  -0.002787   0.003959   0.001514  -0.000066
    20  H   -0.024738   0.541156  -0.002692  -0.002990  -0.000045  -0.000083
    21  H   -0.002787  -0.002692   0.524027  -0.027403  -0.002898  -0.002242
    22  H    0.003959  -0.002990  -0.027403   0.571320   0.004137  -0.003656
    23  H    0.001514  -0.000045  -0.002898   0.004137   0.498952  -0.025450
    24  H   -0.000066  -0.000083  -0.002242  -0.003656  -0.025450   0.538124
    25  H   -0.000029   0.000012  -0.000087  -0.000080  -0.002318  -0.002292
    26  H    0.000019  -0.000030  -0.000081   0.002380   0.004067  -0.003034
    27  H    0.000083   0.000000  -0.000000   0.000000  -0.000035  -0.000000
              25         26         27
     1  O    0.000000   0.000000   0.006122
     2  N   -0.000000  -0.000000  -0.000879
     3  O    0.000000   0.000000   0.000018
     4  C    0.000024   0.000006  -0.063399
     5  C    0.000000  -0.000002   0.002214
     6  N   -0.000090  -0.000060   0.000017
     7  C    0.005152  -0.003906  -0.000408
     8  H   -0.000025   0.001685   0.000009
     9  C   -0.000423   0.000969  -0.000058
    10  C    0.004190  -0.002232   0.000007
    11  C   -0.033399  -0.041480   0.000012
    12  C    0.398274   0.396732  -0.000036
    13  C   -0.035564  -0.047415   0.005060
    14  H   -0.002818  -0.001047  -0.000174
    15  N    0.000409   0.004900  -0.040317
    16  C   -0.000022  -0.000061   0.403676
    17  H   -0.000000   0.000000  -0.000079
    18  H    0.000002  -0.000000   0.000001
    19  H   -0.000029   0.000019   0.000083
    20  H    0.000012  -0.000030   0.000000
    21  H   -0.000087  -0.000081  -0.000000
    22  H   -0.000080   0.002380   0.000000
    23  H   -0.002318   0.004067  -0.000035
    24  H   -0.002292  -0.003034  -0.000000
    25  H    0.506112  -0.024078  -0.000013
    26  H   -0.024078   0.562320   0.000001
    27  H   -0.000013   0.000001   0.439290
 Mulliken charges:
               1
     1  O   -0.467236
     2  N    0.491310
     3  O   -0.504058
     4  C    0.000448
     5  C    0.188862
     6  N   -0.780287
     7  C    0.060260
     8  H    0.180084
     9  C   -0.301430
    10  C   -0.327939
    11  C   -0.321491
    12  C   -0.306657
    13  C   -0.037193
    14  H    0.189954
    15  N   -0.511213
    16  C    0.120056
    17  H    0.295310
    18  H    0.404869
    19  H    0.190186
    20  H    0.161383
    21  H    0.174646
    22  H    0.149361
    23  H    0.199942
    24  H    0.164540
    25  H    0.187061
    26  H    0.150347
    27  H    0.248889
 Sum of Mulliken charges =  -0.00000
 Mulliken charges with hydrogens summed into heavy atoms:
               1
     1  O   -0.467236
     2  N    0.491310
     3  O   -0.504058
     4  C    0.000448
     5  C    0.484172
     6  N   -0.375418
     7  C    0.240344
     9  C    0.050139
    10  C   -0.003932
    11  C    0.042990
    12  C    0.030751
    13  C    0.152761
    15  N   -0.511213
    16  C    0.368944
 Electronic spatial extent (au):  <R**2>=           3005.2822
 Charge=             -0.0000 electrons
 Dipole moment (field-independent basis, Debye):
    X=              5.4157    Y=              4.7975    Z=              1.2750  Tot=              7.3465
 Quadrupole moment (field-independent basis, Debye-Ang):
   XX=           -106.1393   YY=            -79.2239   ZZ=            -81.5024
   XY=             -1.7685   XZ=             -0.1185   YZ=              1.8578
 Traceless Quadrupole moment (field-independent basis, Debye-Ang):
   XX=            -17.1841   YY=              9.7313   ZZ=              7.4528
   XY=             -1.7685   XZ=             -0.1185   YZ=              1.8578
 Octapole moment (field-independent basis, Debye-Ang**2):
  XXX=             92.3889  YYY=             36.3206  ZZZ=             -1.5770  XYY=             -4.5766
  XXY=              9.5573  XXZ=              4.8276  XZZ=             -9.7673  YZZ=             -0.3988
  YYZ=              7.9354  XYZ=              0.2434
 Hexadecapole moment (field-independent basis, Debye-Ang**3):
 XXXX=          -3381.9522 YYYY=           -600.9941 ZZZZ=           -303.8474 XXXY=            -21.0709
 XXXZ=            -12.6614 YYYX=             -9.0725 YYYZ=             25.1241 ZZZX=              2.3877
 ZZZY=              7.2092 XXYY=           -627.7613 XXZZ=           -523.7682 YYZZ=           -157.3460
 XXYZ=             -4.1902 YYXZ=              1.8922 ZZXY=              4.6630
 N-N= 9.312405555866D+02 E-N=-3.409197688382D+03  KE= 6.596290768514D+02
 Unable to Open any file for archive entry.
 1\1\GINC-LOTUS\FOpt\RMP2-FC\6-31G(d)\C9H13N3O2\ALEXEY\02-Jul-2023\0\\#
 MP2/6-31G* SCF=Tight Opt=(ModRedun, MaxCycle=20 ) NoSymm\\MolName:\\0,
 1\O,-3.5067428859,-1.3911457528,-0.3680372312\N,-3.1210560943,-0.23277
 92468,-0.1165626425\O,-3.8953706814,0.7282900987,0.0571913983\C,-1.686
 5693054,-0.0241007408,-0.0084779236\C,-1.3014023539,1.2606271071,0.275
 3456812\N,-0.057179004,1.7504163488,0.3854105929\C,1.2057126247,1.0243
 582163,0.3584184757\H,1.8537592247,1.5539408377,1.0730884154\C,1.90851
 49585,1.0343572781,-0.9977753137\C,3.3070196513,0.4279461009,-0.833931
 4286\C,3.2594441193,-0.9676281223,-0.2061522386\C,2.4651176719,-0.9771
 639006,1.1017251386\C,1.0552425922,-0.4238392318,0.8654847582\H,0.4791
 266116,-0.4017934204,1.804148428\N,0.4083909847,-1.3180793257,-0.08967
 70422\C,-0.8391120184,-1.1386795484,-0.3846310217\H,-2.096187944,1.987
 5619785,0.4186776438\H,0.001672211,2.7357578058,0.613808989\H,1.313950
 774,0.456254266,-1.7131734721\H,1.9742259695,2.0619702189,-1.376414911
 4\H,3.8104683258,0.3890642965,-1.8066931787\H,3.9070954824,1.094825308
 1,-0.1985415242\H,2.7814493522,-1.6650273883,-0.9011709835\H,4.2787232
 789,-1.3309266786,-0.029226374\H,2.3799528714,-1.9987535805,1.48651998
 66\H,2.9753833765,-0.378575614,1.868977901\H,-1.3006297933,-1.89385731
 07,-1.0203221224\\Version=ES64L-G16RevC.02\HF=-661.3003584\MP2=-663.33
 46494\RMSD=5.354e-09\RMSF=1.062e-05\Dipole=1.9791706,1.6924351,0.46897
 24\PG=C01 [X(C9H13N3O2)]\\@
 The archive entry for this job was punched.


 IN THE WOODS WE RETURN TO REASON AND FAITH.

                                 -- EMERSON
 Job cpu time:       0 days  1 hours  9 minutes 20.2 seconds.
 Elapsed time:       0 days  0 hours 20 minutes 54.5 seconds.
 File lengths (MBytes):  RWF=     36 Int=      0 D2E=      0 Chk=      7 Scr=      1
 Normal termination of Gaussian 16 at Sun Jul  2 23:20:45 2023.
