 Entering Gaussian System, Link 0=g16
 Initial command:
 /home/alexey/programs//g16/l1.exe "/home/alexey/tmp/Gau-1269717.inp" -scrdir="/home/alexey/tmp/"
 Entering Link 1 = /home/alexey/programs//g16/l1.exe PID=   1269719.
  
 Copyright (c) 1988-2021, Gaussian, Inc.  All Rights Reserved.
  
 This is part of the Gaussian(R) 16 program.  It is based on
 the Gaussian(R) 09 system (copyright 2009, Gaussian, Inc.),
 the Gaussian(R) 03 system (copyright 2003, Gaussian, Inc.),
 the Gaussian(R) 98 system (copyright 1998, Gaussian, Inc.),
 the Gaussian(R) 94 system (copyright 1995, Gaussian, Inc.),
 the Gaussian 92(TM) system (copyright 1992, Gaussian, Inc.),
 the Gaussian 90(TM) system (copyright 1990, Gaussian, Inc.),
 the Gaussian 88(TM) system (copyright 1988, Gaussian, Inc.),
 the Gaussian 86(TM) system (copyright 1986, Carnegie Mellon
 University), and the Gaussian 82(TM) system (copyright 1983,
 Carnegie Mellon University). Gaussian is a federally registered
 trademark of Gaussian, Inc.
  
 This software contains proprietary and confidential information,
 including trade secrets, belonging to Gaussian, Inc.
  
 This software is provided under written license and may be
 used, copied, transmitted, or stored only in accord with that
 written license.
  
 The following legend is applicable only to US Government
 contracts under FAR:
  
                    RESTRICTED RIGHTS LEGEND
  
 Use, reproduction and disclosure by the US Government is
 subject to restrictions as set forth in subparagraphs (a)
 and (c) of the Commercial Computer Software - Restricted
 Rights clause in FAR 52.227-19.
  
 Gaussian, Inc.
 340 Quinnipiac St., Bldg. 40, Wallingford CT 06492
  
  
 ---------------------------------------------------------------
 Warning -- This program may not be used in any manner that
 competes with the business of Gaussian, Inc. or will provide
 assistance to any competitor of Gaussian, Inc.  The licensee
 of this program is prohibited from giving any competitor of
 Gaussian, Inc. access to this program.  By using this program,
 the user acknowledges that Gaussian, Inc. is engaged in the
 business of creating and licensing software in the field of
 computational chemistry and represents and warrants to the
 licensee that it is not a competitor of Gaussian, Inc. and that
 it will not use this program in any manner prohibited above.
 ---------------------------------------------------------------
  

 Cite this work as:
 Gaussian 16, Revision C.02,
 M. J. Frisch, G. W. Trucks, H. B. Schlegel, G. E. Scuseria, 
 M. A. Robb, J. R. Cheeseman, G. Scalmani, V. Barone, 
 G. A. Petersson, H. Nakatsuji, X. Li, M. Caricato, A. V. Marenich, 
 J. Bloino, B. G. Janesko, R. Gomperts, B. Mennucci, H. P. Hratchian, 
 J. V. Ortiz, A. F. Izmaylov, J. L. Sonnenberg, D. Williams-Young, 
 F. Ding, F. Lipparini, F. Egidi, J. Goings, B. Peng, A. Petrone, 
 T. Henderson, D. Ranasinghe, V. G. Zakrzewski, J. Gao, N. Rega, 
 G. Zheng, W. Liang, M. Hada, M. Ehara, K. Toyota, R. Fukuda, 
 J. Hasegawa, M. Ishida, T. Nakajima, Y. Honda, O. Kitao, H. Nakai, 
 T. Vreven, K. Throssell, J. A. Montgomery, Jr., J. E. Peralta, 
 F. Ogliaro, M. J. Bearpark, J. J. Heyd, E. N. Brothers, K. N. Kudin, 
 V. N. Staroverov, T. A. Keith, R. Kobayashi, J. Normand, 
 K. Raghavachari, A. P. Rendell, J. C. Burant, S. S. Iyengar, 
 J. Tomasi, M. Cossi, J. M. Millam, M. Klene, C. Adamo, R. Cammi, 
 J. W. Ochterski, R. L. Martin, K. Morokuma, O. Farkas, 
 J. B. Foresman, and D. J. Fox, Gaussian, Inc., Wallingford CT, 2019.
 
 ******************************************
 Gaussian 16:  ES64L-G16RevC.02  7-Dec-2021
                 1-Jul-2023 
 ******************************************
 %mem=8GB
 %NPROCS=4
 Will use up to    4 processors via shared memory.
 %NoSave
 ---------------------------------------------------------
 #MP2/6-31G* SCF=Tight Opt=(ModRedun, MaxCycle=20 ) NoSymm
 ---------------------------------------------------------
 1/6=20,18=120,19=15,38=1/1,3;
 2/9=110,12=2,15=1,17=6,18=5,40=1/2;
 3/5=1,6=6,7=1,11=9,25=1,30=1,71=1/1,2,3;
 4//1;
 5/5=2,32=2,38=5/2;
 8/6=4,10=2/1;
 9/15=2,16=-3/6;
 10/5=1,31=1/2;
 6/7=2,8=2,9=2,10=2/1;
 7/12=2,30=1/1,2,3,16;
 1/6=20,18=20,19=15/3(2);
 2/9=110,15=1/2;
 99//99;
 2/9=110,15=1/2;
 3/5=1,6=6,7=1,11=9,25=1,30=1,71=1/1,2,3;
 4/5=5,16=3,69=1/1;
 5/5=2,32=2,38=5/2;
 8/6=4,10=2/1;
 9/15=2,16=-3/6;
 10/5=1,31=1/2;
 7/12=2,30=1/1,2,3,16;
 1/6=20,18=20,19=15/3(-8);
 2/9=110,15=1/2;
 6/7=2,8=2,9=2,10=2/1;
 99/9=10/99;
 --------
 MolName:
 --------
 Symbolic Z-matrix:
 Charge =  0 Multiplicity = 1
 8                    0    -3.66786  -1.23637  -0.19048 
 7                    0    -3.17853  -0.12678  -0.39792 
 8                    0    -3.80596   0.81149  -0.89191 
 6                    0    -1.66028   0.03777  -0.27294 
 6                    0    -1.3252    1.30586   0.21305 
 7                    0    -0.09631   1.6741    0.68465 
 6                    0     1.19278   0.95344   0.49575 
 1                    0     1.92011   1.45549   1.18621 
 6                    0     1.81417   1.04992  -0.91979 
 6                    0     3.25373   0.50302  -0.88453 
 6                    0     3.28978  -0.92379  -0.31391 
 6                    0     2.57632  -1.00212   1.05335 
 6                    0     1.10777  -0.50423   0.96122 
 1                    0     0.66102  -0.5651    1.98172 
 7                    0     0.37456  -1.39708   0.06004 
 6                    0    -0.89964  -1.23347  -0.09349 
 1                    0    -2.08824   2.10202   0.18395 
 1                    0     0.1275    2.66015   0.83919 
 1                    0     1.207     0.46667  -1.64441 
 1                    0     1.83116   2.10765  -1.25836 
 1                    0     3.68744   0.51015  -1.90845 
 1                    0     3.87976   1.16221  -0.24261 
 1                    0     2.78605  -1.61272  -1.02911 
 1                    0     4.34346  -1.26246  -0.20837 
 1                    0     2.58487  -2.05502   1.41119 
 1                    0     3.13038  -0.38915   1.7948 
 1                    0    -1.48484  -2.12866  -0.35083 
 
 The following ModRedundant input section has been read:
 D       4       5      16       2 F                                           
 D       1       2       4      16 F                                           
 D       7      13      15      16 F                                           
 D       7       9      10      11 F                                           
 D       9      10      11      12 F                                           
 D       6       7      13      15 F                                           
 

 GradGradGradGradGradGradGradGradGradGradGradGradGradGradGradGradGradGrad
 Berny optimization.
 Initialization pass.
                           ----------------------------
                           !    Initial Parameters    !
                           ! (Angstroms and Degrees)  !
 --------------------------                            --------------------------
 ! Name  Definition              Value          Derivative Info.                !
 --------------------------------------------------------------------------------
 ! R1    R(1,2)                  1.2303         estimate D2E/DX2                !
 ! R2    R(2,3)                  1.2321         estimate D2E/DX2                !
 ! R3    R(2,4)                  1.5322         estimate D2E/DX2                !
 ! R4    R(4,5)                  1.3988         estimate D2E/DX2                !
 ! R5    R(4,16)                 1.4923         estimate D2E/DX2                !
 ! R6    R(5,6)                  1.3668         estimate D2E/DX2                !
 ! R7    R(5,17)                 1.1032         estimate D2E/DX2                !
 ! R8    R(6,7)                  1.4889         estimate D2E/DX2                !
 ! R9    R(6,18)                 1.0229         estimate D2E/DX2                !
 ! R10   R(7,8)                  1.1215         estimate D2E/DX2                !
 ! R11   R(7,9)                  1.5489         estimate D2E/DX2                !
 ! R12   R(7,13)                 1.5325         estimate D2E/DX2                !
 ! R13   R(9,10)                 1.5403         estimate D2E/DX2                !
 ! R14   R(9,19)                 1.1108         estimate D2E/DX2                !
 ! R15   R(9,20)                 1.1107         estimate D2E/DX2                !
 ! R16   R(10,11)                1.5371         estimate D2E/DX2                !
 ! R17   R(10,21)                1.112          estimate D2E/DX2                !
 ! R18   R(10,22)                1.1129         estimate D2E/DX2                !
 ! R19   R(11,12)                1.5442         estimate D2E/DX2                !
 ! R20   R(11,23)                1.1135         estimate D2E/DX2                !
 ! R21   R(11,24)                1.1118         estimate D2E/DX2                !
 ! R22   R(12,13)                1.5534         estimate D2E/DX2                !
 ! R23   R(12,25)                1.1121         estimate D2E/DX2                !
 ! R24   R(12,26)                1.1102         estimate D2E/DX2                !
 ! R25   R(13,14)                1.1157         estimate D2E/DX2                !
 ! R26   R(13,15)                1.4652         estimate D2E/DX2                !
 ! R27   R(15,16)                1.2938         estimate D2E/DX2                !
 ! R28   R(16,27)                1.1            estimate D2E/DX2                !
 ! A1    A(1,2,3)              123.4951         estimate D2E/DX2                !
 ! A2    A(1,2,4)              118.5025         estimate D2E/DX2                !
 ! A3    A(3,2,4)              117.0978         estimate D2E/DX2                !
 ! A4    A(2,4,5)              111.2886         estimate D2E/DX2                !
 ! A5    A(2,4,16)             115.0489         estimate D2E/DX2                !
 ! A6    A(5,4,16)             127.4755         estimate D2E/DX2                !
 ! A7    A(4,5,6)              125.4162         estimate D2E/DX2                !
 ! A8    A(4,5,17)             118.6482         estimate D2E/DX2                !
 ! A9    A(6,5,17)             115.8842         estimate D2E/DX2                !
 ! A10   A(5,6,7)              127.1756         estimate D2E/DX2                !
 ! A11   A(5,6,18)             120.5688         estimate D2E/DX2                !
 ! A12   A(7,6,18)             107.2371         estimate D2E/DX2                !
 ! A13   A(6,7,8)              105.4687         estimate D2E/DX2                !
 ! A14   A(6,7,9)              115.6668         estimate D2E/DX2                !
 ! A15   A(6,7,13)             111.9512         estimate D2E/DX2                !
 ! A16   A(8,7,9)              105.9368         estimate D2E/DX2                !
 ! A17   A(8,7,13)             105.9482         estimate D2E/DX2                !
 ! A18   A(9,7,13)             111.0428         estimate D2E/DX2                !
 ! A19   A(7,9,10)             109.3834         estimate D2E/DX2                !
 ! A20   A(7,9,19)             110.131          estimate D2E/DX2                !
 ! A21   A(7,9,20)             110.122          estimate D2E/DX2                !
 ! A22   A(10,9,19)            109.8368         estimate D2E/DX2                !
 ! A23   A(10,9,20)            109.3168         estimate D2E/DX2                !
 ! A24   A(19,9,20)            108.031          estimate D2E/DX2                !
 ! A25   A(9,10,11)            111.0995         estimate D2E/DX2                !
 ! A26   A(9,10,21)            109.9469         estimate D2E/DX2                !
 ! A27   A(9,10,22)            109.1851         estimate D2E/DX2                !
 ! A28   A(11,10,21)           109.7932         estimate D2E/DX2                !
 ! A29   A(11,10,22)           108.8143         estimate D2E/DX2                !
 ! A30   A(21,10,22)           107.9338         estimate D2E/DX2                !
 ! A31   A(10,11,12)           111.404          estimate D2E/DX2                !
 ! A32   A(10,11,23)           108.9814         estimate D2E/DX2                !
 ! A33   A(10,11,24)           109.8907         estimate D2E/DX2                !
 ! A34   A(12,11,23)           109.1659         estimate D2E/DX2                !
 ! A35   A(12,11,24)           109.7778         estimate D2E/DX2                !
 ! A36   A(23,11,24)           107.5323         estimate D2E/DX2                !
 ! A37   A(11,12,13)           111.5935         estimate D2E/DX2                !
 ! A38   A(11,12,25)           109.2311         estimate D2E/DX2                !
 ! A39   A(11,12,26)           109.4359         estimate D2E/DX2                !
 ! A40   A(13,12,25)           109.2575         estimate D2E/DX2                !
 ! A41   A(13,12,26)           109.5397         estimate D2E/DX2                !
 ! A42   A(25,12,26)           107.6991         estimate D2E/DX2                !
 ! A43   A(7,13,12)            105.69           estimate D2E/DX2                !
 ! A44   A(7,13,14)            110.6049         estimate D2E/DX2                !
 ! A45   A(7,13,15)            114.8688         estimate D2E/DX2                !
 ! A46   A(12,13,14)           107.8681         estimate D2E/DX2                !
 ! A47   A(12,13,15)           108.3151         estimate D2E/DX2                !
 ! A48   A(14,13,15)           109.2053         estimate D2E/DX2                !
 ! A49   A(13,15,16)           119.2585         estimate D2E/DX2                !
 ! A50   A(4,16,15)            128.6088         estimate D2E/DX2                !
 ! A51   A(4,16,27)            113.2013         estimate D2E/DX2                !
 ! A52   A(15,16,27)           116.6655         estimate D2E/DX2                !
 ! D1    D(1,2,4,5)           -146.28           estimate D2E/DX2                !
 ! D2    D(1,2,4,16)             8.2586         Frozen                          !
 ! D3    D(3,2,4,5)             44.2189         estimate D2E/DX2                !
 ! D4    D(3,2,4,16)          -161.2425         estimate D2E/DX2                !
 ! D5    D(2,4,5,6)            166.2377         estimate D2E/DX2                !
 ! D6    D(2,4,5,17)           -16.4855         estimate D2E/DX2                !
 ! D7    D(16,4,5,6)            15.6279         estimate D2E/DX2                !
 ! D8    D(16,4,5,17)         -167.0954         estimate D2E/DX2                !
 ! D9    D(2,4,16,15)         -178.7292         estimate D2E/DX2                !
 ! D10   D(2,4,16,27)           16.0041         estimate D2E/DX2                !
 ! D11   D(5,4,16,15)          -29.0432         estimate D2E/DX2                !
 ! D12   D(5,4,16,27)          165.6901         estimate D2E/DX2                !
 ! D13   D(4,5,6,7)             15.5259         estimate D2E/DX2                !
 ! D14   D(4,5,6,18)           167.153          estimate D2E/DX2                !
 ! D15   D(17,5,6,7)          -161.8178         estimate D2E/DX2                !
 ! D16   D(17,5,6,18)          -10.1907         estimate D2E/DX2                !
 ! D17   D(4,5,16,2)           -19.3105         Frozen                          !
 ! D18   D(5,6,7,8)           -169.4506         estimate D2E/DX2                !
 ! D19   D(5,6,7,9)             73.8652         estimate D2E/DX2                !
 ! D20   D(5,6,7,13)           -54.6845         estimate D2E/DX2                !
 ! D21   D(18,6,7,8)            35.9157         estimate D2E/DX2                !
 ! D22   D(18,6,7,9)           -80.7684         estimate D2E/DX2                !
 ! D23   D(18,6,7,13)          150.6818         estimate D2E/DX2                !
 ! D24   D(6,7,9,10)           168.9059         estimate D2E/DX2                !
 ! D25   D(6,7,9,19)           -70.2899         estimate D2E/DX2                !
 ! D26   D(6,7,9,20)            48.7491         estimate D2E/DX2                !
 ! D27   D(8,7,9,10)            52.4851         estimate D2E/DX2                !
 ! D28   D(8,7,9,19)           173.2893         estimate D2E/DX2                !
 ! D29   D(8,7,9,20)           -67.6717         estimate D2E/DX2                !
 ! D30   D(13,7,9,10)          -62.0989         estimate D2E/DX2                !
 ! D31   D(13,7,9,19)           58.7053         estimate D2E/DX2                !
 ! D32   D(13,7,9,20)          177.7443         estimate D2E/DX2                !
 ! D33   D(6,7,13,12)         -165.6395         estimate D2E/DX2                !
 ! D34   D(6,7,13,14)          -49.1463         estimate D2E/DX2                !
 ! D35   D(6,7,13,15)           75.022          Frozen                          !
 ! D36   D(8,7,13,12)          -51.1677         estimate D2E/DX2                !
 ! D37   D(8,7,13,14)           65.3255         estimate D2E/DX2                !
 ! D38   D(8,7,13,15)         -170.5062         estimate D2E/DX2                !
 ! D39   D(9,7,13,12)           63.4091         estimate D2E/DX2                !
 ! D40   D(9,7,13,14)          179.9024         estimate D2E/DX2                !
 ! D41   D(9,7,13,15)          -55.9293         estimate D2E/DX2                !
 ! D42   D(7,9,10,11)           54.8125         Frozen                          !
 ! D43   D(7,9,10,21)          176.5589         estimate D2E/DX2                !
 ! D44   D(7,9,10,22)          -65.2048         estimate D2E/DX2                !
 ! D45   D(19,9,10,11)         -66.1705         estimate D2E/DX2                !
 ! D46   D(19,9,10,21)          55.5759         estimate D2E/DX2                !
 ! D47   D(19,9,10,22)         173.8121         estimate D2E/DX2                !
 ! D48   D(20,9,10,11)         175.4612         estimate D2E/DX2                !
 ! D49   D(20,9,10,21)         -62.7923         estimate D2E/DX2                !
 ! D50   D(20,9,10,22)          55.4439         estimate D2E/DX2                !
 ! D51   D(9,10,11,12)         -52.8224         Frozen                          !
 ! D52   D(9,10,11,23)          67.6902         estimate D2E/DX2                !
 ! D53   D(9,10,11,24)        -174.7143         estimate D2E/DX2                !
 ! D54   D(21,10,11,12)       -174.6584         estimate D2E/DX2                !
 ! D55   D(21,10,11,23)        -54.1458         estimate D2E/DX2                !
 ! D56   D(21,10,11,24)         63.4497         estimate D2E/DX2                !
 ! D57   D(22,10,11,12)         67.415          estimate D2E/DX2                !
 ! D58   D(22,10,11,23)       -172.0724         estimate D2E/DX2                !
 ! D59   D(22,10,11,24)        -54.477          estimate D2E/DX2                !
 ! D60   D(10,11,12,13)         56.642          estimate D2E/DX2                !
 ! D61   D(10,11,12,25)        177.5555         estimate D2E/DX2                !
 ! D62   D(10,11,12,26)        -64.7642         estimate D2E/DX2                !
 ! D63   D(23,11,12,13)        -63.7621         estimate D2E/DX2                !
 ! D64   D(23,11,12,25)         57.1514         estimate D2E/DX2                !
 ! D65   D(23,11,12,26)        174.8316         estimate D2E/DX2                !
 ! D66   D(24,11,12,13)        178.5993         estimate D2E/DX2                !
 ! D67   D(24,11,12,25)        -60.4872         estimate D2E/DX2                !
 ! D68   D(24,11,12,26)         57.193          estimate D2E/DX2                !
 ! D69   D(11,12,13,7)         -60.3883         estimate D2E/DX2                !
 ! D70   D(11,12,13,14)       -178.7231         estimate D2E/DX2                !
 ! D71   D(11,12,13,15)         63.1921         estimate D2E/DX2                !
 ! D72   D(25,12,13,7)         178.7136         estimate D2E/DX2                !
 ! D73   D(25,12,13,14)         60.3788         estimate D2E/DX2                !
 ! D74   D(25,12,13,15)        -57.706          estimate D2E/DX2                !
 ! D75   D(26,12,13,7)          60.9576         estimate D2E/DX2                !
 ! D76   D(26,12,13,14)        -57.3772         estimate D2E/DX2                !
 ! D77   D(26,12,13,15)       -175.462          estimate D2E/DX2                !
 ! D78   D(7,13,15,16)         -67.1606         Frozen                          !
 ! D79   D(12,13,15,16)        174.9733         estimate D2E/DX2                !
 ! D80   D(14,13,15,16)         57.7441         estimate D2E/DX2                !
 ! D81   D(13,15,16,4)          43.4335         estimate D2E/DX2                !
 ! D82   D(13,15,16,27)       -151.7299         estimate D2E/DX2                !
 --------------------------------------------------------------------------------
 Trust Radius=3.00D-01 FncErr=1.00D-07 GrdErr=1.00D-07 EigMax=2.50D+02 EigMin=1.00D-04
 Number of steps in this run=     20 maximum allowed number of steps=    162.
 GradGradGradGradGradGradGradGradGradGradGradGradGradGradGradGradGradGrad

                          Input orientation:                          
 ---------------------------------------------------------------------
 Center     Atomic      Atomic             Coordinates (Angstroms)
 Number     Number       Type             X           Y           Z
 ---------------------------------------------------------------------
      1          8           0       -3.667860   -1.236370   -0.190480
      2          7           0       -3.178530   -0.126780   -0.397920
      3          8           0       -3.805960    0.811490   -0.891910
      4          6           0       -1.660280    0.037770   -0.272940
      5          6           0       -1.325200    1.305860    0.213050
      6          7           0       -0.096310    1.674100    0.684650
      7          6           0        1.192780    0.953440    0.495750
      8          1           0        1.920110    1.455490    1.186210
      9          6           0        1.814170    1.049920   -0.919790
     10          6           0        3.253730    0.503020   -0.884530
     11          6           0        3.289780   -0.923790   -0.313910
     12          6           0        2.576320   -1.002120    1.053350
     13          6           0        1.107770   -0.504230    0.961220
     14          1           0        0.661020   -0.565100    1.981720
     15          7           0        0.374560   -1.397080    0.060040
     16          6           0       -0.899640   -1.233470   -0.093490
     17          1           0       -2.088240    2.102020    0.183950
     18          1           0        0.127500    2.660150    0.839190
     19          1           0        1.207000    0.466670   -1.644410
     20          1           0        1.831160    2.107650   -1.258360
     21          1           0        3.687440    0.510150   -1.908450
     22          1           0        3.879760    1.162210   -0.242610
     23          1           0        2.786050   -1.612720   -1.029110
     24          1           0        4.343460   -1.262460   -0.208370
     25          1           0        2.584870   -2.055020    1.411190
     26          1           0        3.130380   -0.389150    1.794800
     27          1           0       -1.484840   -2.128660   -0.350830
 ---------------------------------------------------------------------
                    Distance matrix (angstroms):
                    1          2          3          4          5
     1  O    0.000000
     2  N    1.230311   0.000000
     3  O    2.169057   1.232090   0.000000
     4  C    2.379204   1.532247   2.363410   0.000000
     5  C    3.480492   2.420862   2.760346   1.398756   0.000000
     6  N    4.689633   3.730309   4.122031   2.457754   1.366813
     7  C    5.375128   4.590629   5.189716   3.093426   2.558191
     8  H    6.353487   5.568588   6.125455   4.118039   3.391381
     9  C    5.984285   5.155970   5.625254   3.676230   3.347309
    10  C    7.170467   6.481312   7.066430   4.973730   4.776592
    11  C    6.965752   6.517769   7.327674   5.042754   5.152385
    12  C    6.371167   5.999225   6.914240   4.559517   4.610286
    13  C    4.966798   4.512438   5.413867   3.078801   3.123384
    14  H    4.889607   4.538387   5.486954   3.291713   3.251731
    15  N    4.053362   3.801031   4.822939   2.512020   3.196636
    16  C    2.769920   2.551623   3.642256   1.492256   2.592926
    17  H    3.712175   2.548500   2.402812   2.157087   1.103153
    18  H    5.536050   4.497472   4.678286   3.363015   2.082424
    19  H    5.364561   4.597694   5.080839   3.207207   3.250605
    20  H    6.523960   5.552479   5.795812   4.176794   3.573587
    21  H    7.752560   7.058961   7.568038   5.612143   5.500952
    22  H    7.919752   7.176704   7.721068   5.653081   5.226841
    23  H    6.519041   6.179210   7.024971   4.802683   5.192634
    24  H    8.011382   7.609601   8.436915   6.143261   6.237593
    25  H    6.506317   6.340960   7.373185   5.023680   5.293364
    26  H    7.132684   6.684250   7.534770   5.235287   5.022667
    27  H    2.363783   2.622656   3.784818   2.174917   3.484160
                    6          7          8          9         10
     6  N    0.000000
     7  C    1.488888   0.000000
     8  H    2.089331   1.121516   0.000000
     9  C    2.571724   1.548931   2.147311   0.000000
    10  C    3.880273   2.521025   2.640777   1.540349   0.000000
    11  C    4.383122   2.928643   3.128471   2.537725   1.537106
    12  C    3.800137   2.459536   2.547177   2.947036   2.545527
    13  C    2.504281   1.532544   2.133312   2.540193   3.004412
    14  H    2.696286   2.190169   2.510165   3.515225   4.009790
    15  N    3.169227   2.526712   3.434260   3.003390   3.576620
    16  C    3.115253   3.083505   4.101113   3.641621   4.570736
    17  H    2.097999   3.490207   4.182033   4.189745   5.677596
    18  H    1.022872   2.040988   2.187482   2.920909   4.171059
    19  H    2.929339   2.194865   3.081996   1.110815   2.183539
    20  H    2.770992   2.194683   2.531629   1.110725   2.176762
    21  H    4.732411   3.492852   3.687010   2.185850   1.112011
    22  H    4.114727   2.794391   2.442902   2.176659   1.112882
    23  H    4.695547   3.383620   3.882191   2.836574   2.171632
    24  H    5.397446   3.915710   3.899324   3.500075   2.182114
    25  H    4.650045   3.439008   3.579972   3.958295   3.501610
    26  H    3.987601   2.691537   2.288631   3.342504   2.826657
    27  H    4.178662   4.169615   5.177095   4.616335   5.446524
                   11         12         13         14         15
    11  C    0.000000
    12  C    1.544202   0.000000
    13  C    2.561865   1.553390   0.000000
    14  H    3.508412   2.172839   1.115666   0.000000
    15  N    2.976970   2.447530   1.465232   2.113552   0.000000
    16  C    4.206629   3.667569   2.381995   2.681208   1.293803
    17  H    6.190839   5.670067   4.196566   4.231304   4.280705
    18  H    4.916735   4.410760   3.314984   3.462984   4.138747
    19  H    2.835768   3.363078   2.782409   3.809391   2.659261
    20  H    3.494165   3.945876   3.503105   4.360154   4.017835
    21  H    2.181026   3.506253   3.989821   5.044681   4.299727
    22  H    2.168999   2.839506   3.451110   4.276860   4.350631
    23  H    1.113499   2.180243   2.829627   3.831234   2.654813
    24  H    1.111790   2.186892   3.523144   4.340872   3.980243
    25  H    2.180034   1.112080   2.188435   2.499313   2.672819
    26  H    2.181263   1.110163   2.190673   2.482667   3.408791
    27  H    4.924436   4.442278   3.328945   3.534151   2.039949
                   16         17         18         19         20
    16  C    0.000000
    17  H    3.551793   0.000000
    18  H    4.133423   2.377047   0.000000
    19  H    3.119898   4.108026   3.484960   0.000000
    20  H    4.469594   4.176360   2.758157   1.797617   0.000000
    21  H    5.232169   6.345917   4.984496   2.494833   2.533851
    22  H    5.348288   6.056585   4.182532   3.097171   2.474342
    23  H    3.821456   6.247360   5.368040   2.682509   3.847795
    24  H    5.244439   7.269141   5.853082   3.858689   4.332640
    25  H    3.883403   6.373779   5.347773   4.194537   5.002239
    26  H    4.529854   6.002896   4.385055   4.032367   4.152562
    27  H    1.100022   4.306824   5.191193   3.956651   5.455803
                   21         22         23         24         25
    21  H    0.000000
    22  H    1.799220   0.000000
    23  H    2.468263   3.084643   0.000000
    24  H    2.542200   2.468849   1.794943   0.000000
    25  H    4.337715   3.842182   2.488206   2.518683   0.000000
    26  H    3.851379   2.668207   3.096797   2.499385   1.794397
    27  H    6.011820   6.294479   4.355084   5.894038   4.435389
                   26         27
    26  H    0.000000
    27  H    5.378650   0.000000
 Symmetry turned off by external request.
 Stoichiometry    C9H13N3O2
 Framework group  C1[X(C9H13N3O2)]
 Deg. of freedom    75
 Full point group                 C1      NOp   1
 Rotational constants (GHZ):           1.6083868           0.4084470           0.3663686
 Standard basis: 6-31G(d) (6D, 7F)
   236 basis functions,   444 primitive gaussians,   236 cartesian basis functions
    52 alpha electrons       52 beta electrons
       nuclear repulsion energy       919.9509592466 Hartrees.
 NAtoms=   27 NActive=   27 NUniq=   27 SFac= 1.00D+00 NAtFMM=   60 NAOKFM=F Big=F
 Integral buffers will be    131072 words long.
 Raffenetti 1 integral format.
 Two-electron integral symmetry is turned off.
 One-electron integrals computed using PRISM.
 NBasis=   236 RedAO= T EigKep=  1.88D-03  NBF=   236
 NBsUse=   236 1.00D-06 EigRej= -1.00D+00 NBFU=   236
 ExpMin= 1.61D-01 ExpMax= 5.48D+03 ExpMxC= 8.25D+02 IAcc=3 IRadAn=         5 AccDes= 0.00D+00
 Harris functional with IExCor=  205 and IRadAn=       5 diagonalized for initial guess.
 HarFok:  IExCor=  205 AccDes= 0.00D+00 IRadAn=         5 IDoV= 1 UseB2=F ITyADJ=14
 ICtDFT=  3500011 ScaDFX=  1.000000  1.000000  1.000000  1.000000
 FoFCou: FMM=F IPFlag=           0 FMFlag=      100000 FMFlg1=           0
         NFxFlg=           0 DoJE=T BraDBF=F KetDBF=T FulRan=T
         wScrn=  0.000000 ICntrl=       500 IOpCl=  0 I1Cent=   200000004 NGrid=           0
         NMat0=    1 NMatS0=      1 NMatT0=    0 NMatD0=    1 NMtDS0=    0 NMtDT0=    0
 Symmetry not used in FoFCou.
 Keep R1 ints in memory in canonical form, NReq=397720213.
 Requested convergence on RMS density matrix=1.00D-08 within 128 cycles.
 Requested convergence on MAX density matrix=1.00D-06.
 Requested convergence on             energy=1.00D-06.
 No special actions if energy rises.
 SCF Done:  E(RHF) =  -661.258875105     A.U. after   17 cycles
            NFock= 17  Conv=0.53D-08     -V/T= 2.0035
 ExpMin= 1.61D-01 ExpMax= 5.48D+03 ExpMxC= 8.25D+02 IAcc=3 IRadAn=         5 AccDes= 0.00D+00
 HarFok:  IExCor=  205 AccDes= 0.00D+00 IRadAn=         5 IDoV=-2 UseB2=F ITyADJ=14
 ICtDFT= 12500011 ScaDFX=  1.000000  1.000000  1.000000  1.000000
 Range of M.O.s used for correlation:    15   236
 NBasis=   236 NAE=    52 NBE=    52 NFC=    14 NFV=     0
 NROrb=    222 NOA=    38 NOB=    38 NVA=   184 NVB=   184
 Fully direct method using O(ONN) memory.
 JobTyp=1 Pass  1:  I=  15 to  52 NPSUse=  4 ParTrn=T ParDer=T DoDerP=T.
 Spin components of T(2) and E(2):
     alpha-alpha T2 =       0.9243005684D-01 E2=     -0.2724216207D+00
     alpha-beta  T2 =       0.5018064294D+00 E2=     -0.1495996130D+01
     beta-beta   T2 =       0.9243005684D-01 E2=     -0.2724216207D+00
 ANorm=    0.1298717268D+01
 E2 =    -0.2040839372D+01 EUMP2 =    -0.66329971447638D+03
          IDoAtm=111111111111111111111111111
          Differentiating once with respect to electric field.
                with respect to dipole field.
          Differentiating once with respect to nuclear coordinates.
 Keep R1 ints in memory in canonical form, NReq=397723379.
          There are     1 degrees of freedom in the 1st order CPHF.  IDoFFX=0 NUNeed=     1.
 LinEq1:  Iter=  0 NonCon=     1 RMS=4.70D-03 Max=1.31D-01 NDo=     1
 AX will form     1 AO Fock derivatives at one time.
 LinEq1:  Iter=  1 NonCon=     1 RMS=1.61D-03 Max=3.87D-02 NDo=     1
 LinEq1:  Iter=  2 NonCon=     1 RMS=6.67D-04 Max=2.09D-02 NDo=     1
 LinEq1:  Iter=  3 NonCon=     1 RMS=3.02D-04 Max=9.17D-03 NDo=     1
 LinEq1:  Iter=  4 NonCon=     1 RMS=9.71D-05 Max=2.75D-03 NDo=     1
 LinEq1:  Iter=  5 NonCon=     1 RMS=3.91D-05 Max=1.60D-03 NDo=     1
 LinEq1:  Iter=  6 NonCon=     1 RMS=1.63D-05 Max=5.05D-04 NDo=     1
 LinEq1:  Iter=  7 NonCon=     1 RMS=6.11D-06 Max=9.19D-05 NDo=     1
 LinEq1:  Iter=  8 NonCon=     1 RMS=2.38D-06 Max=4.76D-05 NDo=     1
 LinEq1:  Iter=  9 NonCon=     1 RMS=8.38D-07 Max=2.48D-05 NDo=     1
 LinEq1:  Iter= 10 NonCon=     1 RMS=3.66D-07 Max=1.33D-05 NDo=     1
 LinEq1:  Iter= 11 NonCon=     1 RMS=1.67D-07 Max=4.70D-06 NDo=     1
 LinEq1:  Iter= 12 NonCon=     1 RMS=6.52D-08 Max=1.43D-06 NDo=     1
 LinEq1:  Iter= 13 NonCon=     1 RMS=2.17D-08 Max=4.13D-07 NDo=     1
 LinEq1:  Iter= 14 NonCon=     1 RMS=7.11D-09 Max=1.65D-07 NDo=     1
 LinEq1:  Iter= 15 NonCon=     1 RMS=2.57D-09 Max=6.70D-08 NDo=     1
 LinEq1:  Iter= 16 NonCon=     1 RMS=8.86D-10 Max=1.06D-08 NDo=     1
 LinEq1:  Iter= 17 NonCon=     1 RMS=2.95D-10 Max=5.31D-09 NDo=     1
 LinEq1:  Iter= 18 NonCon=     1 RMS=1.11D-10 Max=2.43D-09 NDo=     1
 LinEq1:  Iter= 19 NonCon=     1 RMS=4.10D-11 Max=1.16D-09 NDo=     1
 LinEq1:  Iter= 20 NonCon=     0 RMS=1.45D-11 Max=3.11D-10 NDo=     1
 Linear equations converged to 1.000D-10 1.000D-09 after    20 iterations.
 End of Minotr F.D. properties file   721 does not exist.
 End of Minotr F.D. properties file   722 does not exist.
 End of Minotr F.D. properties file   788 does not exist.

 **********************************************************************

            Population analysis using the SCF Density.

 **********************************************************************

 Alpha  occ. eigenvalues --  -20.59751 -20.59385 -15.84903 -15.63973 -15.55571
 Alpha  occ. eigenvalues --  -11.36239 -11.30679 -11.29989 -11.29931 -11.27583
 Alpha  occ. eigenvalues --  -11.24637 -11.23890 -11.23187 -11.22851  -1.58365
 Alpha  occ. eigenvalues --   -1.37837  -1.29257  -1.22311  -1.13398  -1.08622
 Alpha  occ. eigenvalues --   -1.01623  -1.00679  -0.93590  -0.88771  -0.84812
 Alpha  occ. eigenvalues --   -0.81571  -0.77967  -0.77071  -0.74393  -0.71217
 Alpha  occ. eigenvalues --   -0.70350  -0.69408  -0.67275  -0.63826  -0.63490
 Alpha  occ. eigenvalues --   -0.61895  -0.59918  -0.57596  -0.56310  -0.54755
 Alpha  occ. eigenvalues --   -0.54251  -0.50709  -0.49759  -0.48713  -0.47773
 Alpha  occ. eigenvalues --   -0.47616  -0.46510  -0.45100  -0.43859  -0.42480
 Alpha  occ. eigenvalues --   -0.37861  -0.33632
 Alpha virt. eigenvalues --    0.07316   0.10728   0.17133   0.21018   0.22612
 Alpha virt. eigenvalues --    0.23825   0.25750   0.27968   0.28521   0.28898
 Alpha virt. eigenvalues --    0.29904   0.31478   0.31765   0.32452   0.33352
 Alpha virt. eigenvalues --    0.33989   0.35014   0.36358   0.37608   0.39087
 Alpha virt. eigenvalues --    0.40176   0.41403   0.43761   0.45184   0.45371
 Alpha virt. eigenvalues --    0.46883   0.49339   0.54539   0.56412   0.60521
 Alpha virt. eigenvalues --    0.63167   0.67506   0.69815   0.72616   0.73766
 Alpha virt. eigenvalues --    0.74930   0.75506   0.76585   0.77458   0.78163
 Alpha virt. eigenvalues --    0.80365   0.81964   0.83148   0.85031   0.88140
 Alpha virt. eigenvalues --    0.88437   0.88966   0.92080   0.92432   0.93750
 Alpha virt. eigenvalues --    0.94616   0.96957   0.98520   1.00730   1.01610
 Alpha virt. eigenvalues --    1.03186   1.05195   1.06103   1.06254   1.07903
 Alpha virt. eigenvalues --    1.09643   1.10531   1.10895   1.11536   1.12144
 Alpha virt. eigenvalues --    1.13280   1.14156   1.14534   1.15324   1.16188
 Alpha virt. eigenvalues --    1.17211   1.17774   1.19789   1.20857   1.22095
 Alpha virt. eigenvalues --    1.22894   1.23337   1.24890   1.26331   1.29271
 Alpha virt. eigenvalues --    1.30051   1.32437   1.33502   1.34946   1.36374
 Alpha virt. eigenvalues --    1.38920   1.41184   1.46894   1.49864   1.52102
 Alpha virt. eigenvalues --    1.53049   1.60017   1.63389   1.64228   1.66382
 Alpha virt. eigenvalues --    1.67808   1.69761   1.70958   1.74692   1.76370
 Alpha virt. eigenvalues --    1.80327   1.82373   1.84325   1.87308   1.89444
 Alpha virt. eigenvalues --    1.92854   1.95971   1.97552   1.99132   2.01236
 Alpha virt. eigenvalues --    2.02520   2.04265   2.06116   2.08876   2.12261
 Alpha virt. eigenvalues --    2.13186   2.13943   2.16531   2.18151   2.19582
 Alpha virt. eigenvalues --    2.20290   2.22620   2.24814   2.25014   2.26543
 Alpha virt. eigenvalues --    2.28964   2.31858   2.32661   2.35453   2.35772
 Alpha virt. eigenvalues --    2.37880   2.39981   2.42132   2.44922   2.46055
 Alpha virt. eigenvalues --    2.46491   2.51037   2.52911   2.57141   2.58693
 Alpha virt. eigenvalues --    2.60375   2.62088   2.67815   2.68502   2.68791
 Alpha virt. eigenvalues --    2.69770   2.71559   2.73600   2.75235   2.82969
 Alpha virt. eigenvalues --    2.83386   2.85269   2.89142   2.93184   2.94387
 Alpha virt. eigenvalues --    2.97407   2.98289   3.01598   3.06107   3.07000
 Alpha virt. eigenvalues --    3.10038   3.14609   3.19234   3.21424   3.25849
 Alpha virt. eigenvalues --    3.30892   3.31894   3.38258   3.38760   3.56361
 Alpha virt. eigenvalues --    4.07646   4.21418   4.25504   4.33087   4.43581
 Alpha virt. eigenvalues --    4.53364   4.59230   4.61444   4.70462   4.77660
 Alpha virt. eigenvalues --    4.94723   4.99371   5.04463   5.09090
          Condensed to atoms (all electrons):
               1          2          3          4          5          6
     1  O    8.293261   0.309477  -0.084999  -0.072686   0.002564  -0.000022
     2  N    0.309477   5.746907   0.278541   0.250808  -0.043438   0.001177
     3  O   -0.084999   0.278541   8.332246  -0.078835   0.004248   0.000346
     4  C   -0.072686   0.250808  -0.078835   5.262592   0.527367  -0.060841
     5  C    0.002564  -0.043438   0.004248   0.527367   4.715742   0.330684
     6  N   -0.000022   0.001177   0.000346  -0.060841   0.330684   7.137310
     7  C    0.000002  -0.000147   0.000001   0.005154  -0.031862   0.207247
     8  H   -0.000000   0.000002  -0.000000  -0.000168   0.002851  -0.044000
     9  C    0.000000  -0.000007   0.000000   0.000406   0.000095  -0.057045
    10  C   -0.000000   0.000000  -0.000000  -0.000016  -0.000008   0.003242
    11  C   -0.000000  -0.000000  -0.000000  -0.000016   0.000005  -0.000146
    12  C    0.000000   0.000001  -0.000000  -0.000288  -0.000064   0.003939
    13  C   -0.000008   0.000010  -0.000000  -0.006436  -0.000649  -0.056480
    14  H    0.000000  -0.000004   0.000000   0.001719   0.001769  -0.004330
    15  N    0.000455   0.001681  -0.000022  -0.066000  -0.002196   0.002136
    16  C    0.003359  -0.032484   0.002612   0.332792  -0.045315   0.001565
    17  H    0.000262  -0.005679   0.012799  -0.028664   0.377653  -0.030983
    18  H    0.000000  -0.000045   0.000006   0.002113  -0.025410   0.330338
    19  H   -0.000000   0.000009  -0.000001  -0.000436   0.001161  -0.000848
    20  H    0.000000  -0.000000   0.000000  -0.000046  -0.000015  -0.000121
    21  H    0.000000  -0.000000  -0.000000   0.000002   0.000001  -0.000063
    22  H   -0.000000   0.000000  -0.000000  -0.000001  -0.000001  -0.000087
    23  H    0.000000  -0.000000   0.000000   0.000019  -0.000002  -0.000022
    24  H    0.000000   0.000000   0.000000   0.000000  -0.000000   0.000005
    25  H    0.000000  -0.000000   0.000000   0.000024  -0.000002  -0.000077
    26  H    0.000000  -0.000000   0.000000   0.000002  -0.000001  -0.000082
    27  H    0.006114  -0.000319  -0.000016  -0.066809   0.003046  -0.000025
               7          8          9         10         11         12
     1  O    0.000002  -0.000000   0.000000  -0.000000  -0.000000   0.000000
     2  N   -0.000147   0.000002  -0.000007   0.000000  -0.000000   0.000001
     3  O    0.000001  -0.000000   0.000000  -0.000000  -0.000000  -0.000000
     4  C    0.005154  -0.000168   0.000406  -0.000016  -0.000016  -0.000288
     5  C   -0.031862   0.002851   0.000095  -0.000008   0.000005  -0.000064
     6  N    0.207247  -0.044000  -0.057045   0.003242  -0.000146   0.003939
     7  C    5.077701   0.410521   0.341623  -0.048229  -0.008688  -0.063825
     8  H    0.410521   0.543712  -0.054493  -0.000097  -0.000083  -0.003518
     9  C    0.341623  -0.054493   5.165987   0.321657  -0.054072  -0.005214
    10  C   -0.048229  -0.000097   0.321657   5.125832   0.332194  -0.060748
    11  C   -0.008688  -0.000083  -0.054072   0.332194   5.125114   0.330386
    12  C   -0.063825  -0.003518  -0.005214  -0.060748   0.330386   5.146740
    13  C    0.304212  -0.037547  -0.055374  -0.000946  -0.046340   0.363370
    14  H   -0.045208  -0.000484   0.003727  -0.000386   0.003957  -0.041632
    15  N   -0.070125   0.004145  -0.009025   0.000886  -0.006387  -0.076480
    16  C    0.002130  -0.000362   0.000148  -0.000084  -0.000042   0.003417
    17  H    0.001467  -0.000069  -0.000008   0.000001  -0.000000   0.000002
    18  H   -0.029922  -0.004825   0.001216  -0.000112   0.000010  -0.000163
    19  H   -0.035446   0.003918   0.390740  -0.034316  -0.002036   0.000507
    20  H   -0.042139  -0.001818   0.397334  -0.036752   0.004121  -0.000396
    21  H    0.004099  -0.000054  -0.036167   0.400270  -0.035717   0.004247
    22  H   -0.004676   0.003565  -0.045406   0.395524  -0.045384  -0.001317
    23  H    0.000525   0.000039  -0.002087  -0.040438   0.396489  -0.037277
    24  H   -0.000148  -0.000108   0.004411  -0.038460   0.400539  -0.037452
    25  H    0.005340  -0.000036  -0.000410   0.004122  -0.033590   0.394431
    26  H   -0.004441   0.001519   0.001090  -0.002459  -0.042685   0.392907
    27  H   -0.000412   0.000008  -0.000033   0.000001   0.000006  -0.000022
              13         14         15         16         17         18
     1  O   -0.000008   0.000000   0.000455   0.003359   0.000262   0.000000
     2  N    0.000010  -0.000004   0.001681  -0.032484  -0.005679  -0.000045
     3  O   -0.000000   0.000000  -0.000022   0.002612   0.012799   0.000006
     4  C   -0.006436   0.001719  -0.066000   0.332792  -0.028664   0.002113
     5  C   -0.000649   0.001769  -0.002196  -0.045315   0.377653  -0.025410
     6  N   -0.056480  -0.004330   0.002136   0.001565  -0.030983   0.330338
     7  C    0.304212  -0.045208  -0.070125   0.002130   0.001467  -0.029922
     8  H   -0.037547  -0.000484   0.004145  -0.000362  -0.000069  -0.004825
     9  C   -0.055374   0.003727  -0.009025   0.000148  -0.000008   0.001216
    10  C   -0.000946  -0.000386   0.000886  -0.000084   0.000001  -0.000112
    11  C   -0.046340   0.003957  -0.006387  -0.000042  -0.000000   0.000010
    12  C    0.363370  -0.041632  -0.076480   0.003417   0.000002  -0.000163
    13  C    5.009631   0.414477   0.262339  -0.063480  -0.000092   0.004171
    14  H    0.414477   0.517001  -0.031872  -0.012597  -0.000021   0.000006
    15  N    0.262339  -0.031872   6.993394   0.545324  -0.000092  -0.000139
    16  C   -0.063480  -0.012597   0.545324   4.739136   0.001608  -0.000123
    17  H   -0.000092  -0.000021  -0.000092   0.001608   0.388905  -0.002638
    18  H    0.004171   0.000006  -0.000139  -0.000123  -0.002638   0.325271
    19  H   -0.005486   0.000053   0.006211   0.000480  -0.000012  -0.000127
    20  H    0.003965  -0.000055   0.000082  -0.000043  -0.000024   0.001591
    21  H   -0.000417   0.000009  -0.000033   0.000003  -0.000000   0.000001
    22  H    0.000342  -0.000040   0.000012   0.000000   0.000000   0.000001
    23  H   -0.005892  -0.000006   0.006583   0.000066   0.000000   0.000000
    24  H    0.004132  -0.000063  -0.000020   0.000005   0.000000  -0.000000
    25  H   -0.034346  -0.002899   0.001913  -0.000057  -0.000000   0.000003
    26  H   -0.044891  -0.000881   0.004205  -0.000036   0.000000  -0.000001
    27  H    0.004671  -0.000049  -0.042929   0.401889  -0.000068   0.000000
              19         20         21         22         23         24
     1  O   -0.000000   0.000000   0.000000  -0.000000   0.000000   0.000000
     2  N    0.000009  -0.000000  -0.000000   0.000000  -0.000000   0.000000
     3  O   -0.000001   0.000000  -0.000000  -0.000000   0.000000   0.000000
     4  C   -0.000436  -0.000046   0.000002  -0.000001   0.000019   0.000000
     5  C    0.001161  -0.000015   0.000001  -0.000001  -0.000002  -0.000000
     6  N   -0.000848  -0.000121  -0.000063  -0.000087  -0.000022   0.000005
     7  C   -0.035446  -0.042139   0.004099  -0.004676   0.000525  -0.000148
     8  H    0.003918  -0.001818  -0.000054   0.003565   0.000039  -0.000108
     9  C    0.390740   0.397334  -0.036167  -0.045406  -0.002087   0.004411
    10  C   -0.034316  -0.036752   0.400270   0.395524  -0.040438  -0.038460
    11  C   -0.002036   0.004121  -0.035717  -0.045384   0.396489   0.400539
    12  C    0.000507  -0.000396   0.004247  -0.001317  -0.037277  -0.037452
    13  C   -0.005486   0.003965  -0.000417   0.000342  -0.005892   0.004132
    14  H    0.000053  -0.000055   0.000009  -0.000040  -0.000006  -0.000063
    15  N    0.006211   0.000082  -0.000033   0.000012   0.006583  -0.000020
    16  C    0.000480  -0.000043   0.000003   0.000000   0.000066   0.000005
    17  H   -0.000012  -0.000024  -0.000000   0.000000   0.000000   0.000000
    18  H   -0.000127   0.001591   0.000001   0.000001   0.000000  -0.000000
    19  H    0.502406  -0.023416  -0.002490   0.003765   0.001759  -0.000078
    20  H   -0.023416   0.544242  -0.002678  -0.002893  -0.000050  -0.000090
    21  H   -0.002490  -0.002678   0.525033  -0.024706  -0.002864  -0.002056
    22  H    0.003765  -0.002893  -0.024706   0.569689   0.004088  -0.003498
    23  H    0.001759  -0.000050  -0.002864   0.004088   0.512434  -0.024832
    24  H   -0.000078  -0.000090  -0.002056  -0.003498  -0.024832   0.539643
    25  H   -0.000029   0.000011  -0.000086  -0.000083  -0.002049  -0.002427
    26  H    0.000027  -0.000035  -0.000072   0.002457   0.003893  -0.002782
    27  H    0.000052   0.000000  -0.000000   0.000000  -0.000017  -0.000000
              25         26         27
     1  O    0.000000   0.000000   0.006114
     2  N   -0.000000  -0.000000  -0.000319
     3  O    0.000000   0.000000  -0.000016
     4  C    0.000024   0.000002  -0.066809
     5  C   -0.000002  -0.000001   0.003046
     6  N   -0.000077  -0.000082  -0.000025
     7  C    0.005340  -0.004441  -0.000412
     8  H   -0.000036   0.001519   0.000008
     9  C   -0.000410   0.001090  -0.000033
    10  C    0.004122  -0.002459   0.000001
    11  C   -0.033590  -0.042685   0.000006
    12  C    0.394431   0.392907  -0.000022
    13  C   -0.034346  -0.044891   0.004671
    14  H   -0.002899  -0.000881  -0.000049
    15  N    0.001913   0.004205  -0.042929
    16  C   -0.000057  -0.000036   0.401889
    17  H   -0.000000   0.000000  -0.000068
    18  H    0.000003  -0.000001   0.000000
    19  H   -0.000029   0.000027   0.000052
    20  H    0.000011  -0.000035   0.000000
    21  H   -0.000086  -0.000072  -0.000000
    22  H   -0.000083   0.002457   0.000000
    23  H   -0.002049   0.003893  -0.000017
    24  H   -0.002427  -0.002782  -0.000000
    25  H    0.508945  -0.023298  -0.000022
    26  H   -0.023298   0.567489   0.000001
    27  H   -0.000022   0.000001   0.450805
 Mulliken charges:
               1
     1  O   -0.457781
     2  N    0.493511
     3  O   -0.466928
     4  C   -0.001756
     5  C    0.181777
     6  N   -0.762816
     7  C    0.025247
     8  H    0.177382
     9  C   -0.309093
    10  C   -0.320680
    11  C   -0.317636
    12  C   -0.311550
    13  C   -0.012940
    14  H    0.197807
    15  N   -0.524046
    16  C    0.120090
    17  H    0.285653
    18  H    0.398775
    19  H    0.193633
    20  H    0.159223
    21  H    0.173740
    22  H    0.148648
    23  H    0.189640
    24  H    0.163280
    25  H    0.184621
    26  H    0.148071
    27  H    0.244127
 Sum of Mulliken charges =  -0.00000
 Mulliken charges with hydrogens summed into heavy atoms:
               1
     1  O   -0.457781
     2  N    0.493511
     3  O   -0.466928
     4  C   -0.001756
     5  C    0.467430
     6  N   -0.364040
     7  C    0.202629
     9  C    0.043763
    10  C    0.001708
    11  C    0.035284
    12  C    0.021141
    13  C    0.184867
    15  N   -0.524046
    16  C    0.364217
 Electronic spatial extent (au):  <R**2>=           3071.7619
 Charge=             -0.0000 electrons
 Dipole moment (field-independent basis, Debye):
    X=              5.1949    Y=              4.5109    Z=              2.0610  Tot=              7.1821
 Quadrupole moment (field-independent basis, Debye-Ang):
   XX=           -103.8174   YY=            -79.4757   ZZ=            -83.6309
   XY=             -0.6385   XZ=             -4.1276   YZ=              3.1173
 Traceless Quadrupole moment (field-independent basis, Debye-Ang):
   XX=            -14.8427   YY=              9.4989   ZZ=              5.3438
   XY=             -0.6385   XZ=             -4.1276   YZ=              3.1173
 Octapole moment (field-independent basis, Debye-Ang**2):
  XXX=             87.6004  YYY=             31.5812  ZZZ=              7.5134  XYY=             -6.5883
  XXY=              8.1134  XXZ=             23.5747  XZZ=             -2.8528  YZZ=             -2.8419
  YYZ=             10.0151  XYZ=             -5.4297
 Hexadecapole moment (field-independent basis, Debye-Ang**3):
 XXXX=          -3390.7154 YYYY=           -612.2307 ZZZZ=           -345.6492 XXXY=             -8.6556
 XXXZ=           -146.4781 YYYX=             19.4297 YYYZ=             44.6539 ZZZX=            -70.8058
 ZZZY=             25.0463 XXYY=           -629.3500 XXZZ=           -554.7454 YYZZ=           -169.1159
 XXYZ=             31.3008 YYXZ=            -21.2472 ZZXY=             16.3031
 N-N= 9.199509592466D+02 E-N=-3.386022672333D+03  KE= 6.589458141127D+02
 Calling FoFJK, ICntrl=  10002127 FMM=F ISym2X=0 I1Cent= 0 IOpClX= 0 NMat=1 NMatS=1 NMatT=0.
 -------------------------------------------------------------------
 Center     Atomic                   Forces (Hartrees/Bohr)
 Number     Number              X              Y              Z
 -------------------------------------------------------------------
      1        8          -0.001642290   -0.016014429    0.012607585
      2        7           0.041055186   -0.000976410   -0.024339840
      3        8          -0.007171401    0.020980131    0.002478694
      4        6          -0.018290926   -0.001657899    0.049338565
      5        6           0.012331569   -0.006685232   -0.010366783
      6        7           0.015839236    0.000409204   -0.012607332
      7        6          -0.001159490    0.007229868    0.008299967
      8        1          -0.012930544   -0.001909771   -0.006480042
      9        6          -0.005147912    0.001742929   -0.002357416
     10        6           0.002661065   -0.001550070    0.000865825
     11        6          -0.001564801   -0.003901474   -0.001496808
     12        6           0.000978401   -0.009366231   -0.002751958
     13        6           0.018540348    0.003943888   -0.008413927
     14        1           0.001106351    0.002598617   -0.013083434
     15        7          -0.001564659   -0.014877293    0.036432362
     16        6          -0.016140549    0.016334237   -0.033443814
     17        1           0.006552692   -0.008747647    0.001741297
     18        1          -0.017793299   -0.002641277   -0.002092248
     19        1           0.003129821    0.005584182    0.007126665
     20        1          -0.002846192   -0.008090872    0.002863044
     21        1          -0.003517963    0.002204359    0.009977329
     22        1          -0.004615492   -0.003976244   -0.006968690
     23        1           0.004603526    0.005627213    0.008540658
     24        1          -0.009728779    0.002153089   -0.001316665
     25        1          -0.001525372    0.010658597   -0.002446964
     26        1          -0.004935413   -0.004573128   -0.003931355
     27        1           0.003776885    0.005501664   -0.008174713
 -------------------------------------------------------------------
 Cartesian Forces:  Max     0.049338565 RMS     0.012338257

 GradGradGradGradGradGradGradGradGradGradGradGradGradGradGradGradGradGrad
 Berny optimization.
 FormGI is forming the generalized inverse of G from B-inverse, IUseBI=4.
 Internal  Forces:  Max     0.031538463 RMS     0.006866460
 Search for a local minimum.
 Step number   1 out of a maximum of   20
 All quantities printed in internal units (Hartrees-Bohrs-Radians)
 Mixed Optimization -- RFO/linear search
 Second derivative matrix not updated -- first step.
 ITU=  0
     Eigenvalues ---    0.00353   0.00777   0.01143   0.01261   0.01456
     Eigenvalues ---    0.01544   0.01674   0.01994   0.02080   0.02120
     Eigenvalues ---    0.02706   0.03670   0.04516   0.04692   0.04840
     Eigenvalues ---    0.05094   0.05136   0.05315   0.05863   0.06235
     Eigenvalues ---    0.07093   0.07622   0.07692   0.07800   0.07980
     Eigenvalues ---    0.08045   0.08056   0.10425   0.11498   0.11970
     Eigenvalues ---    0.12441   0.13710   0.14942   0.15777   0.15990
     Eigenvalues ---    0.17476   0.20117   0.21963   0.23215   0.25000
     Eigenvalues ---    0.25000   0.25429   0.26157   0.26652   0.27973
     Eigenvalues ---    0.28103   0.28422   0.29094   0.31411   0.31717
     Eigenvalues ---    0.32007   0.32232   0.32297   0.32381   0.32388
     Eigenvalues ---    0.32411   0.32514   0.32523   0.32583   0.33149
     Eigenvalues ---    0.33336   0.33680   0.35382   0.43883   0.44171
     Eigenvalues ---    0.50452   0.66960   0.90221   0.909571000.00000
     Eigenvalues --- 1000.000001000.000001000.000001000.000001000.00000
     Eigenvalues --- 1000.000001000.000001000.000001000.000001000.00000
     Eigenvalues --- 1000.000001000.000001000.000001000.000001000.00000
     Eigenvalues --- 1000.000001000.000001000.000001000.000001000.00000
     Eigenvalues --- 1000.000001000.000001000.000001000.000001000.00000
     Eigenvalues --- 1000.000001000.000001000.000001000.000001000.00000
     Eigenvalues --- 1000.000001000.000001000.000001000.000001000.00000
     Eigenvalues --- 1000.000001000.000001000.000001000.000001000.00000
     Eigenvalues --- 1000.000001000.000001000.000001000.000001000.00000
     Eigenvalues --- 1000.000001000.000001000.000001000.000001000.00000
     Eigenvalues --- 1000.000001000.000001000.000001000.000001000.00000
     Eigenvalues --- 1000.000001000.000001000.000001000.000001000.00000
     Eigenvalues --- 1000.000001000.000001000.000001000.000001000.00000
     Eigenvalues --- 1000.000001000.000001000.000001000.000001000.00000
     Eigenvalues --- 1000.000001000.000001000.000001000.000001000.00000
     Eigenvalues --- 1000.000001000.000001000.000001000.000001000.00000
     Eigenvalues --- 1000.000001000.000001000.000001000.000001000.00000
     Eigenvalues --- 1000.000001000.000001000.000001000.000001000.00000
     Eigenvalues --- 1000.000001000.00000
 RFO step:  Lambda=-3.27668977D-02 EMin= 3.53034149D-03
 Linear search not attempted -- first point.
 Iteration  1 RMS(Cart)=  0.07658356 RMS(Int)=  0.01352346
 Iteration  2 RMS(Cart)=  0.01829513 RMS(Int)=  0.00219901
 Iteration  3 RMS(Cart)=  0.00100466 RMS(Int)=  0.00196164
 Iteration  4 RMS(Cart)=  0.00000613 RMS(Int)=  0.00196164
 Iteration  5 RMS(Cart)=  0.00000008 RMS(Int)=  0.00196164
 Iteration  1 RMS(Cart)=  0.00010950 RMS(Int)=  0.00008733
 Iteration  2 RMS(Cart)=  0.00007316 RMS(Int)=  0.00009408
 Iteration  3 RMS(Cart)=  0.00005273 RMS(Int)=  0.00010590
 Iteration  4 RMS(Cart)=  0.00004031 RMS(Int)=  0.00011785
 Iteration  5 RMS(Cart)=  0.00003213 RMS(Int)=  0.00012885
 Iteration  6 RMS(Cart)=  0.00002630 RMS(Int)=  0.00013870
 Iteration  7 RMS(Cart)=  0.00002189 RMS(Int)=  0.00014741
 Iteration  8 RMS(Cart)=  0.00001840 RMS(Int)=  0.00015506
 Iteration  9 RMS(Cart)=  0.00001556 RMS(Int)=  0.00016175
 Iteration 10 RMS(Cart)=  0.00001321 RMS(Int)=  0.00016758
 Iteration 11 RMS(Cart)=  0.00001124 RMS(Int)=  0.00017263
 Iteration 12 RMS(Cart)=  0.00000958 RMS(Int)=  0.00017701
 Iteration 13 RMS(Cart)=  0.00000818 RMS(Int)=  0.00018080
 Iteration 14 RMS(Cart)=  0.00000699 RMS(Int)=  0.00018407
 Iteration 15 RMS(Cart)=  0.00000597 RMS(Int)=  0.00018689
 Iteration 16 RMS(Cart)=  0.00000510 RMS(Int)=  0.00018931
 Iteration 17 RMS(Cart)=  0.00000437 RMS(Int)=  0.00019140
 Iteration 18 RMS(Cart)=  0.00000374 RMS(Int)=  0.00019320
 Iteration 19 RMS(Cart)=  0.00000320 RMS(Int)=  0.00019475
 Iteration 20 RMS(Cart)=  0.00000274 RMS(Int)=  0.00019607
 Iteration 21 RMS(Cart)=  0.00000235 RMS(Int)=  0.00019722
 Iteration 22 RMS(Cart)=  0.00000201 RMS(Int)=  0.00019820
 Iteration 23 RMS(Cart)=  0.00000172 RMS(Int)=  0.00019904
 Iteration 24 RMS(Cart)=  0.00000148 RMS(Int)=  0.00019976
 Iteration 25 RMS(Cart)=  0.00000127 RMS(Int)=  0.00020038
 Iteration 26 RMS(Cart)=  0.00000109 RMS(Int)=  0.00020092
 Iteration 27 RMS(Cart)=  0.00000093 RMS(Int)=  0.00020137
 Variable       Old X    -DE/DX   Delta X   Delta X   Delta X     New X
                                 (Linear)    (Quad)   (Total)
    R1        2.32495   0.01722   0.00000   0.01828   0.01828   2.34323
    R2        2.32831   0.01864   0.00000   0.01993   0.01993   2.34824
    R3        2.89553  -0.03154   0.00000  -0.09469  -0.09453   2.80100
    R4        2.64326  -0.02352   0.00000  -0.05159  -0.05161   2.59166
    R5        2.81995  -0.02261   0.00000  -0.06609  -0.06655   2.75341
    R6        2.58290  -0.02214   0.00000  -0.04058  -0.04022   2.54268
    R7        2.08466  -0.01089   0.00000  -0.02975  -0.02975   2.05491
    R8        2.81359  -0.01532   0.00000  -0.03774  -0.03749   2.77610
    R9        1.93295  -0.00676   0.00000  -0.01432  -0.01432   1.91862
   R10        2.11936  -0.01323   0.00000  -0.03814  -0.03814   2.08122
   R11        2.92706  -0.01326   0.00000  -0.04362  -0.04360   2.88346
   R12        2.89609  -0.00089   0.00000   0.00127   0.00143   2.89752
   R13        2.91084  -0.00411   0.00000  -0.01437  -0.01451   2.89633
   R14        2.09914  -0.00929   0.00000  -0.02596  -0.02596   2.07317
   R15        2.09897  -0.00862   0.00000  -0.02408  -0.02408   2.07489
   R16        2.90471  -0.00125   0.00000  -0.00627  -0.00603   2.89867
   R17        2.10140  -0.01054   0.00000  -0.02957  -0.02957   2.07183
   R18        2.10304  -0.00897   0.00000  -0.02522  -0.02522   2.07782
   R19        2.91812  -0.00957   0.00000  -0.02954  -0.02954   2.88858
   R20        2.10421  -0.01105   0.00000  -0.03112  -0.03112   2.07309
   R21        2.10098  -0.01000   0.00000  -0.02802  -0.02802   2.07296
   R22        2.93548  -0.01159   0.00000  -0.03650  -0.03633   2.89915
   R23        2.10153  -0.01089   0.00000  -0.03054  -0.03054   2.07098
   R24        2.09790  -0.00761   0.00000  -0.02123  -0.02123   2.07667
   R25        2.10830  -0.01255   0.00000  -0.03557  -0.03557   2.07273
   R26        2.76889  -0.00345   0.00000  -0.00557  -0.00598   2.76291
   R27        2.44493   0.00230   0.00000   0.00217   0.00180   2.44673
   R28        2.07874  -0.00457   0.00000  -0.01238  -0.01238   2.06636
    A1        2.15540   0.00972   0.00000   0.04760   0.03406   2.18945
    A2        2.06826  -0.00607   0.00000  -0.00850  -0.02195   2.04631
    A3        2.04374  -0.00050   0.00000   0.01122  -0.00223   2.04151
    A4        1.94235  -0.00145   0.00000  -0.01233  -0.01284   1.92951
    A5        2.00798  -0.00456   0.00000  -0.02044  -0.02018   1.98781
    A6        2.22487   0.00912   0.00000   0.03983   0.04001   2.26487
    A7        2.18892   0.00775   0.00000   0.03137   0.03078   2.21970
    A8        2.07080  -0.00449   0.00000  -0.01955  -0.01938   2.05142
    A9        2.02256  -0.00329   0.00000  -0.01223  -0.01186   2.01070
   A10        2.21963  -0.00635   0.00000  -0.00008  -0.00086   2.21878
   A11        2.10432  -0.01207   0.00000  -0.07112  -0.07286   2.03146
   A12        1.87164   0.01853   0.00000   0.09767   0.09837   1.97001
   A13        1.84078  -0.00223   0.00000  -0.01091  -0.00998   1.83080
   A14        2.01877  -0.00206   0.00000  -0.01610  -0.01629   2.00248
   A15        1.95392   0.00284   0.00000  -0.01828  -0.02040   1.93352
   A16        1.84895   0.00385   0.00000   0.03123   0.03095   1.87989
   A17        1.84915   0.00176   0.00000   0.03588   0.03547   1.88461
   A18        1.93806  -0.00360   0.00000  -0.01272  -0.01215   1.92591
   A19        1.90910   0.00005   0.00000  -0.00910  -0.00931   1.89979
   A20        1.92215  -0.00057   0.00000  -0.01264  -0.01258   1.90957
   A21        1.92199  -0.00189   0.00000  -0.00462  -0.00460   1.91739
   A22        1.91701  -0.00079   0.00000   0.00298   0.00268   1.91969
   A23        1.90794   0.00367   0.00000   0.02864   0.02887   1.93681
   A24        1.88550  -0.00045   0.00000  -0.00480  -0.00502   1.88047
   A25        1.93905  -0.00061   0.00000   0.00449   0.00433   1.94338
   A26        1.91894  -0.00097   0.00000  -0.00749  -0.00744   1.91149
   A27        1.90564   0.00034   0.00000  -0.00222  -0.00228   1.90336
   A28        1.91625   0.00049   0.00000   0.00613   0.00615   1.92240
   A29        1.89917   0.00192   0.00000   0.01129   0.01136   1.91053
   A30        1.88380  -0.00116   0.00000  -0.01255  -0.01263   1.87117
   A31        1.94437   0.00178   0.00000   0.00976   0.00983   1.95419
   A32        1.90208  -0.00006   0.00000   0.00404   0.00418   1.90627
   A33        1.91795   0.00046   0.00000   0.00452   0.00436   1.92231
   A34        1.90530  -0.00137   0.00000  -0.01444  -0.01452   1.89079
   A35        1.91598  -0.00087   0.00000  -0.00046  -0.00053   1.91545
   A36        1.87679  -0.00002   0.00000  -0.00402  -0.00406   1.87273
   A37        1.94767  -0.00487   0.00000  -0.02419  -0.02403   1.92364
   A38        1.90644   0.00276   0.00000   0.01373   0.01370   1.92014
   A39        1.91002   0.00221   0.00000   0.01683   0.01653   1.92654
   A40        1.90690   0.00101   0.00000  -0.00270  -0.00276   1.90414
   A41        1.91183   0.00004   0.00000  -0.00128  -0.00107   1.91076
   A42        1.87970  -0.00101   0.00000  -0.00162  -0.00178   1.87792
   A43        1.84464   0.00654   0.00000   0.01797   0.01755   1.86219
   A44        1.93042  -0.00521   0.00000  -0.01777  -0.01805   1.91237
   A45        2.00484   0.00010   0.00000   0.01655   0.01723   2.02207
   A46        1.88265   0.00222   0.00000   0.02508   0.02521   1.90787
   A47        1.89046  -0.00398   0.00000  -0.03592  -0.03559   1.85487
   A48        1.90599   0.00066   0.00000  -0.00464  -0.00487   1.90112
   A49        2.08145  -0.00080   0.00000   0.02169   0.02004   2.10149
   A50        2.24465  -0.00424   0.00000  -0.03363  -0.03654   2.20811
   A51        1.97574   0.00166   0.00000   0.00857   0.00965   1.98539
   A52        2.03620   0.00318   0.00000   0.02141   0.02267   2.05887
    D1       -2.55307   0.00383   0.00000  -0.02502  -0.02488  -2.57795
    D2        0.14414   0.01238   0.00000   0.00000  -0.00000   0.14414
    D3        0.77177  -0.01535   0.00000  -0.31911  -0.31831   0.45345
    D4       -2.81421  -0.00680   0.00000  -0.29408  -0.29344  -3.10765
    D5        2.90140   0.00590   0.00000   0.01991   0.01857   2.91996
    D6       -0.28773   0.00493   0.00000   0.00879   0.00714  -0.28059
    D7        0.27276   0.00092   0.00000   0.01289   0.01140   0.28416
    D8       -2.91636  -0.00005   0.00000   0.00177  -0.00003  -2.91639
    D9       -3.11941   0.00365   0.00000   0.10742   0.10647  -3.01294
   D10        0.27932   0.00020   0.00000   0.12061   0.12109   0.40042
   D11       -0.50690   0.00973   0.00000   0.11748   0.11636  -0.39054
   D12        2.89184   0.00628   0.00000   0.13067   0.13098   3.02281
   D13        0.27098  -0.00281   0.00000  -0.08626  -0.08722   0.18376
   D14        2.91737   0.00221   0.00000   0.00836   0.00509   2.92246
   D15       -2.82425  -0.00183   0.00000  -0.07520  -0.07580  -2.90006
   D16       -0.17786   0.00320   0.00000   0.01942   0.01651  -0.16135
   D17       -0.33703   0.00239   0.00000   0.00000   0.00001  -0.33702
   D18       -2.95747   0.00016   0.00000   0.05616   0.05725  -2.90022
   D19        1.28919  -0.00197   0.00000   0.03373   0.03469   1.32388
   D20       -0.95442   0.00236   0.00000   0.08346   0.08352  -0.87091
   D21        0.62685   0.00185   0.00000   0.00738   0.00559   0.63244
   D22       -1.40967  -0.00028   0.00000  -0.01505  -0.01697  -1.42664
   D23        2.62989   0.00405   0.00000   0.03468   0.03186   2.66175
   D24        2.94796   0.00301   0.00000   0.05084   0.05148   2.99945
   D25       -1.22679   0.00171   0.00000   0.04079   0.04126  -1.18553
   D26        0.85083  -0.00038   0.00000   0.02412   0.02463   0.87547
   D27        0.91604   0.00431   0.00000   0.05217   0.05230   0.96834
   D28        3.02447   0.00301   0.00000   0.04212   0.04207   3.06654
   D29       -1.18109   0.00093   0.00000   0.02546   0.02545  -1.15564
   D30       -1.08383   0.00187   0.00000  -0.00116  -0.00117  -1.08500
   D31        1.02460   0.00057   0.00000  -0.01121  -0.01139   1.01321
   D32        3.10222  -0.00151   0.00000  -0.02787  -0.02801   3.07421
   D33       -2.89096  -0.00136   0.00000  -0.02275  -0.02218  -2.91314
   D34       -0.85776   0.00232   0.00000   0.00800   0.00820  -0.84956
   D35        1.30938  -0.00097   0.00000   0.00000   0.00001   1.30939
   D36       -0.89305  -0.00159   0.00000  -0.02424  -0.02436  -0.91741
   D37        1.14015   0.00209   0.00000   0.00651   0.00602   1.14617
   D38       -2.97589  -0.00120   0.00000  -0.00149  -0.00217  -2.97807
   D39        1.10670   0.00216   0.00000   0.02619   0.02632   1.13302
   D40        3.13989   0.00584   0.00000   0.05694   0.05670  -3.08660
   D41       -0.97615   0.00255   0.00000   0.04894   0.04851  -0.92765
   D42        0.95666   0.00114   0.00000   0.00000   0.00000   0.95666
   D43        3.08153   0.00069   0.00000   0.00564   0.00557   3.08711
   D44       -1.13804  -0.00108   0.00000  -0.01537  -0.01536  -1.15340
   D45       -1.15489   0.00230   0.00000   0.01948   0.01962  -1.13528
   D46        0.96998   0.00186   0.00000   0.02512   0.02519   0.99517
   D47        3.03359   0.00008   0.00000   0.00411   0.00425   3.03785
   D48        3.06238   0.00112   0.00000   0.00639   0.00641   3.06878
   D49       -1.09593   0.00067   0.00000   0.01203   0.01197  -1.08396
   D50        0.96768  -0.00111   0.00000  -0.00898  -0.00896   0.95872
   D51       -0.92192  -0.00100   0.00000   0.00000   0.00000  -0.92192
   D52        1.18142  -0.00163   0.00000  -0.00918  -0.00913   1.17228
   D53       -3.04934  -0.00141   0.00000  -0.00906  -0.00905  -3.05839
   D54       -3.04836   0.00030   0.00000   0.00231   0.00233  -3.04604
   D55       -0.94502  -0.00033   0.00000  -0.00686  -0.00681  -0.95183
   D56        1.10741  -0.00011   0.00000  -0.00674  -0.00673   1.10068
   D57        1.17661   0.00028   0.00000   0.00732   0.00732   1.18394
   D58       -3.00323  -0.00034   0.00000  -0.00186  -0.00181  -3.00504
   D59       -0.95080  -0.00013   0.00000  -0.00174  -0.00173  -0.95253
   D60        0.98859  -0.00150   0.00000  -0.00807  -0.00790   0.98069
   D61        3.09893  -0.00152   0.00000  -0.01782  -0.01777   3.08116
   D62       -1.13035   0.00014   0.00000  -0.00205  -0.00183  -1.13217
   D63       -1.11286  -0.00165   0.00000  -0.00978  -0.00969  -1.12255
   D64        0.99748  -0.00167   0.00000  -0.01953  -0.01956   0.97792
   D65        3.05139  -0.00001   0.00000  -0.00376  -0.00361   3.04778
   D66        3.11715  -0.00032   0.00000   0.00385   0.00391   3.12106
   D67       -1.05570  -0.00034   0.00000  -0.00590  -0.00596  -1.06166
   D68        0.99821   0.00132   0.00000   0.00988   0.00999   1.00820
   D69       -1.05398  -0.00041   0.00000  -0.00801  -0.00788  -1.06185
   D70       -3.11931   0.00115   0.00000  -0.00905  -0.00907  -3.12838
   D71        1.10291   0.00132   0.00000   0.00219   0.00270   1.10561
   D72        3.11914  -0.00140   0.00000  -0.00784  -0.00788   3.11126
   D73        1.05381   0.00016   0.00000  -0.00888  -0.00908   1.04473
   D74       -1.00716   0.00032   0.00000   0.00236   0.00269  -1.00447
   D75        1.06391  -0.00079   0.00000  -0.00355  -0.00350   1.06041
   D76       -1.00142   0.00077   0.00000  -0.00459  -0.00470  -1.00612
   D77       -3.06239   0.00093   0.00000   0.00665   0.00707  -3.05531
   D78       -1.17217   0.01087   0.00000   0.00000   0.00001  -1.17217
   D79        3.05386   0.00532   0.00000  -0.00785  -0.00754   3.04632
   D80        1.00782   0.00454   0.00000  -0.01504  -0.01519   0.99264
   D81        0.75806  -0.01518   0.00000  -0.11190  -0.10968   0.64838
   D82       -2.64819  -0.01186   0.00000  -0.12741  -0.12692  -2.77510
         Item               Value     Threshold  Converged?
 Maximum Force            0.031288     0.000450     NO 
 RMS     Force            0.006640     0.000300     NO 
 Maximum Displacement     0.723143     0.001800     NO 
 RMS     Displacement     0.088811     0.001200     NO 
 Predicted change in Energy=-2.270657D-02
 GradGradGradGradGradGradGradGradGradGradGradGradGradGradGradGradGradGrad

                          Input orientation:                          
 ---------------------------------------------------------------------
 Center     Atomic      Atomic             Coordinates (Angstroms)
 Number     Number       Type             X           Y           Z
 ---------------------------------------------------------------------
      1          8           0       -3.520314   -1.288492   -0.192607
      2          7           0       -3.066949   -0.149430   -0.378493
      3          8           0       -3.745052    0.883637   -0.509239
      4          6           0       -1.596603    0.017783   -0.294150
      5          6           0       -1.280429    1.261448    0.189790
      6          7           0       -0.078372    1.684430    0.621756
      7          6           0        1.209262    0.991877    0.478662
      8          1           0        1.891150    1.517144    1.165725
      9          6           0        1.817538    1.057426   -0.919176
     10          6           0        3.235562    0.477898   -0.869838
     11          6           0        3.239758   -0.938437   -0.280887
     12          6           0        2.531305   -0.997097    1.072324
     13          6           0        1.098148   -0.464893    0.943946
     14          1           0        0.608567   -0.500987    1.924796
     15          7           0        0.403518   -1.373835    0.033476
     16          6           0       -0.865063   -1.237728   -0.186895
     17          1           0       -2.062633    2.016822    0.184365
     18          1           0        0.024902    2.684865    0.760613
     19          1           0        1.198674    0.475896   -1.613731
     20          1           0        1.829962    2.097047   -1.272162
     21          1           0        3.662710    0.468251   -1.879525
     22          1           0        3.869634    1.132429   -0.254595
     23          1           0        2.723532   -1.617823   -0.970397
     24          1           0        4.269801   -1.300834   -0.175996
     25          1           0        2.498799   -2.031029    1.434211
     26          1           0        3.078029   -0.401597    1.816713
     27          1           0       -1.414435   -2.101780   -0.570676
 ---------------------------------------------------------------------
                    Distance matrix (angstroms):
                    1          2          3          4          5
     1  O    0.000000
     2  N    1.239982   0.000000
     3  O    2.206560   1.242637   0.000000
     4  C    2.327516   1.482225   2.326328   0.000000
     5  C    3.415480   2.346311   2.589547   1.371446   0.000000
     6  N    4.620434   3.646248   3.919817   2.433438   1.345529
     7  C    5.293351   4.508134   5.053008   3.069035   2.520848
     8  H    6.245046   5.453881   5.913849   4.067400   3.328174
     9  C    5.875704   5.060341   5.580382   3.623241   3.296790
    10  C    7.015743   6.352685   7.001688   4.888041   4.704353
    11  C    6.769705   6.356619   7.222165   4.930002   5.049071
    12  C    6.189269   5.844985   6.740264   4.465071   4.517654
    13  C    4.827035   4.381369   5.233247   3.004587   3.034243
    14  H    4.706509   4.351799   5.176458   3.171060   3.112030
    15  N    3.931267   3.703111   4.754089   2.458541   3.131266
    16  C    2.655742   2.463616   3.591439   1.457039   2.561308
    17  H    3.632085   2.453183   2.143766   2.107680   1.087411
    18  H    5.409691   4.346301   4.366864   3.294712   2.013913
    19  H    5.234644   4.484683   5.081986   3.124858   3.164763
    20  H    6.422832   5.461231   5.756319   4.125675   3.536956
    21  H    7.584700   6.922639   7.544877   5.511507   5.417180
    22  H    7.776633   7.055118   7.623004   5.578866   5.170809
    23  H    6.300716   6.003015   6.950723   4.668628   5.066353
    24  H    7.790142   7.429309   8.313894   6.013935   6.124062
    25  H    6.279142   6.148484   7.159467   4.894608   5.164451
    26  H    6.954285   6.530181   7.322317   5.146242   4.940521
    27  H    2.288909   2.565036   3.787911   2.145274   3.450734
                    6          7          8          9         10
     6  N    0.000000
     7  C    1.469050   0.000000
     8  H    2.050099   1.101333   0.000000
     9  C    2.522316   1.525860   2.136252   0.000000
    10  C    3.829195   2.487674   2.651602   1.532671   0.000000
    11  C    4.324833   2.902747   3.152984   2.532507   1.533913
    12  C    3.768821   2.460945   2.596137   2.949000   2.538421
    13  C    2.471355   1.533302   2.146278   2.511215   2.957568
    14  H    2.635498   2.163511   2.508797   3.460988   3.958447
    15  N    3.151393   2.538504   3.442789   2.969516   3.502194
    16  C    3.132381   3.117199   4.124999   3.605596   4.497212
    17  H    2.058904   3.441281   4.104284   4.146561   5.616983
    18  H    1.015292   2.085285   2.238430   2.946827   4.223436
    19  H    2.844082   2.155100   3.047802   1.097077   2.168478
    20  H    2.720095   2.161494   2.506656   1.097982   2.181564
    21  H    4.661672   3.443056   3.675887   2.161957   1.096364
    22  H    4.081598   2.763150   2.465707   2.158330   1.099537
    23  H    4.614162   3.347136   3.883799   2.824962   2.159707
    24  H    5.334306   3.879691   3.924181   3.482428   2.171395
    25  H    4.594185   3.422563   3.609828   3.942221   3.485137
    26  H    3.967657   2.687832   2.348198   3.347040   2.831234
    27  H    4.188358   4.189941   5.199864   4.532956   5.326041
                   11         12         13         14         15
    11  C    0.000000
    12  C    1.528570   0.000000
    13  C    2.512161   1.534164   0.000000
    14  H    3.461151   2.160961   1.096841   0.000000
    15  N    2.886633   2.397627   1.462068   2.093085   0.000000
    16  C    4.116791   3.630269   2.393800   2.678361   1.294754
    17  H    6.088133   5.565648   4.089794   4.062484   4.195381
    18  H    4.954628   4.464982   3.332634   3.441750   4.140667
    19  H    2.818304   3.340734   2.727068   3.718024   2.601358
    20  H    3.490604   3.944898   3.465577   4.296758   3.973217
    21  H    2.171015   3.484356   3.926795   4.973939   4.204186
    22  H    2.164699   2.843715   3.416002   4.248805   4.286992
    23  H    1.097032   2.143586   2.763300   3.755335   2.539636
    24  H    1.096961   2.161696   3.465898   4.296245   3.872641
    25  H    2.164333   1.095917   2.157536   2.480863   2.604643
    26  H    2.171239   1.098928   2.164638   2.473823   3.358302
    27  H    4.806126   4.414593   3.359546   3.589214   2.049355
                   16         17         18         19         20
    16  C    0.000000
    17  H    3.487708   0.000000
    18  H    4.132378   2.266307   0.000000
    19  H    3.038318   4.030350   3.448883   0.000000
    20  H    4.422860   4.156946   2.781357   1.772943   0.000000
    21  H    5.126021   6.279909   5.011721   2.478342   2.526030
    22  H    5.295242   6.013869   4.268801   3.067949   2.475114
    23  H    3.692744   6.119762   5.365829   2.668844   3.832726
    24  H    5.135264   7.157962   5.897644   3.828273   4.324349
    25  H    3.817445   6.225261   5.367826   4.155111   4.981246
    26  H    4.501282   5.910983   4.468018   4.008730   4.164378
    27  H    1.093472   4.237113   5.172620   3.815850   5.352415
                   21         22         23         24         25
    21  H    0.000000
    22  H    1.767583   0.000000
    23  H    2.461763   3.064280   0.000000
    24  H    2.529868   2.467201   1.767061   0.000000
    25  H    4.310677   3.839104   2.450181   2.502479   0.000000
    26  H    3.841961   2.696329   3.061512   2.489947   1.771119
    27  H    5.839139   6.203337   4.185302   5.753939   4.397496
                   26         27
    26  H    0.000000
    27  H    5.363998   0.000000
 Symmetry turned off by external request.
 Stoichiometry    C9H13N3O2
 Framework group  C1[X(C9H13N3O2)]
 Deg. of freedom    75
 Full point group                 C1      NOp   1
 Rotational constants (GHZ):           1.6371846           0.4280812           0.3795573
 Standard basis: 6-31G(d) (6D, 7F)
   236 basis functions,   444 primitive gaussians,   236 cartesian basis functions
    52 alpha electrons       52 beta electrons
       nuclear repulsion energy       932.8537799812 Hartrees.
 NAtoms=   27 NActive=   27 NUniq=   27 SFac= 1.00D+00 NAtFMM=   60 NAOKFM=F Big=F
 Integral buffers will be    131072 words long.
 Raffenetti 1 integral format.
 Two-electron integral symmetry is turned off.
 One-electron integrals computed using PRISM.
 NBasis=   236 RedAO= T EigKep=  1.60D-03  NBF=   236
 NBsUse=   236 1.00D-06 EigRej= -1.00D+00 NBFU=   236
 Initial guess from the checkpoint file:  "/home/alexey/tmp/Gau-1269719.chk"
 B after Tr=     0.048352    0.001434    0.030703
         Rot=    0.999970   -0.004719   -0.006095   -0.000646 Ang=  -0.89 deg.
 ExpMin= 1.61D-01 ExpMax= 5.48D+03 ExpMxC= 8.25D+02 IAcc=3 IRadAn=         5 AccDes= 0.00D+00
 Harris functional with IExCor=  205 and IRadAn=       5 diagonalized for initial guess.
 HarFok:  IExCor=  205 AccDes= 0.00D+00 IRadAn=         5 IDoV= 1 UseB2=F ITyADJ=14
 ICtDFT=  3500011 ScaDFX=  1.000000  1.000000  1.000000  1.000000
 FoFCou: FMM=F IPFlag=           0 FMFlag=      100000 FMFlg1=           0
         NFxFlg=           0 DoJE=T BraDBF=F KetDBF=T FulRan=T
         wScrn=  0.000000 ICntrl=       500 IOpCl=  0 I1Cent=   200000004 NGrid=           0
         NMat0=    1 NMatS0=      1 NMatT0=    0 NMatD0=    1 NMtDS0=    0 NMtDT0=    0
 Symmetry not used in FoFCou.
 Keep R1 ints in memory in canonical form, NReq=397720213.
 Requested convergence on RMS density matrix=1.00D-08 within 128 cycles.
 Requested convergence on MAX density matrix=1.00D-06.
 Requested convergence on             energy=1.00D-06.
 No special actions if energy rises.
 SCF Done:  E(RHF) =  -661.279309237     A.U. after   17 cycles
            NFock= 17  Conv=0.41D-08     -V/T= 2.0025
 ExpMin= 1.61D-01 ExpMax= 5.48D+03 ExpMxC= 8.25D+02 IAcc=3 IRadAn=         5 AccDes= 0.00D+00
 HarFok:  IExCor=  205 AccDes= 0.00D+00 IRadAn=         5 IDoV=-2 UseB2=F ITyADJ=14
 ICtDFT= 12500011 ScaDFX=  1.000000  1.000000  1.000000  1.000000
 Range of M.O.s used for correlation:    15   236
 NBasis=   236 NAE=    52 NBE=    52 NFC=    14 NFV=     0
 NROrb=    222 NOA=    38 NOB=    38 NVA=   184 NVB=   184
 Fully direct method using O(ONN) memory.
 JobTyp=1 Pass  1:  I=  15 to  52 NPSUse=  4 ParTrn=T ParDer=T DoDerP=T.
 Spin components of T(2) and E(2):
[...]
    27  H    4.724274   4.403542   3.358639   3.640154   2.026184
                   16         17         18         19         20
    16  C    0.000000
    17  H    3.470541   0.000000
    18  H    4.122800   2.237380   0.000000
    19  H    3.015896   4.339045   3.586760   0.000000
    20  H    4.410886   4.506133   2.988936   1.768266   0.000000
    21  H    5.109938   6.541590   5.154746   2.499624   2.522542
    22  H    5.268830   6.115413   4.350359   3.070342   2.463846
    23  H    3.682396   6.220323   5.436770   2.701823   3.842701
    24  H    5.127286   7.183581   5.941744   3.848044   4.318728
    25  H    3.806818   6.028167   5.318239   4.170114   4.985547
    26  H    4.499179   5.732348   4.429660   4.032225   4.180415
    27  H    1.090622   4.256419   5.146684   3.654363   5.223801
                   21         22         23         24         25
    21  H    0.000000
    22  H    1.758817   0.000000
    23  H    2.470159   3.062912   0.000000
    24  H    2.517374   2.461188   1.764276   0.000000
    25  H    4.312190   3.839529   2.444224   2.519172   0.000000
    26  H    3.845675   2.703084   3.060374   2.494024   1.768806
    27  H    5.693924   6.095466   4.083026   5.683509   4.411893
                   26         27
    26  H    0.000000
    27  H    5.367342   0.000000
 Symmetry turned off by external request.
 Stoichiometry    C9H13N3O2
 Framework group  C1[X(C9H13N3O2)]
 Deg. of freedom    75
 Full point group                 C1      NOp   1
 Rotational constants (GHZ):           1.6722591           0.4277756           0.3764078

 **********************************************************************

            Population analysis using the SCF Density.

 **********************************************************************

 Alpha  occ. eigenvalues --  -20.59476 -20.59100 -15.84613 -15.63898 -15.56220
 Alpha  occ. eigenvalues --  -11.35037 -11.29689 -11.29627 -11.28678 -11.27204
 Alpha  occ. eigenvalues --  -11.23692 -11.23193 -11.22659 -11.22099  -1.57131
 Alpha  occ. eigenvalues --   -1.36845  -1.30774  -1.23030  -1.14668  -1.09754
 Alpha  occ. eigenvalues --   -1.02749  -1.01219  -0.94315  -0.89417  -0.85414
 Alpha  occ. eigenvalues --   -0.82502  -0.78514  -0.77503  -0.75150  -0.71718
 Alpha  occ. eigenvalues --   -0.70022  -0.69140  -0.67534  -0.64980  -0.63825
 Alpha  occ. eigenvalues --   -0.62141  -0.60555  -0.57667  -0.56849  -0.55053
 Alpha  occ. eigenvalues --   -0.54527  -0.50663  -0.50247  -0.48850  -0.48011
 Alpha  occ. eigenvalues --   -0.47498  -0.46130  -0.45845  -0.43653  -0.41926
 Alpha  occ. eigenvalues --   -0.39356  -0.34164
 Alpha virt. eigenvalues --    0.07939   0.11385   0.17215   0.21011   0.23551
 Alpha virt. eigenvalues --    0.24864   0.26778   0.28778   0.29097   0.29423
 Alpha virt. eigenvalues --    0.30349   0.31491   0.31948   0.32736   0.34024
 Alpha virt. eigenvalues --    0.34369   0.35985   0.37351   0.38362   0.40666
 Alpha virt. eigenvalues --    0.41352   0.42224   0.44640   0.46052   0.46789
 Alpha virt. eigenvalues --    0.47129   0.48922   0.54233   0.57411   0.61081
 Alpha virt. eigenvalues --    0.63754   0.69427   0.70141   0.72530   0.74299
 Alpha virt. eigenvalues --    0.75149   0.75476   0.76379   0.78525   0.79511
 Alpha virt. eigenvalues --    0.81937   0.83137   0.85390   0.85991   0.87284
 Alpha virt. eigenvalues --    0.89114   0.89732   0.91002   0.92267   0.94541
 Alpha virt. eigenvalues --    0.94889   0.97299   0.99664   1.01638   1.02036
 Alpha virt. eigenvalues --    1.02635   1.05647   1.06710   1.07970   1.08444
 Alpha virt. eigenvalues --    1.09893   1.10907   1.11688   1.12155   1.13349
 Alpha virt. eigenvalues --    1.14096   1.14966   1.15407   1.16979   1.17124
 Alpha virt. eigenvalues --    1.18886   1.19428   1.21183   1.22482   1.22946
 Alpha virt. eigenvalues --    1.24639   1.26142   1.26926   1.27710   1.29304
 Alpha virt. eigenvalues --    1.31417   1.33419   1.34261   1.35859   1.37296
 Alpha virt. eigenvalues --    1.40256   1.43472   1.47520   1.49480   1.52212
 Alpha virt. eigenvalues --    1.56980   1.57939   1.61491   1.63918   1.67514
 Alpha virt. eigenvalues --    1.67675   1.70167   1.71701   1.75463   1.79028
 Alpha virt. eigenvalues --    1.82586   1.84024   1.85543   1.91445   1.91954
 Alpha virt. eigenvalues --    1.92293   1.95392   1.98628   1.99944   2.02117
 Alpha virt. eigenvalues --    2.04322   2.07968   2.08057   2.08870   2.12185
 Alpha virt. eigenvalues --    2.14057   2.15676   2.18430   2.20281   2.21911
 Alpha virt. eigenvalues --    2.23438   2.23912   2.25503   2.28537   2.28971
 Alpha virt. eigenvalues --    2.32589   2.34290   2.35116   2.35737   2.36834
 Alpha virt. eigenvalues --    2.39418   2.40465   2.44361   2.45324   2.47059
 Alpha virt. eigenvalues --    2.49349   2.51841   2.54443   2.56324   2.59814
 Alpha virt. eigenvalues --    2.62560   2.65306   2.66411   2.68429   2.70478
 Alpha virt. eigenvalues --    2.72389   2.73497   2.76898   2.79165   2.84896
 Alpha virt. eigenvalues --    2.87509   2.89899   2.92883   2.93151   2.96867
 Alpha virt. eigenvalues --    3.00204   3.00935   3.02452   3.06543   3.08918
 Alpha virt. eigenvalues --    3.09377   3.14492   3.21013   3.21812   3.27134
 Alpha virt. eigenvalues --    3.30061   3.35925   3.41093   3.47319   3.63752
 Alpha virt. eigenvalues --    4.10111   4.22967   4.27866   4.38024   4.43921
 Alpha virt. eigenvalues --    4.57828   4.61606   4.63077   4.73914   4.77631
 Alpha virt. eigenvalues --    4.99549   5.00914   5.05646   5.10333
          Condensed to atoms (all electrons):
               1          2          3          4          5          6
     1  O    8.305005   0.310054  -0.078430  -0.083388   0.002470  -0.000028
     2  N    0.310054   5.746207   0.279827   0.264577  -0.048077   0.001148
     3  O   -0.078430   0.279827   8.348206  -0.083428   0.001656   0.000635
     4  C   -0.083388   0.264577  -0.083428   5.217376   0.539681  -0.060315
     5  C    0.002470  -0.048077   0.001656   0.539681   4.733930   0.332818
     6  N   -0.000028   0.001148   0.000635  -0.060315   0.332818   7.170494
     7  C    0.000006  -0.000160   0.000001   0.002305  -0.033757   0.176311
     8  H   -0.000000   0.000004  -0.000000  -0.000063   0.002509  -0.048924
     9  C   -0.000000  -0.000004   0.000000   0.000630   0.001156  -0.060754
    10  C    0.000000   0.000000  -0.000000  -0.000022  -0.000067   0.003632
    11  C   -0.000000  -0.000000  -0.000000  -0.000042   0.000019  -0.000202
    12  C   -0.000000   0.000002  -0.000000  -0.000150  -0.000052   0.004104
    13  C   -0.000043  -0.000024  -0.000002  -0.009197  -0.000742  -0.051428
    14  H   -0.000001   0.000066   0.000000   0.003246   0.005363  -0.006271
    15  N   -0.000034   0.002549  -0.000034  -0.062107  -0.005712   0.001526
    16  C    0.004952  -0.045662   0.002952   0.350190  -0.053183  -0.000202
    17  H    0.000329  -0.007246   0.017071  -0.027462   0.378229  -0.032185
    18  H    0.000001  -0.000070   0.000011   0.001930  -0.030851   0.338248
    19  H    0.000000   0.000009  -0.000000  -0.000563   0.000695  -0.000507
    20  H    0.000000  -0.000000   0.000000  -0.000088   0.000173  -0.000252
    21  H    0.000000  -0.000000   0.000000   0.000000   0.000001  -0.000074
    22  H   -0.000000   0.000000  -0.000000   0.000000  -0.000004  -0.000113
    23  H   -0.000000  -0.000000   0.000000   0.000040  -0.000001  -0.000030
    24  H   -0.000000   0.000000   0.000000   0.000000  -0.000000   0.000006
    25  H   -0.000000  -0.000000   0.000000   0.000035  -0.000006  -0.000094
    26  H   -0.000000  -0.000000   0.000000   0.000005  -0.000001  -0.000063
    27  H    0.002993  -0.001325  -0.000064  -0.061144   0.003308  -0.000016
               7          8          9         10         11         12
     1  O    0.000006  -0.000000  -0.000000   0.000000  -0.000000  -0.000000
     2  N   -0.000160   0.000004  -0.000004   0.000000  -0.000000   0.000002
     3  O    0.000001  -0.000000   0.000000  -0.000000  -0.000000  -0.000000
     4  C    0.002305  -0.000063   0.000630  -0.000022  -0.000042  -0.000150
     5  C   -0.033757   0.002509   0.001156  -0.000067   0.000019  -0.000052
     6  N    0.176311  -0.048924  -0.060754   0.003632  -0.000202   0.004104
     7  C    5.026468   0.417348   0.347958  -0.054603  -0.008878  -0.062257
     8  H    0.417348   0.534744  -0.052325   0.000324  -0.000267  -0.002253
     9  C    0.347958  -0.052325   5.152798   0.325473  -0.050766  -0.004958
    10  C   -0.054603   0.000324   0.325473   5.120822   0.336453  -0.061105
    11  C   -0.008878  -0.000267  -0.050766   0.336453   5.121624   0.335888
    12  C   -0.062257  -0.002253  -0.004958  -0.061105   0.335888   5.122942
    13  C    0.337773  -0.037766  -0.061093  -0.000347  -0.050500   0.371519
    14  H   -0.047271  -0.000688   0.004433  -0.000399   0.004188  -0.036699
    15  N   -0.058059   0.003781  -0.012764   0.001544  -0.013473  -0.084020
    16  C   -0.000106  -0.000169  -0.000622  -0.000061   0.000037   0.002508
    17  H    0.001642  -0.000074  -0.000055   0.000001   0.000000   0.000001
    18  H   -0.022208  -0.004646   0.001691  -0.000085   0.000003  -0.000124
    19  H   -0.037050   0.004296   0.391709  -0.032953  -0.002176   0.000685
    20  H   -0.041384  -0.001952   0.399406  -0.035078   0.003898  -0.000421
    21  H    0.004601  -0.000069  -0.036452   0.402539  -0.034881   0.004342
    22  H   -0.004938   0.003537  -0.046749   0.397469  -0.045289  -0.001059
    23  H    0.000618   0.000040  -0.001987  -0.039184   0.399171  -0.038333
    24  H   -0.000125  -0.000103   0.004364  -0.038254   0.402343  -0.038430
    25  H    0.005153  -0.000025  -0.000440   0.004187  -0.033224   0.397967
    26  H   -0.003861   0.001716   0.000943  -0.002267  -0.041425   0.395978
    27  H   -0.000380   0.000008  -0.000047   0.000004   0.000014  -0.000033
              13         14         15         16         17         18
     1  O   -0.000043  -0.000001  -0.000034   0.004952   0.000329   0.000001
     2  N   -0.000024   0.000066   0.002549  -0.045662  -0.007246  -0.000070
     3  O   -0.000002   0.000000  -0.000034   0.002952   0.017071   0.000011
     4  C   -0.009197   0.003246  -0.062107   0.350190  -0.027462   0.001930
     5  C   -0.000742   0.005363  -0.005712  -0.053183   0.378229  -0.030851
     6  N   -0.051428  -0.006271   0.001526  -0.000202  -0.032185   0.338248
     7  C    0.337773  -0.047271  -0.058059  -0.000106   0.001642  -0.022208
     8  H   -0.037766  -0.000688   0.003781  -0.000169  -0.000074  -0.004646
     9  C   -0.061093   0.004433  -0.012764  -0.000622  -0.000055   0.001691
    10  C   -0.000347  -0.000399   0.001544  -0.000061   0.000001  -0.000085
    11  C   -0.050500   0.004188  -0.013473   0.000037   0.000000   0.000003
    12  C    0.371519  -0.036699  -0.084020   0.002508   0.000001  -0.000124
    13  C    5.039758   0.404836   0.245882  -0.066792   0.000004   0.002907
    14  H    0.404836   0.527578  -0.036096  -0.007165   0.000005  -0.000032
    15  N    0.245882  -0.036096   6.966682   0.580548  -0.000075  -0.000116
    16  C   -0.066792  -0.007165   0.580548   4.706958   0.001852  -0.000128
    17  H    0.000004   0.000005  -0.000075   0.001852   0.380464  -0.002879
    18  H    0.002907  -0.000032  -0.000116  -0.000128  -0.002879   0.313160
    19  H   -0.007776   0.000112   0.007626   0.002024   0.000004  -0.000130
    20  H    0.004321  -0.000069   0.000119  -0.000036   0.000001   0.000478
    21  H   -0.000424   0.000011  -0.000040   0.000003  -0.000000   0.000002
    22  H    0.000048  -0.000053   0.000022  -0.000001   0.000000   0.000000
    23  H   -0.007660   0.000002   0.008786   0.000143   0.000000   0.000000
    24  H    0.004671  -0.000060   0.000113   0.000007   0.000000  -0.000000
    25  H   -0.035462  -0.002816   0.000795  -0.000038  -0.000000   0.000003
    26  H   -0.047429  -0.001022   0.004994  -0.000044   0.000000   0.000000
    27  H    0.005123  -0.000178  -0.042710   0.402222  -0.000067   0.000001
              19         20         21         22         23         24
     1  O    0.000000   0.000000   0.000000  -0.000000  -0.000000  -0.000000
     2  N    0.000009  -0.000000  -0.000000   0.000000  -0.000000   0.000000
     3  O   -0.000000   0.000000   0.000000  -0.000000   0.000000   0.000000
     4  C   -0.000563  -0.000088   0.000000   0.000000   0.000040   0.000000
     5  C    0.000695   0.000173   0.000001  -0.000004  -0.000001  -0.000000
     6  N   -0.000507  -0.000252  -0.000074  -0.000113  -0.000030   0.000006
     7  C   -0.037050  -0.041384   0.004601  -0.004938   0.000618  -0.000125
     8  H    0.004296  -0.001952  -0.000069   0.003537   0.000040  -0.000103
     9  C    0.391709   0.399406  -0.036452  -0.046749  -0.001987   0.004364
    10  C   -0.032953  -0.035078   0.402539   0.397469  -0.039184  -0.038254
    11  C   -0.002176   0.003898  -0.034881  -0.045289   0.399171   0.402343
    12  C    0.000685  -0.000421   0.004342  -0.001059  -0.038333  -0.038430
    13  C   -0.007776   0.004321  -0.000424   0.000048  -0.007660   0.004671
    14  H    0.000112  -0.000069   0.000011  -0.000053   0.000002  -0.000060
    15  N    0.007626   0.000119  -0.000040   0.000022   0.008786   0.000113
    16  C    0.002024  -0.000036   0.000003  -0.000001   0.000143   0.000007
    17  H    0.000004   0.000001  -0.000000   0.000000   0.000000   0.000000
    18  H   -0.000130   0.000478   0.000002   0.000000   0.000000  -0.000000
    19  H    0.506290  -0.024347  -0.002749   0.003972   0.001559  -0.000071
    20  H   -0.024347   0.535737  -0.002679  -0.002941  -0.000045  -0.000082
    21  H   -0.002749  -0.002679   0.523847  -0.027382  -0.002920  -0.002243
    22  H    0.003972  -0.002941  -0.027382   0.571247   0.004142  -0.003620
    23  H    0.001559  -0.000045  -0.002920   0.004142   0.499981  -0.025392
    24  H   -0.000071  -0.000082  -0.002243  -0.003620  -0.025392   0.537193
    25  H   -0.000029   0.000013  -0.000087  -0.000080  -0.002276  -0.002306
    26  H    0.000021  -0.000029  -0.000082   0.002383   0.004089  -0.002996
    27  H    0.000058   0.000000  -0.000000   0.000000  -0.000035  -0.000000
              25         26         27
     1  O   -0.000000  -0.000000   0.002993
     2  N   -0.000000  -0.000000  -0.001325
     3  O    0.000000   0.000000  -0.000064
     4  C    0.000035   0.000005  -0.061144
     5  C   -0.000006  -0.000001   0.003308
     6  N   -0.000094  -0.000063  -0.000016
     7  C    0.005153  -0.003861  -0.000380
     8  H   -0.000025   0.001716   0.000008
     9  C   -0.000440   0.000943  -0.000047
    10  C    0.004187  -0.002267   0.000004
    11  C   -0.033224  -0.041425   0.000014
    12  C    0.397967   0.395978  -0.000033
    13  C   -0.035462  -0.047429   0.005123
    14  H   -0.002816  -0.001022  -0.000178
    15  N    0.000795   0.004994  -0.042710
    16  C   -0.000038  -0.000044   0.402222
    17  H   -0.000000   0.000000  -0.000067
    18  H    0.000003   0.000000   0.000001
    19  H   -0.000029   0.000021   0.000058
    20  H    0.000013  -0.000029   0.000000
    21  H   -0.000087  -0.000082  -0.000000
    22  H   -0.000080   0.002383   0.000000
    23  H   -0.002276   0.004089  -0.000035
    24  H   -0.002306  -0.002996  -0.000000
    25  H    0.504315  -0.023899  -0.000018
    26  H   -0.023899   0.563549   0.000001
    27  H   -0.000018   0.000001   0.459725
 Mulliken charges:
               1
     1  O   -0.463886
     2  N    0.498123
     3  O   -0.488401
     4  C    0.007953
     5  C    0.170447
     6  N   -0.767463
     7  C    0.054854
     8  H    0.181020
     9  C   -0.301545
    10  C   -0.328022
    11  C   -0.322515
    12  C   -0.306042
    13  C   -0.040156
    14  H    0.188981
    15  N   -0.509728
    16  C    0.119812
    17  H    0.290439
    18  H    0.402835
    19  H    0.189289
    20  H    0.165255
    21  H    0.174733
    22  H    0.149409
    23  H    0.199291
    24  H    0.164985
    25  H    0.188334
    26  H    0.149439
    27  H    0.232561
 Sum of Mulliken charges =  -0.00000
 Mulliken charges with hydrogens summed into heavy atoms:
               1
     1  O   -0.463886
     2  N    0.498123
     3  O   -0.488401
     4  C    0.007953
     5  C    0.460886
     6  N   -0.364629
     7  C    0.235873
     9  C    0.052999
    10  C   -0.003880
    11  C    0.041761
    12  C    0.031731
    13  C    0.148825
    15  N   -0.509728
    16  C    0.352373
 Electronic spatial extent (au):  <R**2>=           2969.7261
 Charge=              0.0000 electrons
 Dipole moment (field-independent basis, Debye):
    X=              5.2550    Y=              4.6935    Z=              1.2106  Tot=              7.1491
 Quadrupole moment (field-independent basis, Debye-Ang):
   XX=           -104.8597   YY=            -79.9671   ZZ=            -81.0847
   XY=             -1.6896   XZ=              1.3414   YZ=              4.2726
 Traceless Quadrupole moment (field-independent basis, Debye-Ang):
   XX=            -16.2226   YY=              8.6701   ZZ=              7.5525
   XY=             -1.6896   XZ=              1.3414   YZ=              4.2726
 Octapole moment (field-independent basis, Debye-Ang**2):
  XXX=             83.9848  YYY=             33.9040  ZZZ=              1.0657  XYY=             -4.9529
  XXY=              8.6944  XXZ=             -1.9518  XZZ=            -10.9806  YZZ=             -0.3677
  YYZ=              8.3700  XYZ=             -5.8975
 Hexadecapole moment (field-independent basis, Debye-Ang**3):
 XXXX=          -3302.8619 YYYY=           -618.9276 ZZZZ=           -298.4663 XXXY=            -20.8879
 XXXZ=             33.1293 YYYX=            -14.3250 YYYZ=             43.7212 ZZZX=             18.3808
 ZZZY=             20.8807 XXYY=           -620.2569 XXZZ=           -512.4383 YYZZ=           -155.4107
 XXYZ=             20.0169 YYXZ=             13.2128 ZZXY=              5.3653
 N-N= 9.329022575825D+02 E-N=-3.412507022269D+03  KE= 6.596149416729D+02
 Unable to Open any file for archive entry.
 1\1\GINC-LOTUS\FOpt\RMP2-FC\6-31G(d)\C9H13N3O2\ALEXEY\01-Jul-2023\0\\#
 MP2/6-31G* SCF=Tight Opt=(ModRedun, MaxCycle=20 ) NoSymm\\MolName:\\0,
 1\O,-3.3783588959,-1.4412398927,0.1326448736\N,-3.0770440684,-0.245812
 4807,-0.0501788539\O,-3.9010341826,0.688505752,-0.0359857764\C,-1.6599
 281788,0.0516660587,-0.2950768372\C,-1.2958799568,1.2734378973,0.21376
 79643\N,-0.056398062,1.7771855606,0.3479900585\C,1.2051961768,1.041154
 1697,0.3405332475\H,1.8388017255,1.5535729919,1.0789505671\C,1.9378793
 716,1.0572597765,-0.9987761425\C,3.3242145443,0.430330089,-0.810050255
 \C,3.2432245328,-0.9714112564,-0.199523343\C,2.4188378008,-0.984840299
 4,1.0896557182\C,1.0213477171,-0.412725996,0.8224433444\H,0.4207326797
 ,-0.394548199,1.7445585339\N,0.3902407952,-1.3110147562,-0.141242619\C
 ,-0.8485313994,-1.1395525429,-0.4732054211\H,-2.1038602538,1.964590097
 6,0.4395374196\H,-0.0160872267,2.7156403647,0.7276278322\H,1.351990729
 7,0.4933329554,-1.7329737238\H,2.0232181275,2.0873910939,-1.3652824944
 \H,3.8493931061,0.3952458128,-1.7714200973\H,3.9183752663,1.081949336,
 -0.1536700124\H,2.7710593887,-1.6545919414,-0.9129051407\H,4.252869659
 4,-1.3518340773,-0.0044756688\H,2.3125354232,-2.0090223653,1.461618972
 9\H,2.9176288195,-0.3989467045,1.8741653488\H,-1.29942364,-1.932731444
 2,-1.0707174956\\Version=ES64L-G16RevC.02\HF=-661.2890203\MP2=-663.325
 9609\RMSD=9.333e-09\RMSF=4.821e-03\Dipole=1.9199619,1.6507085,0.444766
 8\PG=C01 [X(C9H13N3O2)]\\@
 The archive entry for this job was punched.


 HE THAT IS UNAWARE OF HIS IGNORANCE WILL BE MISLED BY HIS KNOWLEDGE.

                                        -- WHATLEY
 Job cpu time:       0 days  1 hours 32 minutes 41.0 seconds.
 Elapsed time:       0 days  0 hours 27 minutes 42.5 seconds.
 File lengths (MBytes):  RWF=     36 Int=      0 D2E=      0 Chk=      7 Scr=      1
 Normal termination of Gaussian 16 at Sat Jul  1 05:29:29 2023.
