 Entering Gaussian System, Link 0=g16
 Initial command:
 /home/alexey/programs//g16/l1.exe "/home/alexey/tmp/Gau-1286155.inp" -scrdir="/home/alexey/tmp/"
 Entering Link 1 = /home/alexey/programs//g16/l1.exe PID=   1286157.
  
 Copyright (c) 1988-2021, Gaussian, Inc.  All Rights Reserved.
  
 This is part of the Gaussian(R) 16 program.  It is based on
 the Gaussian(R) 09 system (copyright 2009, Gaussian, Inc.),
 the Gaussian(R) 03 system (copyright 2003, Gaussian, Inc.),
 the Gaussian(R) 98 system (copyright 1998, Gaussian, Inc.),
 the Gaussian(R) 94 system (copyright 1995, Gaussian, Inc.),
 the Gaussian 92(TM) system (copyright 1992, Gaussian, Inc.),
 the Gaussian 90(TM) system (copyright 1990, Gaussian, Inc.),
 the Gaussian 88(TM) system (copyright 1988, Gaussian, Inc.),
 the Gaussian 86(TM) system (copyright 1986, Carnegie Mellon
 University), and the Gaussian 82(TM) system (copyright 1983,
 Carnegie Mellon University). Gaussian is a federally registered
 trademark of Gaussian, Inc.
  
 This software contains proprietary and confidential information,
 including trade secrets, belonging to Gaussian, Inc.
  
 This software is provided under written license and may be
 used, copied, transmitted, or stored only in accord with that
 written license.
  
 The following legend is applicable only to US Government
 contracts under FAR:
  
                    RESTRICTED RIGHTS LEGEND
  
 Use, reproduction and disclosure by the US Government is
 subject to restrictions as set forth in subparagraphs (a)
 and (c) of the Commercial Computer Software - Restricted
 Rights clause in FAR 52.227-19.
  
 Gaussian, Inc.
 340 Quinnipiac St., Bldg. 40, Wallingford CT 06492
  
  
 ---------------------------------------------------------------
 Warning -- This program may not be used in any manner that
 competes with the business of Gaussian, Inc. or will provide
 assistance to any competitor of Gaussian, Inc.  The licensee
 of this program is prohibited from giving any competitor of
 Gaussian, Inc. access to this program.  By using this program,
 the user acknowledges that Gaussian, Inc. is engaged in the
 business of creating and licensing software in the field of
 computational chemistry and represents and warrants to the
 licensee that it is not a competitor of Gaussian, Inc. and that
 it will not use this program in any manner prohibited above.
 ---------------------------------------------------------------
  

 Cite this work as:
 Gaussian 16, Revision C.02,
 M. J. Frisch, G. W. Trucks, H. B. Schlegel, G. E. Scuseria, 
 M. A. Robb, J. R. Cheeseman, G. Scalmani, V. Barone, 
 G. A. Petersson, H. Nakatsuji, X. Li, M. Caricato, A. V. Marenich, 
 J. Bloino, B. G. Janesko, R. Gomperts, B. Mennucci, H. P. Hratchian, 
 J. V. Ortiz, A. F. Izmaylov, J. L. Sonnenberg, D. Williams-Young, 
 F. Ding, F. Lipparini, F. Egidi, J. Goings, B. Peng, A. Petrone, 
 T. Henderson, D. Ranasinghe, V. G. Zakrzewski, J. Gao, N. Rega, 
 G. Zheng, W. Liang, M. Hada, M. Ehara, K. Toyota, R. Fukuda, 
 J. Hasegawa, M. Ishida, T. Nakajima, Y. Honda, O. Kitao, H. Nakai, 
 T. Vreven, K. Throssell, J. A. Montgomery, Jr., J. E. Peralta, 
 F. Ogliaro, M. J. Bearpark, J. J. Heyd, E. N. Brothers, K. N. Kudin, 
 V. N. Staroverov, T. A. Keith, R. Kobayashi, J. Normand, 
 K. Raghavachari, A. P. Rendell, J. C. Burant, S. S. Iyengar, 
 J. Tomasi, M. Cossi, J. M. Millam, M. Klene, C. Adamo, R. Cammi, 
 J. W. Ochterski, R. L. Martin, K. Morokuma, O. Farkas, 
 J. B. Foresman, and D. J. Fox, Gaussian, Inc., Wallingford CT, 2019.
 
 ******************************************
 Gaussian 16:  ES64L-G16RevC.02  7-Dec-2021
                 1-Jul-2023 
 ******************************************
 %mem=8GB
 %NPROCS=4
 Will use up to    4 processors via shared memory.
 %NoSave
 ---------------------------------------------------------
 #MP2/6-31G* SCF=Tight Opt=(ModRedun, MaxCycle=20 ) NoSymm
 ---------------------------------------------------------
 1/6=20,18=120,19=15,38=1/1,3;
 2/9=110,12=2,15=1,17=6,18=5,40=1/2;
 3/5=1,6=6,7=1,11=9,25=1,30=1,71=1/1,2,3;
 4//1;
 5/5=2,32=2,38=5/2;
 8/6=4,10=2/1;
 9/15=2,16=-3/6;
 10/5=1,31=1/2;
 6/7=2,8=2,9=2,10=2/1;
 7/12=2,30=1/1,2,3,16;
 1/6=20,18=20,19=15/3(2);
 2/9=110,15=1/2;
 99//99;
 2/9=110,15=1/2;
 3/5=1,6=6,7=1,11=9,25=1,30=1,71=1/1,2,3;
 4/5=5,16=3,69=1/1;
 5/5=2,32=2,38=5/2;
 8/6=4,10=2/1;
 9/15=2,16=-3/6;
 10/5=1,31=1/2;
 7/12=2,30=1/1,2,3,16;
 1/6=20,18=20,19=15/3(-8);
 2/9=110,15=1/2;
 6/7=2,8=2,9=2,10=2/1;
 99/9=10/99;
 --------
 MolName:
 --------
 Symbolic Z-matrix:
 Charge =  0 Multiplicity = 1
 8                    0    -3.50784  -1.45767  -0.09837 
 7                    0    -3.14481  -0.28825   0.04745 
 8                    0    -3.96124   0.62772   0.19037 
 6                    0    -1.79954   0.00349  -0.03908 
 6                    0    -1.38537   1.30946   0.29015 
 7                    0    -0.09471   1.77135   0.34315 
 6                    0     1.18289   0.99764   0.33686 
 1                    0     1.83402   1.49515   1.10212 
 6                    0     1.97288   1.04644  -0.9947 
 6                    0     3.37891   0.45494  -0.77892 
 6                    0     3.30025  -0.96095  -0.18638 
 6                    0     2.42741  -0.99189   1.08702 
 6                    0     0.99765  -0.44801   0.81702 
 1                    0     0.43329  -0.48606   1.77827 
 7                    0     0.3552   -1.30825  -0.17698 
 6                    0    -0.87988  -1.08996  -0.4928 
 1                    0    -2.15403   2.04761   0.57442 
 1                    0     0.13227   2.74629   0.13326 
 1                    0     1.43624   0.47238  -1.77976 
 1                    0     2.06988   2.09628  -1.3441 
 1                    0     3.93191   0.42931  -1.74332 
 1                    0     3.94514   1.10635  -0.07628 
 1                    0     2.86391  -1.64794  -0.9463 
 1                    0     4.32235  -1.32934   0.04966 
 1                    0     2.35677  -2.03843   1.45648 
 1                    0     2.91048  -0.3846    1.881 
 1                    0    -1.36002  -1.81007  -1.17325 
 
 The following ModRedundant input section has been read:
 B       2       4 F                                                           
 D       1       2       4      16 F                                           
 D       7      13      15      16 F                                           
 D       7       9      10      11 F                                           
 D       9      10      11      12 F                                           
 D       6       7      13      15 F                                           
 

 GradGradGradGradGradGradGradGradGradGradGradGradGradGradGradGradGradGrad
 Berny optimization.
 Initialization pass.
                           ----------------------------
                           !    Initial Parameters    !
                           ! (Angstroms and Degrees)  !
 --------------------------                            --------------------------
 ! Name  Definition              Value          Derivative Info.                !
 --------------------------------------------------------------------------------
 ! R1    R(1,2)                  1.2331         estimate D2E/DX2                !
 ! R2    R(2,3)                  1.2353         estimate D2E/DX2                !
 ! R3    R(2,4)                  1.3793         Frozen                          !
 ! R4    R(4,5)                  1.4091         estimate D2E/DX2                !
 ! R5    R(4,16)                 1.4991         estimate D2E/DX2                !
 ! R6    R(5,6)                  1.3718         estimate D2E/DX2                !
 ! R7    R(5,17)                 1.103          estimate D2E/DX2                !
 ! R8    R(6,7)                  1.4936         estimate D2E/DX2                !
 ! R9    R(6,18)                 1.0228         estimate D2E/DX2                !
 ! R10   R(7,8)                  1.1212         estimate D2E/DX2                !
 ! R11   R(7,9)                  1.549          estimate D2E/DX2                !
 ! R12   R(7,13)                 1.5345         estimate D2E/DX2                !
 ! R13   R(9,10)                 1.5406         estimate D2E/DX2                !
 ! R14   R(9,19)                 1.1108         estimate D2E/DX2                !
 ! R15   R(9,20)                 1.1107         estimate D2E/DX2                !
 ! R16   R(10,11)                1.5369         estimate D2E/DX2                !
 ! R17   R(10,21)                1.112          estimate D2E/DX2                !
 ! R18   R(10,22)                1.1129         estimate D2E/DX2                !
 ! R19   R(11,12)                1.5441         estimate D2E/DX2                !
 ! R20   R(11,23)                1.1135         estimate D2E/DX2                !
 ! R21   R(11,24)                1.1118         estimate D2E/DX2                !
 ! R22   R(12,13)                1.5534         estimate D2E/DX2                !
 ! R23   R(12,25)                1.1121         estimate D2E/DX2                !
 ! R24   R(12,26)                1.1102         estimate D2E/DX2                !
 ! R25   R(13,14)                1.1153         estimate D2E/DX2                !
 ! R26   R(13,15)                1.4631         estimate D2E/DX2                !
 ! R27   R(15,16)                1.2934         estimate D2E/DX2                !
 ! R28   R(16,27)                1.101          estimate D2E/DX2                !
 ! A1    A(1,2,3)              121.4863         estimate D2E/DX2                !
 ! A2    A(1,2,4)              118.7061         estimate D2E/DX2                !
 ! A3    A(3,2,4)              119.6727         estimate D2E/DX2                !
 ! A4    A(2,4,5)              117.9092         estimate D2E/DX2                !
 ! A5    A(2,4,16)             117.5851         estimate D2E/DX2                !
 ! A6    A(5,4,16)             124.502          estimate D2E/DX2                !
 ! A7    A(4,5,6)              126.6996         estimate D2E/DX2                !
 ! A8    A(4,5,17)             118.4019         estimate D2E/DX2                !
 ! A9    A(6,5,17)             114.8585         estimate D2E/DX2                !
 ! A10   A(5,6,7)              129.063          estimate D2E/DX2                !
 ! A11   A(5,6,18)             121.4535         estimate D2E/DX2                !
 ! A12   A(7,6,18)             107.643          estimate D2E/DX2                !
 ! A13   A(6,7,8)              105.3086         estimate D2E/DX2                !
 ! A14   A(6,7,9)              115.0575         estimate D2E/DX2                !
 ! A15   A(6,7,13)             112.5464         estimate D2E/DX2                !
 ! A16   A(8,7,9)              106.0549         estimate D2E/DX2                !
 ! A17   A(8,7,13)             105.936          estimate D2E/DX2                !
 ! A18   A(9,7,13)             111.1135         estimate D2E/DX2                !
 ! A19   A(7,9,10)             109.4481         estimate D2E/DX2                !
 ! A20   A(7,9,19)             110.1738         estimate D2E/DX2                !
 ! A21   A(7,9,20)             110.1651         estimate D2E/DX2                !
 ! A22   A(10,9,19)            109.9678         estimate D2E/DX2                !
 ! A23   A(10,9,20)            109.103          estimate D2E/DX2                !
 ! A24   A(19,9,20)            107.9597         estimate D2E/DX2                !
 ! A25   A(9,10,11)            111.1622         estimate D2E/DX2                !
 ! A26   A(9,10,21)            109.953          estimate D2E/DX2                !
 ! A27   A(9,10,22)            109.1496         estimate D2E/DX2                !
 ! A28   A(11,10,21)           109.791          estimate D2E/DX2                !
 ! A29   A(11,10,22)           108.775          estimate D2E/DX2                !
 ! A30   A(21,10,22)           107.9396         estimate D2E/DX2                !
 ! A31   A(10,11,12)           111.4283         estimate D2E/DX2                !
 ! A32   A(10,11,23)           108.9858         estimate D2E/DX2                !
 ! A33   A(10,11,24)           109.8803         estimate D2E/DX2                !
 ! A34   A(12,11,23)           109.2047         estimate D2E/DX2                !
 ! A35   A(12,11,24)           109.7511         estimate D2E/DX2                !
 ! A36   A(23,11,24)           107.5005         estimate D2E/DX2                !
 ! A37   A(11,12,13)           111.7111         estimate D2E/DX2                !
 ! A38   A(11,12,25)           109.192          estimate D2E/DX2                !
 ! A39   A(11,12,26)           109.4423         estimate D2E/DX2                !
 ! A40   A(13,12,25)           109.1944         estimate D2E/DX2                !
 ! A41   A(13,12,26)           109.4679         estimate D2E/DX2                !
 ! A42   A(25,12,26)           107.7468         estimate D2E/DX2                !
 ! A43   A(7,13,12)            105.8507         estimate D2E/DX2                !
 ! A44   A(7,13,14)            111.2784         estimate D2E/DX2                !
 ! A45   A(7,13,15)            113.2234         estimate D2E/DX2                !
 ! A46   A(12,13,14)           107.6976         estimate D2E/DX2                !
 ! A47   A(12,13,15)           108.4441         estimate D2E/DX2                !
 ! A48   A(14,13,15)           110.0763         estimate D2E/DX2                !
 ! A49   A(13,15,16)           119.0752         estimate D2E/DX2                !
 ! A50   A(4,16,15)            129.4222         estimate D2E/DX2                !
 ! A51   A(4,16,27)            113.3662         estimate D2E/DX2                !
 ! A52   A(15,16,27)           117.1925         estimate D2E/DX2                !
 ! D1    D(1,2,4,5)           -172.4087         estimate D2E/DX2                !
 ! D2    D(1,2,4,16)             8.2584         Frozen                          !
 ! D3    D(3,2,4,5)             11.7495         estimate D2E/DX2                !
 ! D4    D(3,2,4,16)          -167.5833         estimate D2E/DX2                !
 ! D5    D(2,4,5,6)            175.8896         estimate D2E/DX2                !
 ! D6    D(2,4,5,17)            -1.685          estimate D2E/DX2                !
 ! D7    D(16,4,5,6)            -4.828          estimate D2E/DX2                !
 ! D8    D(16,4,5,17)          177.5975         estimate D2E/DX2                !
 ! D9    D(2,4,16,15)         -148.9089         estimate D2E/DX2                !
 ! D10   D(2,4,16,27)           29.4365         estimate D2E/DX2                !
 ! D11   D(5,4,16,15)           31.8065         estimate D2E/DX2                !
 ! D12   D(5,4,16,27)         -149.8481         estimate D2E/DX2                !
 ! D13   D(4,5,6,7)            -13.1277         estimate D2E/DX2                !
 ! D14   D(4,5,6,18)           149.4321         estimate D2E/DX2                !
 ! D15   D(17,5,6,7)           164.5209         estimate D2E/DX2                !
 ! D16   D(17,5,6,18)          -32.9192         estimate D2E/DX2                !
 ! D17   D(5,6,7,8)           -137.9109         estimate D2E/DX2                !
 ! D18   D(5,6,7,9)            105.6978         estimate D2E/DX2                !
 ! D19   D(5,6,7,13)           -22.9586         estimate D2E/DX2                !
 ! D20   D(18,6,7,8)            57.6517         estimate D2E/DX2                !
 ! D21   D(18,6,7,9)           -58.7396         estimate D2E/DX2                !
 ! D22   D(18,6,7,13)          172.604          estimate D2E/DX2                !
 ! D23   D(6,7,9,10)           168.8073         estimate D2E/DX2                !
 ! D24   D(6,7,9,19)           -70.1579         estimate D2E/DX2                !
 ! D25   D(6,7,9,20)            48.8467         estimate D2E/DX2                !
 ! D26   D(8,7,9,10)            52.8423         estimate D2E/DX2                !
 ! D27   D(8,7,9,19)           173.877          estimate D2E/DX2                !
 ! D28   D(8,7,9,20)           -67.1183         estimate D2E/DX2                !
 ! D29   D(13,7,9,10)          -61.8277         estimate D2E/DX2                !
 ! D30   D(13,7,9,19)           59.2071         estimate D2E/DX2                !
 ! D31   D(13,7,9,20)          178.2117         estimate D2E/DX2                !
 ! D32   D(6,7,13,12)         -166.3117         estimate D2E/DX2                !
 ! D33   D(6,7,13,14)          -49.5871         estimate D2E/DX2                !
 ! D34   D(6,7,13,15)           75.0217         Frozen                          !
 ! D35   D(8,7,13,12)          -51.7398         estimate D2E/DX2                !
 ! D36   D(8,7,13,14)           64.9848         estimate D2E/DX2                !
 ! D37   D(8,7,13,15)         -170.4063         estimate D2E/DX2                !
 ! D38   D(9,7,13,12)           63.0043         estimate D2E/DX2                !
 ! D39   D(9,7,13,14)          179.7289         estimate D2E/DX2                !
 ! D40   D(9,7,13,15)          -55.6623         estimate D2E/DX2                !
 ! D41   D(7,9,10,11)           54.8117         Frozen                          !
 ! D42   D(7,9,10,21)          176.6013         estimate D2E/DX2                !
 ! D43   D(7,9,10,22)          -65.1731         estimate D2E/DX2                !
 ! D44   D(19,9,10,11)         -66.3478         estimate D2E/DX2                !
 ! D45   D(19,9,10,21)          55.4417         estimate D2E/DX2                !
 ! D46   D(19,9,10,22)         173.6674         estimate D2E/DX2                !
 ! D47   D(20,9,10,11)         175.4212         estimate D2E/DX2                !
 ! D48   D(20,9,10,21)         -62.7892         estimate D2E/DX2                !
 ! D49   D(20,9,10,22)          55.4364         estimate D2E/DX2                !
 ! D50   D(9,10,11,12)         -52.822          Frozen                          !
 ! D51   D(9,10,11,23)          67.7572         estimate D2E/DX2                !
 ! D52   D(9,10,11,24)        -174.6892         estimate D2E/DX2                !
 ! D53   D(21,10,11,12)       -174.7059         estimate D2E/DX2                !
 ! D54   D(21,10,11,23)        -54.1267         estimate D2E/DX2                !
 ! D55   D(21,10,11,24)         63.4269         estimate D2E/DX2                !
 ! D56   D(22,10,11,12)         67.3849         estimate D2E/DX2                !
 ! D57   D(22,10,11,23)       -172.0359         estimate D2E/DX2                !
 ! D58   D(22,10,11,24)        -54.4823         estimate D2E/DX2                !
 ! D59   D(10,11,12,13)         56.4776         estimate D2E/DX2                !
 ! D60   D(10,11,12,25)        177.3615         estimate D2E/DX2                !
 ! D61   D(10,11,12,26)        -64.9197         estimate D2E/DX2                !
 ! D62   D(23,11,12,13)        -63.973          estimate D2E/DX2                !
 ! D63   D(23,11,12,25)         56.9109         estimate D2E/DX2                !
 ! D64   D(23,11,12,26)        174.6297         estimate D2E/DX2                !
 ! D65   D(24,11,12,13)        178.4196         estimate D2E/DX2                !
 ! D66   D(24,11,12,25)        -60.6964         estimate D2E/DX2                !
 ! D67   D(24,11,12,26)         57.0224         estimate D2E/DX2                !
 ! D68   D(11,12,13,7)         -60.0499         estimate D2E/DX2                !
 ! D69   D(11,12,13,14)       -179.1662         estimate D2E/DX2                !
 ! D70   D(11,12,13,15)         61.739          estimate D2E/DX2                !
 ! D71   D(25,12,13,7)         179.0676         estimate D2E/DX2                !
 ! D72   D(25,12,13,14)         59.9513         estimate D2E/DX2                !
 ! D73   D(25,12,13,15)        -59.1435         estimate D2E/DX2                !
 ! D74   D(26,12,13,7)          61.3326         estimate D2E/DX2                !
 ! D75   D(26,12,13,14)        -57.7838         estimate D2E/DX2                !
 ! D76   D(26,12,13,15)       -176.8785         estimate D2E/DX2                !
 ! D77   D(7,13,15,16)         -67.1603         Frozen                          !
 ! D78   D(12,13,15,16)        175.684          estimate D2E/DX2                !
 ! D79   D(14,13,15,16)         58.0982         estimate D2E/DX2                !
 ! D80   D(13,15,16,4)           3.7553         estimate D2E/DX2                !
 ! D81   D(13,15,16,27)       -174.5371         estimate D2E/DX2                !
 --------------------------------------------------------------------------------
 Trust Radius=3.00D-01 FncErr=1.00D-07 GrdErr=1.00D-07 EigMax=2.50D+02 EigMin=1.00D-04
 Number of steps in this run=     20 maximum allowed number of steps=    162.
 GradGradGradGradGradGradGradGradGradGradGradGradGradGradGradGradGradGrad

                          Input orientation:                          
 ---------------------------------------------------------------------
 Center     Atomic      Atomic             Coordinates (Angstroms)
 Number     Number       Type             X           Y           Z
 ---------------------------------------------------------------------
      1          8           0       -3.507840   -1.457670   -0.098370
      2          7           0       -3.144810   -0.288250    0.047450
      3          8           0       -3.961240    0.627720    0.190370
      4          6           0       -1.799540    0.003490   -0.039080
      5          6           0       -1.385370    1.309460    0.290150
      6          7           0       -0.094710    1.771350    0.343150
      7          6           0        1.182890    0.997640    0.336860
      8          1           0        1.834020    1.495150    1.102120
      9          6           0        1.972880    1.046440   -0.994700
     10          6           0        3.378910    0.454940   -0.778920
     11          6           0        3.300250   -0.960950   -0.186380
     12          6           0        2.427410   -0.991890    1.087020
     13          6           0        0.997650   -0.448010    0.817020
     14          1           0        0.433290   -0.486060    1.778270
     15          7           0        0.355200   -1.308250   -0.176980
     16          6           0       -0.879880   -1.089960   -0.492800
     17          1           0       -2.154030    2.047610    0.574420
     18          1           0        0.132270    2.746290    0.133260
     19          1           0        1.436240    0.472380   -1.779760
     20          1           0        2.069880    2.096280   -1.344100
     21          1           0        3.931910    0.429310   -1.743320
     22          1           0        3.945140    1.106350   -0.076280
     23          1           0        2.863910   -1.647940   -0.946300
     24          1           0        4.322350   -1.329340    0.049660
     25          1           0        2.356770   -2.038430    1.456480
     26          1           0        2.910480   -0.384600    1.881000
     27          1           0       -1.360020   -1.810070   -1.173250
 ---------------------------------------------------------------------
                    Distance matrix (angstroms):
                    1          2          3          4          5
     1  O    0.000000
     2  N    1.233125   0.000000
     3  O    2.153554   1.235308   0.000000
     4  C    2.248731   1.379257   2.261693   0.000000
     5  C    3.508965   2.388977   2.666427   1.409073   0.000000
     6  N    4.719212   3.692222   4.035008   2.485533   1.371844
     7  C    5.312337   4.523965   5.159494   3.166158   2.587542
     8  H    6.220594   5.392735   5.930326   4.090250   3.325394
     9  C    6.091984   5.390568   6.065764   4.028909   3.605255
    10  C    7.179732   6.617714   7.405888   5.250478   4.956963
    11  C    6.826754   6.484289   7.442785   5.192273   5.228468
    12  C    6.070362   5.711869   6.651463   4.486200   4.524213
    13  C    4.707100   4.216365   5.112776   2.959904   3.007503
    14  H    4.471947   3.979657   4.803522   2.920265   2.957350
    15  N    3.866728   3.652511   4.744953   2.526377   3.178081
    16  C    2.682715   2.462624   3.593317   1.499089   2.574053
    17  H    3.817386   2.591444   2.330148   2.163440   1.102957
    18  H    5.565728   4.467108   4.609601   3.359247   2.095788
    19  H    5.567413   4.990318   5.747898   3.704065   3.598154
    20  H    6.730034   5.900456   6.394191   4.588601   3.902385
    21  H    7.849614   7.334965   8.128982   5.994604   5.760480
    22  H    7.881726   7.226867   7.925341   5.849704   5.346949
    23  H    6.430738   6.240273   7.283771   5.029715   5.322725
    24  H    7.832640   7.539387   8.512799   6.265928   6.292787
    25  H    6.094956   5.942716   6.973424   4.866318   5.154833
    26  H    6.801780   6.327537   7.148675   5.101138   4.884155
    27  H    2.427485   2.644148   3.816887   2.183694   3.445816
                    6          7          8          9         10
     6  N    0.000000
     7  C    1.493629   0.000000
     8  H    2.091010   1.121209   0.000000
     9  C    2.567151   1.549038   2.148785   0.000000
    10  C    3.880465   2.522299   2.647080   1.540569   0.000000
    11  C    4.389945   2.931394   3.137274   2.538682   1.536892
    12  C    3.814437   2.463696   2.556894   2.948719   2.545663
    13  C    2.518603   1.534526   2.134635   2.542987   3.005452
    14  H    2.726583   2.200211   2.518813   3.522535   4.012652
    15  N    3.155454   2.503244   3.417902   2.971552   3.551618
    16  C    3.082596   3.049825   4.073305   3.599215   4.539369
    17  H    2.090599   3.506267   4.060569   4.527236   5.914520
    18  H    1.022781   2.050130   2.323789   2.747659   4.077135
    19  H    2.921965   2.195487   3.083751   1.110786   2.185395
    20  H    2.763665   2.195310   2.530016   1.110700   2.174163
    21  H    4.729492   3.493889   3.692382   2.186111   1.111995
    22  H    4.115645   2.795090   2.448800   2.176441   1.112949
    23  H    4.701878   3.386949   3.890464   2.838302   2.171485
    24  H    5.404705   3.918358   3.908606   3.500718   2.181806
    25  H    4.665156   3.442276   3.589572   3.958798   3.501239
    26  H    4.005530   2.698059   2.301930   3.346135   2.828326
    27  H    4.089871   4.077997   5.128711   4.393148   5.267184
                   11         12         13         14         15
    11  C    0.000000
    12  C    1.544136   0.000000
    13  C    2.563569   1.553357   0.000000
    14  H    3.507824   2.170301   1.115326   0.000000
    15  N    2.965472   2.447822   1.463144   2.122521   0.000000
    16  C    4.193331   3.666554   2.377572   2.692001   1.293374
    17  H    6.275302   5.521858   4.027414   3.816145   4.257069
    18  H    4.886911   4.489022   3.379344   3.639335   4.072498
    19  H    2.840392   3.368224   2.789757   3.818913   2.628344
    20  H    3.492962   3.946513   3.506213   4.369909   3.986618
    21  H    2.180798   3.506302   3.991856   5.047756   4.273803
    22  H    2.168348   2.838905   3.449887   4.278810   4.327598
    23  H    1.113475   2.180671   2.834088   3.831600   2.645915
    24  H    1.111807   2.186501   3.524091   4.338664   3.973675
    25  H    2.179474   1.112087   2.187590   2.492624   2.684704
    26  H    2.181321   1.110208   2.189747   2.481394   3.408499
    27  H    4.838702   4.485852   3.372683   3.698707   2.046059
                   16         17         18         19         20
    16  C    0.000000
    17  H    3.550600   0.000000
    18  H    4.016617   2.431038   0.000000
    19  H    3.075969   4.573134   3.245096   0.000000
    20  H    4.424694   4.639451   2.521793   1.796761   0.000000
    21  H    5.198587   6.710401   4.829825   2.496308   2.530874
    22  H    5.317714   6.205583   4.155874   3.098119   2.470613
    23  H    3.812213   6.414780   5.285505   2.688616   3.848105
    24  H    5.235911   7.322750   5.845898   3.862979   4.330249
    25  H    3.895535   6.149884   5.439932   4.198189   5.002138
    26  H    4.527614   5.768194   4.536024   4.038436   4.154834
    27  H    1.100956   4.308886   4.969337   3.660123   5.201247
                   21         22         23         24         25
    21  H    0.000000
    22  H    1.799328   0.000000
    23  H    2.467961   3.084170   0.000000
    24  H    2.541667   2.467941   1.794572   0.000000
    25  H    4.336995   3.842124   2.486569   2.519019   0.000000
    26  H    3.852462   2.669157   3.097067   2.497943   1.794983
    27  H    5.774455   6.152526   4.233129   5.832318   4.558745
                   26         27
    26  H    0.000000
    27  H    5.440366   0.000000
 Symmetry turned off by external request.
 Stoichiometry    C9H13N3O2
 Framework group  C1[X(C9H13N3O2)]
 Deg. of freedom    75
 Full point group                 C1      NOp   1
 Rotational constants (GHZ):           1.6891320           0.4110562           0.3638809
 Standard basis: 6-31G(d) (6D, 7F)
   236 basis functions,   444 primitive gaussians,   236 cartesian basis functions
    52 alpha electrons       52 beta electrons
       nuclear repulsion energy       924.6619955503 Hartrees.
 NAtoms=   27 NActive=   27 NUniq=   27 SFac= 1.00D+00 NAtFMM=   60 NAOKFM=F Big=F
 Integral buffers will be    131072 words long.
 Raffenetti 1 integral format.
 Two-electron integral symmetry is turned off.
 One-electron integrals computed using PRISM.
 NBasis=   236 RedAO= T EigKep=  1.18D-03  NBF=   236
 NBsUse=   236 1.00D-06 EigRej= -1.00D+00 NBFU=   236
 ExpMin= 1.61D-01 ExpMax= 5.48D+03 ExpMxC= 8.25D+02 IAcc=3 IRadAn=         5 AccDes= 0.00D+00
 Harris functional with IExCor=  205 and IRadAn=       5 diagonalized for initial guess.
 HarFok:  IExCor=  205 AccDes= 0.00D+00 IRadAn=         5 IDoV= 1 UseB2=F ITyADJ=14
 ICtDFT=  3500011 ScaDFX=  1.000000  1.000000  1.000000  1.000000
 FoFCou: FMM=F IPFlag=           0 FMFlag=      100000 FMFlg1=           0
         NFxFlg=           0 DoJE=T BraDBF=F KetDBF=T FulRan=T
         wScrn=  0.000000 ICntrl=       500 IOpCl=  0 I1Cent=   200000004 NGrid=           0
         NMat0=    1 NMatS0=      1 NMatT0=    0 NMatD0=    1 NMtDS0=    0 NMtDT0=    0
 Symmetry not used in FoFCou.
 Keep R1 ints in memory in canonical form, NReq=397720213.
 Requested convergence on RMS density matrix=1.00D-08 within 128 cycles.
 Requested convergence on MAX density matrix=1.00D-06.
 Requested convergence on             energy=1.00D-06.
 No special actions if energy rises.
 SCF Done:  E(RHF) =  -661.281703433     A.U. after   17 cycles
            NFock= 17  Conv=0.48D-08     -V/T= 2.0032
 ExpMin= 1.61D-01 ExpMax= 5.48D+03 ExpMxC= 8.25D+02 IAcc=3 IRadAn=         5 AccDes= 0.00D+00
 HarFok:  IExCor=  205 AccDes= 0.00D+00 IRadAn=         5 IDoV=-2 UseB2=F ITyADJ=14
 ICtDFT= 12500011 ScaDFX=  1.000000  1.000000  1.000000  1.000000
 Range of M.O.s used for correlation:    15   236
 NBasis=   236 NAE=    52 NBE=    52 NFC=    14 NFV=     0
 NROrb=    222 NOA=    38 NOB=    38 NVA=   184 NVB=   184
 Fully direct method using O(ONN) memory.
 JobTyp=1 Pass  1:  I=  15 to  52 NPSUse=  4 ParTrn=T ParDer=T DoDerP=T.
 Spin components of T(2) and E(2):
     alpha-alpha T2 =       0.9148490516D-01 E2=     -0.2716695882D+00
     alpha-beta  T2 =       0.4959056593D+00 E2=     -0.1489959861D+01
     beta-beta   T2 =       0.9148490516D-01 E2=     -0.2716695882D+00
 ANorm=    0.1295714270D+01
 E2 =    -0.2033299037D+01 EUMP2 =    -0.66331500247039D+03
          IDoAtm=111111111111111111111111111
          Differentiating once with respect to electric field.
                with respect to dipole field.
          Differentiating once with respect to nuclear coordinates.
 Keep R1 ints in memory in canonical form, NReq=397723379.
          There are     1 degrees of freedom in the 1st order CPHF.  IDoFFX=0 NUNeed=     1.
 LinEq1:  Iter=  0 NonCon=     1 RMS=4.60D-03 Max=1.16D-01 NDo=     1
 AX will form     1 AO Fock derivatives at one time.
 LinEq1:  Iter=  1 NonCon=     1 RMS=1.53D-03 Max=3.01D-02 NDo=     1
 LinEq1:  Iter=  2 NonCon=     1 RMS=6.42D-04 Max=1.78D-02 NDo=     1
 LinEq1:  Iter=  3 NonCon=     1 RMS=3.02D-04 Max=1.21D-02 NDo=     1
 LinEq1:  Iter=  4 NonCon=     1 RMS=9.52D-05 Max=2.36D-03 NDo=     1
 LinEq1:  Iter=  5 NonCon=     1 RMS=4.22D-05 Max=2.26D-03 NDo=     1
 LinEq1:  Iter=  6 NonCon=     1 RMS=1.58D-05 Max=4.58D-04 NDo=     1
 LinEq1:  Iter=  7 NonCon=     1 RMS=5.95D-06 Max=6.89D-05 NDo=     1
 LinEq1:  Iter=  8 NonCon=     1 RMS=2.24D-06 Max=4.79D-05 NDo=     1
 LinEq1:  Iter=  9 NonCon=     1 RMS=7.73D-07 Max=2.24D-05 NDo=     1
 LinEq1:  Iter= 10 NonCon=     1 RMS=3.76D-07 Max=1.58D-05 NDo=     1
 LinEq1:  Iter= 11 NonCon=     1 RMS=1.45D-07 Max=5.36D-06 NDo=     1
 LinEq1:  Iter= 12 NonCon=     1 RMS=5.26D-08 Max=8.77D-07 NDo=     1
 LinEq1:  Iter= 13 NonCon=     1 RMS=1.71D-08 Max=3.29D-07 NDo=     1
 LinEq1:  Iter= 14 NonCon=     1 RMS=5.91D-09 Max=1.34D-07 NDo=     1
 LinEq1:  Iter= 15 NonCon=     1 RMS=2.24D-09 Max=4.40D-08 NDo=     1
 LinEq1:  Iter= 16 NonCon=     1 RMS=8.58D-10 Max=1.59D-08 NDo=     1
 LinEq1:  Iter= 17 NonCon=     1 RMS=2.69D-10 Max=4.17D-09 NDo=     1
 LinEq1:  Iter= 18 NonCon=     1 RMS=8.80D-11 Max=1.58D-09 NDo=     1
 LinEq1:  Iter= 19 NonCon=     0 RMS=2.74D-11 Max=4.68D-10 NDo=     1
 Linear equations converged to 1.000D-10 1.000D-09 after    19 iterations.
 End of Minotr F.D. properties file   721 does not exist.
 End of Minotr F.D. properties file   722 does not exist.
 End of Minotr F.D. properties file   788 does not exist.

 **********************************************************************

            Population analysis using the SCF Density.

 **********************************************************************

 Alpha  occ. eigenvalues --  -20.58495 -20.57811 -15.84232 -15.63954 -15.57089
 Alpha  occ. eigenvalues --  -11.36591 -11.30487 -11.30366 -11.29213 -11.27867
 Alpha  occ. eigenvalues --  -11.24871 -11.24053 -11.23564 -11.22999  -1.58554
 Alpha  occ. eigenvalues --   -1.36830  -1.29071  -1.22963  -1.14887  -1.10477
 Alpha  occ. eigenvalues --   -1.02081  -1.01541  -0.94408  -0.89187  -0.85176
 Alpha  occ. eigenvalues --   -0.81714  -0.77911  -0.77209  -0.74627  -0.71478
 Alpha  occ. eigenvalues --   -0.70606  -0.69405  -0.67478  -0.64457  -0.63422
 Alpha  occ. eigenvalues --   -0.61789  -0.60369  -0.57652  -0.56634  -0.55077
 Alpha  occ. eigenvalues --   -0.53616  -0.50927  -0.49285  -0.48627  -0.47883
 Alpha  occ. eigenvalues --   -0.46932  -0.45958  -0.45755  -0.43302  -0.42156
 Alpha  occ. eigenvalues --   -0.40251  -0.34165
 Alpha virt. eigenvalues --    0.06159   0.12000   0.18237   0.21426   0.23559
 Alpha virt. eigenvalues --    0.24500   0.26320   0.27644   0.28449   0.28686
 Alpha virt. eigenvalues --    0.30103   0.31017   0.31708   0.32086   0.33234
 Alpha virt. eigenvalues --    0.33580   0.34843   0.37143   0.37961   0.39777
 Alpha virt. eigenvalues --    0.41411   0.42432   0.44058   0.45044   0.45619
 Alpha virt. eigenvalues --    0.45932   0.49491   0.53103   0.56676   0.58974
 Alpha virt. eigenvalues --    0.63787   0.68915   0.69344   0.72177   0.73953
 Alpha virt. eigenvalues --    0.75010   0.75649   0.77458   0.78074   0.79522
 Alpha virt. eigenvalues --    0.81423   0.84062   0.85316   0.85501   0.88055
 Alpha virt. eigenvalues --    0.88936   0.90088   0.90562   0.91967   0.94653
 Alpha virt. eigenvalues --    0.95601   0.96985   0.98520   1.00131   1.02181
 Alpha virt. eigenvalues --    1.02996   1.05094   1.05603   1.07052   1.08060
 Alpha virt. eigenvalues --    1.09632   1.10327   1.10876   1.12017   1.13117
 Alpha virt. eigenvalues --    1.13723   1.14047   1.15130   1.16220   1.17286
 Alpha virt. eigenvalues --    1.17640   1.19733   1.20878   1.22202   1.22793
 Alpha virt. eigenvalues --    1.23810   1.25015   1.26748   1.27758   1.28197
 Alpha virt. eigenvalues --    1.29472   1.31449   1.33036   1.34514   1.40824
 Alpha virt. eigenvalues --    1.43031   1.46186   1.47894   1.48730   1.53030
 Alpha virt. eigenvalues --    1.53612   1.55007   1.60977   1.61447   1.65123
 Alpha virt. eigenvalues --    1.69374   1.72063   1.72975   1.74492   1.77448
 Alpha virt. eigenvalues --    1.78704   1.82510   1.84765   1.89701   1.92609
 Alpha virt. eigenvalues --    1.94135   1.97528   1.98311   1.99387   2.02997
 Alpha virt. eigenvalues --    2.05285   2.06564   2.08012   2.09894   2.12530
 Alpha virt. eigenvalues --    2.13936   2.14236   2.17442   2.19169   2.20093
 Alpha virt. eigenvalues --    2.20936   2.22427   2.24763   2.26259   2.28710
 Alpha virt. eigenvalues --    2.30604   2.32188   2.33043   2.35404   2.35686
 Alpha virt. eigenvalues --    2.38019   2.40358   2.41331   2.44700   2.46663
 Alpha virt. eigenvalues --    2.49150   2.50510   2.52078   2.56789   2.57581
 Alpha virt. eigenvalues --    2.60882   2.63036   2.65799   2.68190   2.69747
 Alpha virt. eigenvalues --    2.70417   2.70478   2.74260   2.75897   2.83295
 Alpha virt. eigenvalues --    2.85288   2.87257   2.90723   2.92743   2.95434
 Alpha virt. eigenvalues --    2.97685   2.99212   3.01490   3.04627   3.05770
 Alpha virt. eigenvalues --    3.06759   3.12395   3.21180   3.25148   3.27146
 Alpha virt. eigenvalues --    3.30277   3.34745   3.38204   3.55842   3.60440
 Alpha virt. eigenvalues --    4.13169   4.31015   4.33424   4.38241   4.43214
 Alpha virt. eigenvalues --    4.53382   4.59780   4.60196   4.70785   4.77682
 Alpha virt. eigenvalues --    4.97844   4.99124   5.02825   5.10387
          Condensed to atoms (all electrons):
               1          2          3          4          5          6
     1  O    8.331271   0.323181  -0.096955  -0.090715   0.004313  -0.000015
     2  N    0.323181   5.695904   0.311528   0.253184  -0.046633   0.001182
     3  O   -0.096955   0.311528   8.372842  -0.098232   0.006977   0.000687
     4  C   -0.090715   0.253184  -0.098232   5.278266   0.546354  -0.047757
     5  C    0.004313  -0.046633   0.006977   0.546354   4.677354   0.307855
     6  N   -0.000015   0.001182   0.000687  -0.047757   0.307855   7.197986
     7  C    0.000004  -0.000103   0.000001   0.003855  -0.028649   0.191005
     8  H   -0.000000   0.000003  -0.000000  -0.000160   0.001942  -0.050827
     9  C   -0.000000  -0.000005   0.000000   0.000366   0.001792  -0.054453
    10  C   -0.000000   0.000000  -0.000000  -0.000014  -0.000065   0.003267
    11  C   -0.000000  -0.000000  -0.000000  -0.000016   0.000015  -0.000155
    12  C   -0.000000   0.000003  -0.000000  -0.000075  -0.000119   0.003629
    13  C   -0.000028  -0.000118  -0.000003  -0.011263   0.000358  -0.043359
    14  H   -0.000005  -0.000100   0.000001   0.003034   0.005112  -0.005601
    15  N    0.000124   0.002432  -0.000021  -0.060310  -0.003378   0.001546
    16  C    0.002473  -0.030711   0.002232   0.314750  -0.038849  -0.001839
    17  H    0.000114  -0.003299   0.012052  -0.027932   0.377605  -0.035284
    18  H    0.000000  -0.000038   0.000008   0.000797  -0.023633   0.327047
    19  H    0.000000   0.000001   0.000000  -0.000625   0.000550   0.000666
    20  H    0.000000  -0.000000   0.000000  -0.000019   0.000030  -0.002006
    21  H   -0.000000  -0.000000   0.000000   0.000000   0.000001  -0.000057
    22  H   -0.000000   0.000000  -0.000000  -0.000000  -0.000003  -0.000098
    23  H   -0.000000  -0.000000   0.000000   0.000024  -0.000000  -0.000024
    24  H   -0.000000   0.000000   0.000000   0.000000  -0.000000   0.000004
    25  H    0.000000  -0.000000   0.000000   0.000018  -0.000001  -0.000071
    26  H   -0.000000  -0.000000   0.000000   0.000007  -0.000001  -0.000068
    27  H    0.005153  -0.000466  -0.000028  -0.065226   0.002301   0.000070
               7          8          9         10         11         12
     1  O    0.000004  -0.000000  -0.000000  -0.000000  -0.000000  -0.000000
     2  N   -0.000103   0.000003  -0.000005   0.000000  -0.000000   0.000003
     3  O    0.000001  -0.000000   0.000000  -0.000000  -0.000000  -0.000000
     4  C    0.003855  -0.000160   0.000366  -0.000014  -0.000016  -0.000075
     5  C   -0.028649   0.001942   0.001792  -0.000065   0.000015  -0.000119
     6  N    0.191005  -0.050827  -0.054453   0.003267  -0.000155   0.003629
     7  C    5.004337   0.417927   0.339143  -0.049092  -0.007771  -0.063633
     8  H    0.417927   0.546219  -0.060442   0.001621  -0.000377  -0.002718
     9  C    0.339143  -0.060442   5.181944   0.317885  -0.053008  -0.006463
    10  C   -0.049092   0.001621   0.317885   5.126276   0.332670  -0.060044
    11  C   -0.007771  -0.000377  -0.053008   0.332670   5.123870   0.330741
    12  C   -0.063633  -0.002718  -0.006463  -0.060044   0.330741   5.135776
    13  C    0.334420  -0.041592  -0.048697  -0.002012  -0.047821   0.368358
    14  H   -0.040198  -0.000966   0.003883  -0.000396   0.003943  -0.040540
    15  N   -0.057264   0.004092  -0.012986   0.001417  -0.007641  -0.074012
    16  C   -0.002916   0.000070  -0.001132  -0.000015   0.000004   0.002532
    17  H    0.001470  -0.000012  -0.000064   0.000001   0.000000   0.000001
    18  H   -0.027974  -0.002515   0.000960  -0.000127   0.000012  -0.000134
    19  H   -0.034906   0.004103   0.385712  -0.032235  -0.002281   0.000642
    20  H   -0.041749  -0.001921   0.397330  -0.037312   0.004138  -0.000360
    21  H    0.004032  -0.000079  -0.035836   0.400321  -0.035757   0.004195
    22  H   -0.004172   0.003491  -0.045758   0.396057  -0.045617  -0.001212
    23  H    0.000418   0.000034  -0.002018  -0.040071   0.396713  -0.036621
    24  H   -0.000135  -0.000098   0.004399  -0.038436   0.400377  -0.037788
    25  H    0.004951  -0.000006  -0.000361   0.004088  -0.033900   0.395652
    26  H   -0.004442   0.001672   0.001022  -0.002386  -0.042364   0.394769
    27  H   -0.000415   0.000009  -0.000062   0.000006   0.000004  -0.000019
              13         14         15         16         17         18
     1  O   -0.000028  -0.000005   0.000124   0.002473   0.000114   0.000000
     2  N   -0.000118  -0.000100   0.002432  -0.030711  -0.003299  -0.000038
     3  O   -0.000003   0.000001  -0.000021   0.002232   0.012052   0.000008
     4  C   -0.011263   0.003034  -0.060310   0.314750  -0.027932   0.000797
     5  C    0.000358   0.005112  -0.003378  -0.038849   0.377605  -0.023633
     6  N   -0.043359  -0.005601   0.001546  -0.001839  -0.035284   0.327047
     7  C    0.334420  -0.040198  -0.057264  -0.002916   0.001470  -0.027974
     8  H   -0.041592  -0.000966   0.004092   0.000070  -0.000012  -0.002515
     9  C   -0.048697   0.003883  -0.012986  -0.001132  -0.000064   0.000960
    10  C   -0.002012  -0.000396   0.001417  -0.000015   0.000001  -0.000127
    11  C   -0.047821   0.003943  -0.007641   0.000004   0.000000   0.000012
    12  C    0.368358  -0.040540  -0.074012   0.002532   0.000001  -0.000134
    13  C    5.030853   0.401239   0.235624  -0.070406  -0.000043   0.003642
    14  H    0.401239   0.520566  -0.035969  -0.004411   0.000083   0.000010
    15  N    0.235624  -0.035969   6.934190   0.584134  -0.000066  -0.000131
    16  C   -0.070406  -0.004411   0.584134   4.707377   0.001683  -0.000222
    17  H   -0.000043   0.000083  -0.000066   0.001683   0.382246  -0.001818
    18  H    0.003642   0.000010  -0.000131  -0.000222  -0.001818   0.320403
    19  H   -0.006429   0.000064   0.007044   0.002683   0.000010  -0.000139
    20  H    0.003843  -0.000048   0.000077  -0.000029  -0.000001   0.003035
    21  H   -0.000365   0.000009  -0.000026   0.000002  -0.000000  -0.000000
    22  H    0.000315  -0.000045  -0.000000  -0.000001   0.000000   0.000002
    23  H   -0.005824   0.000007   0.006715   0.000059   0.000000   0.000000
    24  H    0.004128  -0.000057   0.000048   0.000005   0.000000  -0.000000
    25  H   -0.034445  -0.002645   0.000615  -0.000063  -0.000000   0.000002
    26  H   -0.044954  -0.000924   0.004200  -0.000061   0.000000  -0.000000
    27  H    0.005020  -0.000187  -0.040411   0.402087  -0.000055   0.000002
              19         20         21         22         23         24
     1  O    0.000000   0.000000  -0.000000  -0.000000  -0.000000  -0.000000
     2  N    0.000001  -0.000000  -0.000000   0.000000  -0.000000   0.000000
     3  O    0.000000   0.000000   0.000000  -0.000000   0.000000   0.000000
     4  C   -0.000625  -0.000019   0.000000  -0.000000   0.000024   0.000000
     5  C    0.000550   0.000030   0.000001  -0.000003  -0.000000  -0.000000
     6  N    0.000666  -0.002006  -0.000057  -0.000098  -0.000024   0.000004
     7  C   -0.034906  -0.041749   0.004032  -0.004172   0.000418  -0.000135
     8  H    0.004103  -0.001921  -0.000079   0.003491   0.000034  -0.000098
     9  C    0.385712   0.397330  -0.035836  -0.045758  -0.002018   0.004399
    10  C   -0.032235  -0.037312   0.400321   0.396057  -0.040071  -0.038436
    11  C   -0.002281   0.004138  -0.035757  -0.045617   0.396713   0.400377
    12  C    0.000642  -0.000360   0.004195  -0.001212  -0.036621  -0.037788
    13  C   -0.006429   0.003843  -0.000365   0.000315  -0.005824   0.004128
    14  H    0.000064  -0.000048   0.000009  -0.000045   0.000007  -0.000057
    15  N    0.007044   0.000077  -0.000026  -0.000000   0.006715   0.000048
    16  C    0.002683  -0.000029   0.000002  -0.000001   0.000059   0.000005
    17  H    0.000010  -0.000001  -0.000000   0.000000   0.000000   0.000000
    18  H   -0.000139   0.003035  -0.000000   0.000002   0.000000  -0.000000
    19  H    0.505078  -0.024076  -0.002582   0.003736   0.001632  -0.000068
    20  H   -0.024076   0.550114  -0.002592  -0.002975  -0.000049  -0.000090
    21  H   -0.002582  -0.002592   0.524716  -0.024587  -0.002806  -0.002044
    22  H    0.003736  -0.002975  -0.024587   0.568139   0.004056  -0.003594
    23  H    0.001632  -0.000049  -0.002806   0.004056   0.509022  -0.024897
    24  H   -0.000068  -0.000090  -0.002044  -0.003594  -0.024897   0.539866
    25  H   -0.000027   0.000011  -0.000085  -0.000082  -0.002103  -0.002363
    26  H    0.000023  -0.000035  -0.000075   0.002471   0.003821  -0.002777
    27  H    0.000075  -0.000000  -0.000000   0.000000  -0.000022  -0.000000
              25         26         27
     1  O    0.000000  -0.000000   0.005153
     2  N   -0.000000  -0.000000  -0.000466
     3  O    0.000000   0.000000  -0.000028
     4  C    0.000018   0.000007  -0.065226
     5  C   -0.000001  -0.000001   0.002301
     6  N   -0.000071  -0.000068   0.000070
     7  C    0.004951  -0.004442  -0.000415
     8  H   -0.000006   0.001672   0.000009
     9  C   -0.000361   0.001022  -0.000062
    10  C    0.004088  -0.002386   0.000006
    11  C   -0.033900  -0.042364   0.000004
    12  C    0.395652   0.394769  -0.000019
    13  C   -0.034445  -0.044954   0.005020
    14  H   -0.002645  -0.000924  -0.000187
    15  N    0.000615   0.004200  -0.040411
    16  C   -0.000063  -0.000061   0.402087
    17  H   -0.000000   0.000000  -0.000055
    18  H    0.000002  -0.000000   0.000002
    19  H   -0.000027   0.000023   0.000075
    20  H    0.000011  -0.000035  -0.000000
    21  H   -0.000085  -0.000075  -0.000000
    22  H   -0.000082   0.002471   0.000000
    23  H   -0.002103   0.003821  -0.000022
    24  H   -0.002363  -0.002777  -0.000000
    25  H    0.509213  -0.022970  -0.000009
    26  H   -0.022970   0.560517   0.000001
    27  H   -0.000009   0.000001   0.453298
 Mulliken charges:
               1
     1  O   -0.478915
     2  N    0.494054
     3  O   -0.511089
     4  C    0.001689
     5  C    0.208771
     6  N   -0.793328
     7  C    0.061856
     8  H    0.180528
     9  C   -0.313150
    10  C   -0.321402
    11  C   -0.315778
    12  C   -0.312561
    13  C   -0.030439
    14  H    0.194140
    15  N   -0.490044
    16  C    0.130564
    17  H    0.293310
    18  H    0.400808
    19  H    0.191349
    20  H    0.154684
    21  H    0.173613
    22  H    0.149877
    23  H    0.191935
    24  H    0.163521
    25  H    0.184582
    26  H    0.152553
    27  H    0.238874
 Sum of Mulliken charges =  -0.00000
 Mulliken charges with hydrogens summed into heavy atoms:
               1
     1  O   -0.478915
     2  N    0.494054
     3  O   -0.511089
     4  C    0.001689
     5  C    0.502081
     6  N   -0.392520
     7  C    0.242384
     9  C    0.032883
    10  C    0.002088
    11  C    0.039677
    12  C    0.024574
    13  C    0.163701
    15  N   -0.490044
    16  C    0.369438
 Electronic spatial extent (au):  <R**2>=           3061.9190
 Charge=             -0.0000 electrons
 Dipole moment (field-independent basis, Debye):
    X=              5.8357    Y=              4.7488    Z=              0.4354  Tot=              7.5363
 Quadrupole moment (field-independent basis, Debye-Ang):
   XX=           -106.8994   YY=            -80.1304   ZZ=            -81.7862
   XY=             -2.4637   XZ=              1.2338   YZ=              0.0861
 Traceless Quadrupole moment (field-independent basis, Debye-Ang):
   XX=            -17.2941   YY=              9.4749   ZZ=              7.8192
   XY=             -2.4637   XZ=              1.2338   YZ=              0.0861
 Octapole moment (field-independent basis, Debye-Ang**2):
  XXX=            104.7266  YYY=             37.9009  ZZZ=             -6.2827  XYY=             -1.5064
  XXY=             12.7428  XXZ=             -3.1186  XZZ=             -9.4425  YZZ=             -2.6929
  YYZ=             -0.2757  XYZ=             -2.4579
 Hexadecapole moment (field-independent basis, Debye-Ang**3):
 XXXX=          -3492.6454 YYYY=           -615.8372 ZZZZ=           -297.6313 XXXY=            -44.2751
 XXXZ=             48.3010 YYYX=            -24.2118 YYYZ=             11.1267 ZZZX=             33.6553
 ZZZY=             11.3555 XXYY=           -643.6587 XXZZ=           -530.8319 YYZZ=           -162.8473
 XXYZ=              5.1919 YYXZ=             14.9438 ZZXY=              2.3047
 N-N= 9.246619955503D+02 E-N=-3.395524977567D+03  KE= 6.591466392970D+02
 Calling FoFJK, ICntrl=  10002127 FMM=F ISym2X=0 I1Cent= 0 IOpClX= 0 NMat=1 NMatS=1 NMatT=0.
 -------------------------------------------------------------------
 Center     Atomic                   Forces (Hartrees/Bohr)
 Number     Number              X              Y              Z
 -------------------------------------------------------------------
      1        8           0.001902661   -0.028703467   -0.001353886
      2        7          -0.036336325    0.001251990   -0.007112518
      3        8          -0.011023731    0.021615855    0.007656273
      4        6           0.078634915    0.027344149    0.010232555
      5        6           0.005769288   -0.014547458   -0.006398031
      6        7           0.011809903   -0.014855451   -0.007294174
      7        6          -0.003272722    0.004397562    0.002851876
      8        1          -0.009850901   -0.001814526   -0.007756395
      9        6          -0.004161320    0.000240253   -0.002383277
     10        6           0.002898782   -0.000838304    0.001211894
     11        6          -0.001340497   -0.004678247   -0.002564401
     12        6           0.001037631   -0.008555096   -0.002526360
     13        6           0.009589221   -0.002976539    0.006712888
     14        1           0.001098362    0.004791713   -0.009550560
     15        7          -0.003476297    0.004816934   -0.002412567
     16        6          -0.017651966    0.003893891    0.005346846
     17        1           0.006249198   -0.006408032   -0.008703061
     18        1          -0.017598289   -0.000646768    0.008237520
     19        1           0.003043757    0.005962235    0.007794682
     20        1          -0.003263666   -0.007235864    0.002531634
     21        1          -0.004583582    0.002446518    0.009549597
     22        1          -0.003861424   -0.003978238   -0.007495071
     23        1           0.003949455    0.006153341    0.009330117
     24        1          -0.009366118    0.002681155   -0.002258422
     25        1          -0.000682578    0.010596850   -0.002383068
     26        1          -0.004725164   -0.004831730   -0.004411310
     27        1           0.005211406    0.003877272    0.003147216
 -------------------------------------------------------------------
 Cartesian Forces:  Max     0.078634915 RMS     0.012656584

 GradGradGradGradGradGradGradGradGradGradGradGradGradGradGradGradGradGrad
 Berny optimization.
 FormGI is forming the generalized inverse of G from B-inverse, IUseBI=4.
 Internal  Forces:  Max     0.045520765 RMS     0.007619900
 Search for a local minimum.
 Step number   1 out of a maximum of   20
 All quantities printed in internal units (Hartrees-Bohrs-Radians)
 Mixed Optimization -- RFO/linear search
 Second derivative matrix not updated -- first step.
 ITU=  0
     Eigenvalues ---    0.00769   0.01108   0.01181   0.01305   0.01524
     Eigenvalues ---    0.01597   0.01741   0.01894   0.01982   0.02005
     Eigenvalues ---    0.02018   0.02699   0.03665   0.04504   0.04692
     Eigenvalues ---    0.04839   0.05090   0.05137   0.05306   0.05912
     Eigenvalues ---    0.06263   0.07217   0.07702   0.07733   0.07885
     Eigenvalues ---    0.07990   0.08051   0.08073   0.10460   0.11741
     Eigenvalues ---    0.12268   0.13560   0.15312   0.15817   0.15992
     Eigenvalues ---    0.16001   0.20080   0.21833   0.22999   0.24998
     Eigenvalues ---    0.25000   0.25000   0.25400   0.26237   0.26649
     Eigenvalues ---    0.27973   0.28087   0.28500   0.31037   0.31442
     Eigenvalues ---    0.32043   0.32235   0.32290   0.32380   0.32390
     Eigenvalues ---    0.32409   0.32517   0.32526   0.32578   0.32706
     Eigenvalues ---    0.33357   0.33577   0.35487   0.42821   0.43897
     Eigenvalues ---    0.48820   0.66652   0.88910   0.897971000.00000
     Eigenvalues --- 1000.000001000.000001000.000001000.000001000.00000
     Eigenvalues --- 1000.000001000.000001000.000001000.000001000.00000
     Eigenvalues --- 1000.000001000.000001000.000001000.000001000.00000
     Eigenvalues --- 1000.000001000.000001000.000001000.000001000.00000
     Eigenvalues --- 1000.000001000.000001000.000001000.000001000.00000
     Eigenvalues --- 1000.000001000.000001000.000001000.000001000.00000
     Eigenvalues --- 1000.000001000.000001000.000001000.000001000.00000
     Eigenvalues --- 1000.000001000.000001000.000001000.000001000.00000
     Eigenvalues --- 1000.000001000.000001000.000001000.000001000.00000
     Eigenvalues --- 1000.000001000.000001000.000001000.000001000.00000
     Eigenvalues --- 1000.000001000.000001000.000001000.000001000.00000
     Eigenvalues --- 1000.000001000.000001000.000001000.000001000.00000
     Eigenvalues --- 1000.000001000.000001000.000001000.000001000.00000
     Eigenvalues --- 1000.000001000.000001000.000001000.000001000.00000
     Eigenvalues --- 1000.000001000.000001000.000001000.000001000.00000
     Eigenvalues --- 1000.000001000.000001000.000001000.000001000.00000
     Eigenvalues --- 1000.000001000.000001000.000001000.000001000.00000
     Eigenvalues --- 1000.000001000.000001000.000001000.000001000.00000
     Eigenvalues --- 1000.00000
 RFO step:  Lambda=-2.24174397D-02 EMin= 7.69455742D-03
 Linear search not attempted -- first point.
 Iteration  1 RMS(Cart)=  0.04766086 RMS(Int)=  0.00131282
 Iteration  2 RMS(Cart)=  0.00133801 RMS(Int)=  0.00032085
 Iteration  3 RMS(Cart)=  0.00000201 RMS(Int)=  0.00032084
 Iteration  4 RMS(Cart)=  0.00000000 RMS(Int)=  0.00032084
 Iteration  1 RMS(Cart)=  0.00002015 RMS(Int)=  0.00001332
 Iteration  2 RMS(Cart)=  0.00001156 RMS(Int)=  0.00001475
 Iteration  3 RMS(Cart)=  0.00000688 RMS(Int)=  0.00001666
 Iteration  4 RMS(Cart)=  0.00000429 RMS(Int)=  0.00001811
 Iteration  5 RMS(Cart)=  0.00000284 RMS(Int)=  0.00001913
 Iteration  6 RMS(Cart)=  0.00000204 RMS(Int)=  0.00001986
 Iteration  7 RMS(Cart)=  0.00000157 RMS(Int)=  0.00002039
 Iteration  8 RMS(Cart)=  0.00000127 RMS(Int)=  0.00002080
 Iteration  9 RMS(Cart)=  0.00000106 RMS(Int)=  0.00002112
 Iteration 10 RMS(Cart)=  0.00000090 RMS(Int)=  0.00002138
 Variable       Old X    -DE/DX   Delta X   Delta X   Delta X     New X
                                 (Linear)    (Quad)   (Total)
    R1        2.33027   0.02682   0.00000   0.02914   0.02914   2.35941
    R2        2.33439   0.02420   0.00000   0.02655   0.02655   2.36094
    R3        2.60642   0.04552   0.00000   0.00000   0.00000   2.60642
    R4        2.66276  -0.03631   0.00000  -0.08129  -0.08106   2.58170
    R5        2.83287  -0.02111   0.00000  -0.06246  -0.06224   2.77063
    R6        2.59241  -0.02695   0.00000  -0.05291  -0.05284   2.53957
    R7        2.08429  -0.01089   0.00000  -0.03058  -0.03058   2.05370
    R8        2.82255  -0.01871   0.00000  -0.05252  -0.05260   2.76995
    R9        1.93278  -0.00621   0.00000  -0.01346  -0.01346   1.91931
   R10        2.11878  -0.01182   0.00000  -0.03509  -0.03509   2.08369
   R11        2.92726  -0.01319   0.00000  -0.04539  -0.04542   2.88183
   R12        2.89983  -0.00562   0.00000  -0.01207  -0.01206   2.88778
   R13        2.91125  -0.00467   0.00000  -0.01443  -0.01446   2.89679
   R14        2.09908  -0.01006   0.00000  -0.02894  -0.02894   2.07014
   R15        2.09892  -0.00792   0.00000  -0.02278  -0.02278   2.07614
   R16        2.90430  -0.00179   0.00000  -0.00699  -0.00704   2.89727
   R17        2.10137  -0.01062   0.00000  -0.03066  -0.03066   2.07071
   R18        2.10317  -0.00902   0.00000  -0.02614  -0.02614   2.07703
   R19        2.91799  -0.00897   0.00000  -0.02828  -0.02825   2.88974
   R20        2.10416  -0.01171   0.00000  -0.03397  -0.03397   2.07019
   R21        2.10101  -0.00998   0.00000  -0.02880  -0.02880   2.07221
   R22        2.93542  -0.01055   0.00000  -0.03661  -0.03658   2.89884
   R23        2.10154  -0.01072   0.00000  -0.03096  -0.03096   2.07057
   R24        2.09799  -0.00785   0.00000  -0.02256  -0.02256   2.07543
   R25        2.10766  -0.00895   0.00000  -0.02611  -0.02611   2.08155
   R26        2.76494  -0.00494   0.00000  -0.01017  -0.01050   2.75445
   R27        2.44412  -0.00916   0.00000  -0.01238  -0.01244   2.43168
   R28        2.08051  -0.00675   0.00000  -0.01886  -0.01886   2.06165
    A1        2.12034   0.01269   0.00000   0.04819   0.04668   2.16701
    A2        2.07181  -0.01060   0.00000  -0.03730  -0.03881   2.03301
    A3        2.08868  -0.00164   0.00000  -0.00441  -0.00592   2.08276
    A4        2.05790  -0.00453   0.00000  -0.01490  -0.01511   2.04279
    A5        2.05225  -0.00505   0.00000  -0.01679  -0.01701   2.03524
    A6        2.17297   0.00956   0.00000   0.03154   0.03187   2.20484
    A7        2.21133   0.00545   0.00000   0.01658   0.01673   2.22806
    A8        2.06650  -0.00399   0.00000  -0.01491  -0.01514   2.05136
    A9        2.00466  -0.00142   0.00000  -0.00072  -0.00096   2.00370
   A10        2.25258  -0.00393   0.00000  -0.01253  -0.01271   2.23987
   A11        2.11976  -0.01350   0.00000  -0.07635  -0.07679   2.04297
   A12        1.87873   0.01773   0.00000   0.09708   0.09723   1.97595
   A13        1.83798  -0.00105   0.00000  -0.01835  -0.01814   1.81984
   A14        2.00813  -0.00160   0.00000  -0.01239  -0.01241   1.99572
   A15        1.96431   0.00069   0.00000   0.00205   0.00164   1.96595
   A16        1.85101   0.00255   0.00000   0.02479   0.02462   1.87562
   A17        1.84893   0.00058   0.00000   0.01457   0.01435   1.86328
   A18        1.93930  -0.00083   0.00000  -0.00701  -0.00667   1.93262
   A19        1.91023  -0.00019   0.00000  -0.00570  -0.00587   1.90436
   A20        1.92290  -0.00070   0.00000  -0.01266  -0.01262   1.91028
   A21        1.92274  -0.00147   0.00000  -0.00696  -0.00692   1.91582
   A22        1.91930  -0.00028   0.00000   0.00666   0.00663   1.92593
   A23        1.90421   0.00311   0.00000   0.02408   0.02409   1.92830
   A24        1.88425  -0.00044   0.00000  -0.00497  -0.00524   1.87902
   A25        1.94015  -0.00095   0.00000   0.00597   0.00586   1.94601
   A26        1.91904  -0.00080   0.00000  -0.00726  -0.00728   1.91176
   A27        1.90502   0.00043   0.00000  -0.00301  -0.00309   1.90193
   A28        1.91621   0.00092   0.00000   0.00744   0.00749   1.92370
   A29        1.89848   0.00166   0.00000   0.01119   0.01121   1.90970
   A30        1.88390  -0.00124   0.00000  -0.01482  -0.01491   1.86899
   A31        1.94479   0.00065   0.00000   0.00510   0.00520   1.94999
   A32        1.90216   0.00055   0.00000   0.00543   0.00540   1.90756
   A33        1.91777   0.00042   0.00000   0.00566   0.00562   1.92340
   A34        1.90598  -0.00097   0.00000  -0.01371  -0.01375   1.89223
   A35        1.91552  -0.00061   0.00000  -0.00009  -0.00017   1.91535
   A36        1.87624  -0.00007   0.00000  -0.00278  -0.00281   1.87343
   A37        1.94973  -0.00304   0.00000  -0.01735  -0.01737   1.93236
   A38        1.90576   0.00256   0.00000   0.01742   0.01729   1.92305
   A39        1.91013   0.00143   0.00000   0.01285   0.01281   1.92293
   A40        1.90580   0.00024   0.00000  -0.00269  -0.00255   1.90325
   A41        1.91058  -0.00021   0.00000  -0.00548  -0.00542   1.90516
   A42        1.88054  -0.00090   0.00000  -0.00430  -0.00448   1.87605
   A43        1.84744   0.00448   0.00000   0.02460   0.02462   1.87206
   A44        1.94217  -0.00401   0.00000  -0.03196  -0.03243   1.90975
   A45        1.97612  -0.00028   0.00000   0.00477   0.00495   1.98107
   A46        1.87968   0.00204   0.00000   0.03078   0.03112   1.91080
   A47        1.89271  -0.00278   0.00000  -0.02522  -0.02521   1.86750
   A48        1.92119   0.00083   0.00000  -0.00040  -0.00041   1.92079
   A49        2.07825  -0.00568   0.00000  -0.01121  -0.01171   2.06654
   A50        2.25884  -0.00407   0.00000  -0.01549  -0.01557   2.24327
   A51        1.97861   0.00445   0.00000   0.02123   0.02083   1.99944
   A52        2.04540  -0.00032   0.00000  -0.00466  -0.00506   2.04034
    D1       -3.00910   0.00204   0.00000  -0.01384  -0.01367  -3.02277
    D2        0.14414   0.00374   0.00000   0.00000  -0.00000   0.14414
    D3        0.20507  -0.00544   0.00000  -0.11558  -0.11548   0.08959
    D4       -2.92488  -0.00373   0.00000  -0.10175  -0.10181  -3.02669
    D5        3.06985   0.00022   0.00000  -0.00558  -0.00566   3.06419
    D6       -0.02941  -0.00105   0.00000  -0.03434  -0.03444  -0.06384
    D7       -0.08426  -0.00173   0.00000  -0.02084  -0.02124  -0.10550
    D8        3.09966  -0.00300   0.00000  -0.04960  -0.05001   3.04965
    D9       -2.59895  -0.00217   0.00000  -0.03490  -0.03523  -2.63418
   D10        0.51376   0.00045   0.00000   0.01248   0.01239   0.52615
   D11        0.55513  -0.00022   0.00000  -0.01969  -0.01973   0.53540
   D12       -2.61534   0.00239   0.00000   0.02768   0.02789  -2.58745
   D13       -0.22912   0.00040   0.00000   0.03590   0.03624  -0.19288
   D14        2.60808   0.00452   0.00000   0.08861   0.08730   2.69538
   D15        2.87143   0.00157   0.00000   0.06346   0.06403   2.93547
   D16       -0.57455   0.00568   0.00000   0.11617   0.11509  -0.45946
   D17       -2.40700  -0.00081   0.00000  -0.02955  -0.02906  -2.43606
   D18        1.84477  -0.00239   0.00000  -0.04125  -0.04081   1.80396
   D19       -0.40070  -0.00040   0.00000  -0.02193  -0.02182  -0.42252
   D20        1.00621  -0.00059   0.00000  -0.05467  -0.05536   0.95085
   D21       -1.02520  -0.00217   0.00000  -0.06637  -0.06711  -1.09231
   D22        3.01251  -0.00018   0.00000  -0.04705  -0.04811   2.96439
   D23        2.94624   0.00255   0.00000   0.02318   0.02308   2.96932
   D24       -1.22449   0.00164   0.00000   0.01977   0.01968  -1.20480
   D25        0.85254  -0.00025   0.00000   0.00139   0.00139   0.85392
   D26        0.92227   0.00304   0.00000   0.03622   0.03621   0.95848
   D27        3.03473   0.00213   0.00000   0.03281   0.03281   3.06754
   D28       -1.17144   0.00024   0.00000   0.01444   0.01452  -1.15692
   D29       -1.07910   0.00135   0.00000   0.00868   0.00864  -1.07045
   D30        1.03336   0.00044   0.00000   0.00526   0.00525   1.03861
   D31        3.11038  -0.00146   0.00000  -0.01311  -0.01305   3.09733
   D32       -2.90269  -0.00140   0.00000  -0.01233  -0.01215  -2.91484
   D33       -0.86546   0.00155   0.00000   0.02211   0.02188  -0.84358
   D34        1.30938  -0.00073   0.00000   0.00000  -0.00001   1.30937
   D35       -0.90303  -0.00197   0.00000  -0.02466  -0.02459  -0.92762
   D36        1.13420   0.00098   0.00000   0.00978   0.00944   1.14364
   D37       -2.97415  -0.00130   0.00000  -0.01233  -0.01244  -2.98659
   D38        1.09963   0.00095   0.00000   0.00924   0.00931   1.10894
   D39        3.13686   0.00390   0.00000   0.04368   0.04334  -3.10298
   D40       -0.97149   0.00162   0.00000   0.02157   0.02146  -0.95003
   D41        0.95665   0.00051   0.00000   0.00000   0.00001   0.95665
   D42        3.08227   0.00049   0.00000   0.00844   0.00840   3.09068
   D43       -1.13748  -0.00122   0.00000  -0.01566  -0.01562  -1.15311
   D44       -1.15799   0.00168   0.00000   0.01510   0.01517  -1.14282
   D45        0.96764   0.00166   0.00000   0.02354   0.02357   0.99121
   D46        3.03107  -0.00006   0.00000  -0.00056  -0.00046   3.03061
   D47        3.06168   0.00052   0.00000   0.00281   0.00276   3.06444
   D48       -1.09588   0.00050   0.00000   0.01125   0.01115  -1.08473
   D49        0.96755  -0.00122   0.00000  -0.01285  -0.01287   0.95468
   D50       -0.92192  -0.00102   0.00000   0.00000   0.00001  -0.92191
   D51        1.18259  -0.00145   0.00000  -0.01028  -0.01029   1.17230
   D52       -3.04890  -0.00097   0.00000  -0.00719  -0.00721  -3.05612
   D53       -3.04919   0.00000   0.00000   0.00013   0.00015  -3.04904
   D54       -0.94469  -0.00043   0.00000  -0.01015  -0.01015  -0.95484
   D55        1.10701   0.00005   0.00000  -0.00705  -0.00707   1.09994
   D56        1.17609  -0.00001   0.00000   0.00719   0.00722   1.18331
   D57       -3.00259  -0.00044   0.00000  -0.00310  -0.00308  -3.00567
   D58       -0.95090   0.00004   0.00000   0.00000  -0.00000  -0.95090
   D59        0.98572  -0.00085   0.00000  -0.01417  -0.01418   0.97154
   D60        3.09554  -0.00079   0.00000  -0.01701  -0.01713   3.07841
   D61       -1.13306   0.00043   0.00000  -0.00463  -0.00459  -1.13765
   D62       -1.11654  -0.00131   0.00000  -0.01513  -0.01511  -1.13165
   D63        0.99328  -0.00125   0.00000  -0.01797  -0.01806   0.97522
   D64        3.04786  -0.00002   0.00000  -0.00560  -0.00552   3.04235
   D65        3.11401  -0.00030   0.00000  -0.00367  -0.00366   3.11035
   D66       -1.05935  -0.00024   0.00000  -0.00651  -0.00661  -1.06596
   D67        0.99523   0.00099   0.00000   0.00587   0.00594   1.00116
   D68       -1.04807   0.00038   0.00000   0.00336   0.00345  -1.04462
   D69       -3.12704   0.00168   0.00000   0.01222   0.01184  -3.11520
   D70        1.07755   0.00109   0.00000   0.00936   0.00930   1.08685
   D71        3.12532  -0.00104   0.00000  -0.00550  -0.00534   3.11998
   D72        1.04635   0.00026   0.00000   0.00335   0.00305   1.04940
   D73       -1.03225  -0.00033   0.00000   0.00049   0.00051  -1.03174
   D74        1.07046   0.00004   0.00000   0.00443   0.00463   1.07508
   D75       -1.00852   0.00134   0.00000   0.01328   0.01302  -0.99550
   D76       -3.08711   0.00075   0.00000   0.01043   0.01048  -3.07664
   D77       -1.17217   0.00321   0.00000   0.00000  -0.00001  -1.17217
   D78        3.06626  -0.00037   0.00000  -0.01687  -0.01686   3.04940
   D79        1.01400  -0.00166   0.00000  -0.03898  -0.03928   0.97472
   D80        0.06554   0.00342   0.00000   0.03181   0.03160   0.09714
   D81       -3.04625   0.00066   0.00000  -0.01744  -0.01732  -3.06356
         Item               Value     Threshold  Converged?
 Maximum Force            0.035951     0.000450     NO 
 RMS     Force            0.006819     0.000300     NO 
 Maximum Displacement     0.197435     0.001800     NO 
 RMS     Displacement     0.047886     0.001200     NO 
 Predicted change in Energy=-1.283756D-02
 GradGradGradGradGradGradGradGradGradGradGradGradGradGradGradGradGradGrad

                          Input orientation:                          
 ---------------------------------------------------------------------
 Center     Atomic      Atomic             Coordinates (Angstroms)
 Number     Number       Type             X           Y           Z
 ---------------------------------------------------------------------
      1          8           0       -3.403362   -1.460218   -0.134462
      2          7           0       -3.069443   -0.267194    0.020644
      3          8           0       -3.871371    0.660204    0.260926
      4          6           0       -1.719612    0.007649   -0.048428
      5          6           0       -1.328096    1.279565    0.260412
      6          7           0       -0.073980    1.755399    0.342855
      7          6           0        1.185028    1.004768    0.343451
      8          1           0        1.805893    1.516013    1.097751
      9          6           0        1.943301    1.047884   -0.978967
     10          6           0        3.338130    0.444775   -0.777624
     11          6           0        3.259612   -0.967090   -0.185109
     12          6           0        2.411615   -1.000780    1.086967
     13          6           0        1.010321   -0.436596    0.820085
     14          1           0        0.426786   -0.445243    1.754289
     15          7           0        0.382955   -1.304043   -0.169115
     16          6           0       -0.847287   -1.089191   -0.479237
     17          1           0       -2.106493    2.005456    0.480084
     18          1           0        0.053545    2.750924    0.187207
     19          1           0        1.389228    0.481963   -1.735796
     20          1           0        2.020366    2.086275   -1.329429
     21          1           0        3.870321    0.424553   -1.735266
     22          1           0        3.913656    1.093110   -0.101981
     23          1           0        2.808760   -1.643362   -0.919620
     24          1           0        4.266582   -1.343649    0.030936
     25          1           0        2.319245   -2.029542    1.452583
     26          1           0        2.892805   -0.411050    1.878722
     27          1           0       -1.314495   -1.797591   -1.164890
 ---------------------------------------------------------------------
                    Distance matrix (angstroms):
                    1          2          3          4          5
     1  O    0.000000
     2  N    1.248546   0.000000
     3  O    2.207159   1.249357   0.000000
     4  C    2.235408   1.379257   2.269712   0.000000
     5  C    3.459634   2.341419   2.617606   1.366176   0.000000
     6  N    4.653258   3.628705   3.953017   2.432250   1.343883
     7  C    5.230477   4.452260   5.068798   3.095925   2.529466
     8  H    6.124756   5.301782   5.802070   4.002259   3.252527
     9  C    5.965783   5.277902   5.958023   3.919812   3.505962
    10  C    7.034940   6.496239   7.287105   5.128700   4.852634
    11  C    6.681389   6.370959   7.327888   5.075576   5.127670
    12  C    5.959608   5.631801   6.551116   4.401487   4.457420
    13  C    4.630287   4.160802   5.034535   2.899001   2.954087
    14  H    4.389487   3.906513   4.682553   2.839354   2.878583
    15  N    3.789695   3.609725   4.705581   2.481107   3.128453
    16  C    2.605773   2.421474   3.571177   1.466154   2.527699
    17  H    3.751058   2.510637   2.229917   2.102436   1.086773
    18  H    5.457783   4.346243   4.447641   3.274930   2.019700
    19  H    5.413433   4.850367   5.629615   3.568904   3.464803
    20  H    6.589566   5.767813   6.267014   4.466440   3.793490
    21  H    7.682538   7.191804   7.998381   5.853766   5.633587
    22  H    7.749793   7.115414   7.805495   5.737142   5.257571
    23  H    6.264222   6.109926   7.164095   4.898058   5.200918
    24  H    7.672613   7.414588   8.384188   6.137331   6.183392
    25  H    5.965825   5.847587   6.854087   4.766084   5.067007
    26  H    6.692936   6.246723   7.036969   5.016335   4.826294
    27  H    2.353502   2.612938   3.822476   2.160902   3.391247
                    6          7          8          9         10
     6  N    0.000000
     7  C    1.465793   0.000000
     8  H    2.039877   1.102639   0.000000
     9  C    2.513407   1.525000   2.133257   0.000000
    10  C    3.823049   2.491234   2.648081   1.532915   0.000000
    11  C    4.336304   2.910584   3.150370   2.534364   1.533167
    12  C    3.785288   2.465675   2.588680   2.946934   2.534711
    13  C    2.491646   1.528147   2.126668   2.512114   2.957733
    14  H    2.661905   2.160539   2.485861   3.464092   3.959626
    15  N    3.135457   2.497330   3.403295   2.936341   3.487364
    16  C    3.060316   3.031796   4.038978   3.550239   4.467639
    17  H    2.052429   3.442986   3.990968   4.409830   5.801851
    18  H    1.015656   2.086558   2.329124   2.798479   4.127677
    19  H    2.843134   2.153669   3.044973   1.095470   2.172026
    20  H    2.700425   2.160086   2.502479   1.098644   2.176123
    21  H    4.652660   3.445070   3.671394   2.161928   1.095771
    22  H    4.066663   2.766156   2.461883   2.157185   1.099118
    23  H    4.632021   3.353274   3.880359   2.827604   2.158868
    24  H    5.342460   3.886992   3.920556   3.483816   2.171233
    25  H    4.613546   3.423984   3.600056   3.940092   3.483418
    26  H    3.981734   2.697796   2.346245   3.346107   2.826115
    27  H    4.054123   4.046718   5.082946   4.329495   5.179295
                   11         12         13         14         15
    11  C    0.000000
    12  C    1.529187   0.000000
    13  C    2.520148   1.533999   0.000000
    14  H    3.472534   2.166445   1.101511   0.000000
    15  N    2.896368   2.405238   1.457590   2.106880   0.000000
    16  C    4.119228   3.616801   2.358988   2.650768   1.286792
    17  H    6.170380   5.460683   3.974134   3.747936   4.191849
    18  H    4.923526   4.521652   3.387659   3.579181   4.083899
    19  H    2.828908   3.348401   2.742234   3.737205   2.580095
    20  H    3.488299   3.939790   3.464891   4.296207   3.939758
    21  H    2.170857   3.482010   3.930775   4.979103   4.195544
    22  H    2.163124   2.837974   3.408747   4.239165   4.268102
    23  H    1.095499   2.144068   2.777992   3.776120   2.561821
    24  H    1.096569   2.161866   3.471129   4.303616   3.888978
    25  H    2.166825   1.095701   2.156575   2.486450   2.627827
    26  H    2.168669   1.098272   2.159887   2.469393   3.360122
    27  H    4.751016   4.426021   3.346222   3.658212   2.028915
                   16         17         18         19         20
    16  C    0.000000
    17  H    3.476023   0.000000
    18  H    4.000266   2.303749   0.000000
    19  H    3.008233   4.410354   3.260395   0.000000
    20  H    4.362320   4.506865   2.571056   1.771239   0.000000
    21  H    5.111247   6.567292   4.865766   2.481757   2.519594
    22  H    5.250841   6.116646   4.210989   3.068483   2.465269
    23  H    3.723939   6.279551   5.303397   2.682950   3.834019
    24  H    5.145550   7.213482   5.877043   3.838407   4.319776
    25  H    3.826632   6.067464   5.439433   4.163935   4.976833
    26  H    4.473046   5.726139   4.573915   4.015340   4.158126
    27  H    1.090978   4.218574   4.938490   3.582236   5.121795
                   21         22         23         24         25
    21  H    0.000000
    22  H    1.765352   0.000000
    23  H    2.463425   3.062288   0.000000
    24  H    2.530422   2.465769   1.765964   0.000000
    25  H    4.311705   3.835332   2.452776   2.506721   0.000000
    26  H    3.835971   2.688460   3.058819   2.484213   1.769204
    27  H    5.669706   6.067906   4.133422   5.725774   4.484310
                   26         27
    26  H    0.000000
    27  H    5.374704   0.000000
 Symmetry turned off by external request.
 Stoichiometry    C9H13N3O2
 Framework group  C1[X(C9H13N3O2)]
 Deg. of freedom    75
 Full point group                 C1      NOp   1
 Rotational constants (GHZ):           1.6980048           0.4268361           0.3763477
 Standard basis: 6-31G(d) (6D, 7F)
   236 basis functions,   444 primitive gaussians,   236 cartesian basis functions
    52 alpha electrons       52 beta electrons
       nuclear repulsion energy       935.5748366875 Hartrees.
 NAtoms=   27 NActive=   27 NUniq=   27 SFac= 1.00D+00 NAtFMM=   60 NAOKFM=F Big=F
 Integral buffers will be    131072 words long.
 Raffenetti 1 integral format.
 Two-electron integral symmetry is turned off.
 One-electron integrals computed using PRISM.
 NBasis=   236 RedAO= T EigKep=  9.75D-04  NBF=   236
 NBsUse=   236 1.00D-06 EigRej= -1.00D+00 NBFU=   236
 Initial guess from the checkpoint file:  "/home/alexey/tmp/Gau-1286157.chk"
 B after Tr=     0.043463    0.002165    0.002521
         Rot=    0.999999   -0.001429   -0.000310    0.000530 Ang=  -0.18 deg.
 ExpMin= 1.61D-01 ExpMax= 5.48D+03 ExpMxC= 8.25D+02 IAcc=3 IRadAn=         5 AccDes= 0.00D+00
 Harris functional with IExCor=  205 and IRadAn=       5 diagonalized for initial guess.
 HarFok:  IExCor=  205 AccDes= 0.00D+00 IRadAn=         5 IDoV= 1 UseB2=F ITyADJ=14
 ICtDFT=  3500011 ScaDFX=  1.000000  1.000000  1.000000  1.000000
 FoFCou: FMM=F IPFlag=           0 FMFlag=      100000 FMFlg1=           0
         NFxFlg=           0 DoJE=T BraDBF=F KetDBF=T FulRan=T
         wScrn=  0.000000 ICntrl=       500 IOpCl=  0 I1Cent=   200000004 NGrid=           0
         NMat0=    1 NMatS0=      1 NMatT0=    0 NMatD0=    1 NMtDS0=    0 NMtDT0=    0
 Symmetry not used in FoFCou.
 Keep R1 ints in memory in canonical form, NReq=397720213.
 Requested convergence on RMS density matrix=1.00D-08 within 128 cycles.
 Requested convergence on MAX density matrix=1.00D-06.
 Requested convergence on             energy=1.00D-06.
 No special actions if energy rises.
 SCF Done:  E(RHF) =  -661.295396682     A.U. after   15 cycles
            NFock= 15  Conv=0.57D-08     -V/T= 2.0022
 ExpMin= 1.61D-01 ExpMax= 5.48D+03 ExpMxC= 8.25D+02 IAcc=3 IRadAn=         5 AccDes= 0.00D+00
 HarFok:  IExCor=  205 AccDes= 0.00D+00 IRadAn=         5 IDoV=-2 UseB2=F ITyADJ=14
 ICtDFT= 12500011 ScaDFX=  1.000000  1.000000  1.000000  1.000000
 Range of M.O.s used for correlation:    15   236
 NBasis=   236 NAE=    52 NBE=    52 NFC=    14 NFV=     0
 NROrb=    222 NOA=    38 NOB=    38 NVA=   184 NVB=   184
 Fully direct method using O(ONN) memory.
 JobTyp=1 Pass  1:  I=  15 to  52 NPSUse=  4 ParTrn=T ParDer=T DoDerP=T.
 Spin components of T(2) and E(2):
     alpha-alpha T2 =       0.9111001247D-01 E2=     -0.2724117620D+00
     alpha-beta  T2 =       0.4899944341D+00 E2=     -0.1486797002D+01
     beta-beta   T2 =       0.9111001247D-01 E2=     -0.2724117620D+00
 ANorm=    0.1293141314D+01
 E2 =    -0.2031620526D+01 EUMP2 =    -0.66332701720844D+03
          IDoAtm=111111111111111111111111111
          Differentiating once with respect to electric field.
                with respect to dipole field.
          Differentiating once with respect to nuclear coordinates.
 Keep R1 ints in memory in canonical form, NReq=397723379.
          There are     1 degrees of freedom in the 1st order CPHF.  IDoFFX=0 NUNeed=     1.
 LinEq1:  Iter=  0 NonCon=     1 RMS=4.60D-03 Max=1.27D-01 NDo=     1
 AX will form     1 AO Fock derivatives at one time.
 LinEq1:  Iter=  1 NonCon=     1 RMS=1.53D-03 Max=2.69D-02 NDo=     1
 LinEq1:  Iter=  2 NonCon=     1 RMS=6.58D-04 Max=2.13D-02 NDo=     1
 LinEq1:  Iter=  3 NonCon=     1 RMS=2.93D-04 Max=1.05D-02 NDo=     1
 LinEq1:  Iter=  4 NonCon=     1 RMS=9.20D-05 Max=2.26D-03 NDo=     1
 LinEq1:  Iter=  5 NonCon=     1 RMS=4.05D-05 Max=2.15D-03 NDo=     1
 LinEq1:  Iter=  6 NonCon=     1 RMS=1.47D-05 Max=4.60D-04 NDo=     1
 LinEq1:  Iter=  7 NonCon=     1 RMS=5.53D-06 Max=8.60D-05 NDo=     1
 LinEq1:  Iter=  8 NonCon=     1 RMS=2.11D-06 Max=4.48D-05 NDo=     1
[...]
    27  H    4.716328   4.416806   3.355705   3.664140   2.026104
                   16         17         18         19         20
    16  C    0.000000
    17  H    3.462482   0.000000
    18  H    4.073474   2.227743   0.000000
    19  H    2.982991   4.314784   3.503173   0.000000
    20  H    4.364826   4.455007   2.871905   1.768559   0.000000
    21  H    5.091451   6.516855   5.078958   2.498794   2.520880
    22  H    5.242869   6.099037   4.308979   3.070241   2.460848
    23  H    3.697121   6.240990   5.417177   2.705061   3.843140
    24  H    5.134507   7.201057   5.933808   3.850257   4.316971
    25  H    3.823459   6.083715   5.371052   4.171450   4.985041
    26  H    4.495187   5.776056   4.491133   4.039219   4.185451
    27  H    1.089385   4.215214   5.058595   3.560105   5.124668
                   21         22         23         24         25
    21  H    0.000000
    22  H    1.758828   0.000000
    23  H    2.468960   3.062206   0.000000
    24  H    2.517490   2.459877   1.764544   0.000000
    25  H    4.312101   3.840939   2.443344   2.520498   0.000000
    26  H    3.848429   2.707121   3.060487   2.490435   1.767870
    27  H    5.634683   6.045599   4.083740   5.689381   4.457310
                   26         27
    26  H    0.000000
    27  H    5.377226   0.000000
 Symmetry turned off by external request.
 Stoichiometry    C9H13N3O2
 Framework group  C1[X(C9H13N3O2)]
 Deg. of freedom    75
 Full point group                 C1      NOp   1
 Rotational constants (GHZ):           1.6875506           0.4242488           0.3761160

 **********************************************************************

            Population analysis using the SCF Density.

 **********************************************************************

 Alpha  occ. eigenvalues --  -20.58329 -20.57929 -15.84005 -15.64693 -15.56226
 Alpha  occ. eigenvalues --  -11.35432 -11.29868 -11.29554 -11.28160 -11.27290
 Alpha  occ. eigenvalues --  -11.23935 -11.23360 -11.22830 -11.22219  -1.56796
 Alpha  occ. eigenvalues --   -1.35775  -1.31423  -1.23253  -1.15686  -1.10793
 Alpha  occ. eigenvalues --   -1.03094  -1.01760  -0.94959  -0.89865  -0.85785
 Alpha  occ. eigenvalues --   -0.82582  -0.78717  -0.77375  -0.75423  -0.72161
 Alpha  occ. eigenvalues --   -0.69879  -0.69174  -0.67779  -0.64964  -0.63860
 Alpha  occ. eigenvalues --   -0.62529  -0.60236  -0.57909  -0.57160  -0.55173
 Alpha  occ. eigenvalues --   -0.54726  -0.50914  -0.50136  -0.48659  -0.48179
 Alpha  occ. eigenvalues --   -0.46968  -0.46273  -0.45751  -0.43213  -0.41787
 Alpha  occ. eigenvalues --   -0.39961  -0.34039
 Alpha virt. eigenvalues --    0.06918   0.12007   0.17150   0.21766   0.24073
 Alpha virt. eigenvalues --    0.25767   0.27118   0.28710   0.28924   0.29646
 Alpha virt. eigenvalues --    0.30739   0.31701   0.31909   0.32654   0.33848
 Alpha virt. eigenvalues --    0.34265   0.35929   0.37546   0.38495   0.40493
 Alpha virt. eigenvalues --    0.42223   0.43371   0.44719   0.45953   0.46521
 Alpha virt. eigenvalues --    0.46950   0.48792   0.53864   0.56816   0.59322
 Alpha virt. eigenvalues --    0.64116   0.69361   0.69846   0.72753   0.74108
 Alpha virt. eigenvalues --    0.74874   0.75609   0.77779   0.79037   0.79450
 Alpha virt. eigenvalues --    0.81929   0.84894   0.85887   0.86049   0.88493
 Alpha virt. eigenvalues --    0.89328   0.90865   0.91956   0.92859   0.94788
 Alpha virt. eigenvalues --    0.95956   0.97900   0.99484   1.01602   1.02597
 Alpha virt. eigenvalues --    1.03353   1.05859   1.06673   1.08047   1.08687
 Alpha virt. eigenvalues --    1.10487   1.11206   1.11739   1.12449   1.13783
 Alpha virt. eigenvalues --    1.14702   1.14818   1.15748   1.16830   1.18596
 Alpha virt. eigenvalues --    1.19122   1.21280   1.22411   1.23948   1.24475
 Alpha virt. eigenvalues --    1.24933   1.26320   1.27561   1.27761   1.29754
 Alpha virt. eigenvalues --    1.30377   1.33000   1.36177   1.36678   1.41139
 Alpha virt. eigenvalues --    1.42569   1.46794   1.48862   1.51973   1.54615
 Alpha virt. eigenvalues --    1.55638   1.59135   1.59625   1.63650   1.65564
 Alpha virt. eigenvalues --    1.68329   1.68841   1.73564   1.75546   1.77653
 Alpha virt. eigenvalues --    1.82390   1.84851   1.88276   1.90656   1.93660
 Alpha virt. eigenvalues --    1.96091   1.96995   1.99824   2.02335   2.03639
 Alpha virt. eigenvalues --    2.05587   2.07646   2.09399   2.10623   2.13343
 Alpha virt. eigenvalues --    2.13735   2.15323   2.18575   2.20088   2.22846
 Alpha virt. eigenvalues --    2.23085   2.24746   2.26839   2.28579   2.29532
 Alpha virt. eigenvalues --    2.31817   2.34112   2.34514   2.36541   2.38100
 Alpha virt. eigenvalues --    2.40158   2.41997   2.43836   2.45802   2.47744
 Alpha virt. eigenvalues --    2.50920   2.52339   2.53160   2.55425   2.61888
 Alpha virt. eigenvalues --    2.62532   2.65149   2.67556   2.70302   2.70548
 Alpha virt. eigenvalues --    2.72202   2.72718   2.76606   2.78324   2.86910
 Alpha virt. eigenvalues --    2.88093   2.88497   2.93042   2.93937   2.95895
 Alpha virt. eigenvalues --    2.99309   3.01460   3.04171   3.06353   3.07584
 Alpha virt. eigenvalues --    3.09306   3.15029   3.21844   3.26822   3.27727
 Alpha virt. eigenvalues --    3.33758   3.38073   3.39232   3.58920   3.66071
 Alpha virt. eigenvalues --    4.15251   4.33481   4.34659   4.39668   4.46712
 Alpha virt. eigenvalues --    4.57378   4.61940   4.62258   4.73379   4.79947
 Alpha virt. eigenvalues --    4.99782   5.00876   5.05289   5.11319
          Condensed to atoms (all electrons):
               1          2          3          4          5          6
     1  O    8.336232   0.309081  -0.084315  -0.091686   0.005084  -0.000015
     2  N    0.309081   5.738678   0.301326   0.257428  -0.053480   0.001063
     3  O   -0.084315   0.301326   8.377404  -0.099213   0.003188   0.000955
     4  C   -0.091686   0.257428  -0.099213   5.246418   0.547504  -0.046635
     5  C    0.005084  -0.053480   0.003188   0.547504   4.715970   0.317874
     6  N   -0.000015   0.001063   0.000955  -0.046635   0.317874   7.195646
     7  C    0.000004  -0.000147   0.000003   0.004667  -0.029474   0.164436
     8  H   -0.000000   0.000003  -0.000000  -0.000275   0.003031  -0.050835
     9  C   -0.000000  -0.000006  -0.000000   0.000803   0.000568  -0.060711
    10  C    0.000000   0.000000   0.000000  -0.000036  -0.000049   0.003722
    11  C   -0.000000  -0.000000  -0.000000  -0.000028   0.000026  -0.000190
    12  C   -0.000000   0.000003  -0.000000  -0.000135  -0.000175   0.003893
    13  C   -0.000030  -0.000082  -0.000005  -0.011454  -0.000623  -0.047452
    14  H   -0.000005  -0.000139   0.000001   0.002592   0.005967  -0.006930
    15  N    0.000426   0.002880  -0.000018  -0.063582  -0.005999   0.001304
    16  C   -0.000263  -0.028408   0.002760   0.324593  -0.049424  -0.002199
    17  H    0.000217  -0.007111   0.018105  -0.022585   0.373301  -0.034583
    18  H    0.000001  -0.000051   0.000010   0.001446  -0.031755   0.338394
    19  H    0.000001  -0.000004   0.000000  -0.001169   0.001240  -0.000416
    20  H    0.000000  -0.000000   0.000000  -0.000070   0.000145  -0.000557
    21  H   -0.000000  -0.000000   0.000000   0.000001   0.000001  -0.000076
    22  H   -0.000000   0.000000  -0.000000  -0.000000  -0.000003  -0.000117
    23  H    0.000000  -0.000000   0.000000   0.000040  -0.000000  -0.000030
    24  H    0.000000   0.000000   0.000000   0.000000  -0.000000   0.000006
    25  H    0.000000  -0.000000   0.000000   0.000024  -0.000000  -0.000091
    26  H    0.000000  -0.000000   0.000000   0.000007  -0.000002  -0.000062
    27  H    0.006129  -0.000914   0.000009  -0.063631   0.002311   0.000025
               7          8          9         10         11         12
     1  O    0.000004  -0.000000  -0.000000   0.000000  -0.000000  -0.000000
     2  N   -0.000147   0.000003  -0.000006   0.000000  -0.000000   0.000003
     3  O    0.000003  -0.000000  -0.000000   0.000000  -0.000000  -0.000000
     4  C    0.004667  -0.000275   0.000803  -0.000036  -0.000028  -0.000135
     5  C   -0.029474   0.003031   0.000568  -0.000049   0.000026  -0.000175
     6  N    0.164436  -0.050835  -0.060711   0.003722  -0.000190   0.003893
     7  C    5.022136   0.418708   0.349563  -0.054705  -0.009093  -0.061071
     8  H    0.418708   0.536590  -0.054830   0.000843  -0.000345  -0.002111
     9  C    0.349563  -0.054830   5.158684   0.324685  -0.050374  -0.005475
    10  C   -0.054705   0.000843   0.324685   5.119360   0.336951  -0.060892
    11  C   -0.009093  -0.000345  -0.050374   0.336951   5.119859   0.335836
    12  C   -0.061071  -0.002111  -0.005475  -0.060892   0.335836   5.118255
    13  C    0.339289  -0.038360  -0.059244  -0.000415  -0.050560   0.372283
    14  H   -0.046382  -0.000784   0.004412  -0.000408   0.004191  -0.036347
    15  N   -0.057856   0.003968  -0.015020   0.001516  -0.012872  -0.081795
    16  C   -0.001698   0.000030  -0.001455  -0.000024   0.000026   0.002509
    17  H    0.001586  -0.000040  -0.000071   0.000001   0.000000   0.000000
    18  H   -0.021081  -0.004427   0.001271  -0.000083   0.000004  -0.000114
    19  H   -0.036733   0.004343   0.390165  -0.031810  -0.002196   0.000695
    20  H   -0.042568  -0.002146   0.399686  -0.035270   0.003926  -0.000415
    21  H    0.004606  -0.000075  -0.036378   0.402535  -0.034802   0.004332
    22  H   -0.004837   0.003543  -0.046993   0.397824  -0.045402  -0.000973
    23  H    0.000575   0.000034  -0.001954  -0.039009   0.399137  -0.037763
    24  H   -0.000126  -0.000102   0.004390  -0.038413   0.402423  -0.038670
    25  H    0.005155  -0.000029  -0.000416   0.004174  -0.033338   0.398317
    26  H   -0.003883   0.001707   0.000958  -0.002195  -0.041499   0.396824
    27  H   -0.000421   0.000009  -0.000060   0.000007   0.000012  -0.000034
              13         14         15         16         17         18
     1  O   -0.000030  -0.000005   0.000426  -0.000263   0.000217   0.000001
     2  N   -0.000082  -0.000139   0.002880  -0.028408  -0.007111  -0.000051
     3  O   -0.000005   0.000001  -0.000018   0.002760   0.018105   0.000010
     4  C   -0.011454   0.002592  -0.063582   0.324593  -0.022585   0.001446
     5  C   -0.000623   0.005967  -0.005999  -0.049424   0.373301  -0.031755
     6  N   -0.047452  -0.006930   0.001304  -0.002199  -0.034583   0.338394
     7  C    0.339289  -0.046382  -0.057856  -0.001698   0.001586  -0.021081
     8  H   -0.038360  -0.000784   0.003968   0.000030  -0.000040  -0.004427
     9  C   -0.059244   0.004412  -0.015020  -0.001455  -0.000071   0.001271
    10  C   -0.000415  -0.000408   0.001516  -0.000024   0.000001  -0.000083
    11  C   -0.050560   0.004191  -0.012872   0.000026   0.000000   0.000004
    12  C    0.372283  -0.036347  -0.081795   0.002509   0.000000  -0.000114
    13  C    5.041292   0.402826   0.241963  -0.071362  -0.000007   0.003023
    14  H    0.402826   0.525932  -0.037059  -0.004104   0.000101  -0.000102
    15  N    0.241963  -0.037059   6.965505   0.584863  -0.000083  -0.000135
    16  C   -0.071362  -0.004104   0.584863   4.711392   0.002087  -0.000202
    17  H   -0.000007   0.000101  -0.000083   0.002087   0.373119  -0.002877
    18  H    0.003023  -0.000102  -0.000135  -0.000202  -0.002877   0.309099
    19  H   -0.007577   0.000101   0.007762   0.003107   0.000017  -0.000148
    20  H    0.004312  -0.000065   0.000127  -0.000036   0.000002   0.000851
    21  H   -0.000426   0.000010  -0.000039   0.000004  -0.000000   0.000001
    22  H    0.000031  -0.000056   0.000018  -0.000002   0.000000   0.000001
    23  H   -0.007489   0.000001   0.008537   0.000110   0.000000   0.000000
    24  H    0.004691  -0.000056   0.000138   0.000007   0.000000  -0.000000
    25  H   -0.035517  -0.002800   0.000351  -0.000025  -0.000000   0.000002
    26  H   -0.047534  -0.001058   0.004905  -0.000059   0.000000  -0.000000
    27  H    0.005124  -0.000179  -0.040797   0.403894  -0.000077   0.000001
              19         20         21         22         23         24
     1  O    0.000001   0.000000  -0.000000  -0.000000   0.000000   0.000000
     2  N   -0.000004  -0.000000  -0.000000   0.000000  -0.000000   0.000000
     3  O    0.000000   0.000000   0.000000  -0.000000   0.000000   0.000000
     4  C   -0.001169  -0.000070   0.000001  -0.000000   0.000040   0.000000
     5  C    0.001240   0.000145   0.000001  -0.000003  -0.000000  -0.000000
     6  N   -0.000416  -0.000557  -0.000076  -0.000117  -0.000030   0.000006
     7  C   -0.036733  -0.042568   0.004606  -0.004837   0.000575  -0.000126
     8  H    0.004343  -0.002146  -0.000075   0.003543   0.000034  -0.000102
     9  C    0.390165   0.399686  -0.036378  -0.046993  -0.001954   0.004390
    10  C   -0.031810  -0.035270   0.402535   0.397824  -0.039009  -0.038413
    11  C   -0.002196   0.003926  -0.034802  -0.045402   0.399137   0.402423
    12  C    0.000695  -0.000415   0.004332  -0.000973  -0.037763  -0.038670
    13  C   -0.007577   0.004312  -0.000426   0.000031  -0.007489   0.004691
    14  H    0.000101  -0.000065   0.000010  -0.000056   0.000001  -0.000056
    15  N    0.007762   0.000127  -0.000039   0.000018   0.008537   0.000138
    16  C    0.003107  -0.000036   0.000004  -0.000002   0.000110   0.000007
    17  H    0.000017   0.000002  -0.000000   0.000000   0.000000   0.000000
    18  H   -0.000148   0.000851   0.000001   0.000001   0.000000  -0.000000
    19  H    0.503231  -0.024724  -0.002785   0.003940   0.001502  -0.000066
    20  H   -0.024724   0.540885  -0.002675  -0.002997  -0.000045  -0.000083
    21  H   -0.002785  -0.002675   0.522872  -0.027297  -0.002897  -0.002231
    22  H    0.003940  -0.002997  -0.027297   0.570755   0.004133  -0.003659
    23  H    0.001502  -0.000045  -0.002897   0.004133   0.498467  -0.025376
    24  H   -0.000066  -0.000083  -0.002231  -0.003659  -0.025376   0.537212
    25  H   -0.000029   0.000012  -0.000086  -0.000080  -0.002329  -0.002272
    26  H    0.000019  -0.000030  -0.000082   0.002373   0.004060  -0.003050
    27  H    0.000083   0.000000  -0.000000   0.000000  -0.000036  -0.000000
              25         26         27
     1  O    0.000000   0.000000   0.006129
     2  N   -0.000000  -0.000000  -0.000914
     3  O    0.000000   0.000000   0.000009
     4  C    0.000024   0.000007  -0.063631
     5  C   -0.000000  -0.000002   0.002311
     6  N   -0.000091  -0.000062   0.000025
     7  C    0.005155  -0.003883  -0.000421
     8  H   -0.000029   0.001707   0.000009
     9  C   -0.000416   0.000958  -0.000060
    10  C    0.004174  -0.002195   0.000007
    11  C   -0.033338  -0.041499   0.000012
    12  C    0.398317   0.396824  -0.000034
    13  C   -0.035517  -0.047534   0.005124
    14  H   -0.002800  -0.001058  -0.000179
    15  N    0.000351   0.004905  -0.040797
    16  C   -0.000025  -0.000059   0.403894
    17  H   -0.000000   0.000000  -0.000077
    18  H    0.000002  -0.000000   0.000001
    19  H   -0.000029   0.000019   0.000083
    20  H    0.000012  -0.000030   0.000000
    21  H   -0.000086  -0.000082  -0.000000
    22  H   -0.000080   0.002373   0.000000
    23  H   -0.002329   0.004060  -0.000036
    24  H   -0.002272  -0.003050  -0.000000
    25  H    0.505091  -0.023982  -0.000013
    26  H   -0.023982   0.561844   0.000001
    27  H   -0.000013   0.000001   0.439376
 Mulliken charges:
               1
     1  O   -0.480860
     2  N    0.479880
     3  O   -0.520211
     4  C    0.014979
     5  C    0.194777
     6  N   -0.776416
     7  C    0.059346
     8  H    0.181548
     9  C   -0.302193
    10  C   -0.328308
    11  C   -0.321691
    12  C   -0.306976
    13  C   -0.036699
    14  H    0.190339
    15  N   -0.509007
    16  C    0.123880
    17  H    0.298898
    18  H    0.406871
    19  H    0.191451
    20  H    0.161735
    21  H    0.175488
    22  H    0.149799
    23  H    0.200333
    24  H    0.165237
    25  H    0.187879
    26  H    0.150740
    27  H    0.249183
 Sum of Mulliken charges =  -0.00000
 Mulliken charges with hydrogens summed into heavy atoms:
               1
     1  O   -0.480860
     2  N    0.479880
     3  O   -0.520211
     4  C    0.014979
     5  C    0.493675
     6  N   -0.369545
     7  C    0.240893
     9  C    0.050993
    10  C   -0.003021
    11  C    0.043878
    12  C    0.031643
    13  C    0.153641
    15  N   -0.509007
    16  C    0.373063
 Electronic spatial extent (au):  <R**2>=           2978.6631
 Charge=             -0.0000 electrons
 Dipole moment (field-independent basis, Debye):
    X=              5.8249    Y=              4.9844    Z=              1.2268  Tot=              7.7640
 Quadrupole moment (field-independent basis, Debye-Ang):
   XX=           -107.3227   YY=            -79.0116   ZZ=            -81.3034
   XY=             -2.1449   XZ=              0.1087   YZ=              1.7690
 Traceless Quadrupole moment (field-independent basis, Debye-Ang):
   XX=            -18.1102   YY=             10.2010   ZZ=              7.9092
   XY=             -2.1449   XZ=              0.1087   YZ=              1.7690
 Octapole moment (field-independent basis, Debye-Ang**2):
  XXX=             96.9310  YYY=             37.3264  ZZZ=             -2.0739  XYY=             -4.3329
  XXY=             10.2982  XXZ=              3.4626  XZZ=            -10.0335  YZZ=             -0.4996
  YYZ=              7.5554  XYZ=              0.1293
 Hexadecapole moment (field-independent basis, Debye-Ang**3):
 XXXX=          -3364.5612 YYYY=           -597.3942 ZZZZ=           -302.2927 XXXY=            -23.0109
 XXXZ=             -3.6629 YYYX=            -10.6425 YYYZ=             24.8685 ZZZX=              6.6053
 ZZZY=              7.8067 XXYY=           -622.7065 XXZZ=           -518.4783 YYZZ=           -156.7461
 XXYZ=             -3.8609 YYXZ=              3.7105 ZZXY=              4.9453
 N-N= 9.345796314180D+02 E-N=-3.415972040669D+03  KE= 6.597856049152D+02
 Unable to Open any file for archive entry.
 1\1\GINC-LOTUS\FOpt\RMP2-FC\6-31G(d)\C9H13N3O2\ALEXEY\01-Jul-2023\0\\#
 MP2/6-31G* SCF=Tight Opt=(ModRedun, MaxCycle=20 ) NoSymm\\MolName:\\0,
 1\O,-3.4588082882,-1.39910366,-0.3357707227\N,-3.0706014631,-0.2345238
 753,-0.0932872725\O,-3.8668321692,0.7133127044,0.0890103173\C,-1.71014
 04691,-0.0209548653,-0.0165721951\C,-1.3088788063,1.263053842,0.268663
 2097\N,-0.0639245029,1.7465190316,0.3744206548\C,1.2005323377,1.022124
 4148,0.3528610501\H,1.843771966,1.5541964539,1.0701296296\C,1.91030203
 59,1.0326603389,-0.9993863184\C,3.3074250951,0.4253946062,-0.826583722
 3\C,3.2552303064,-0.970314244,-0.19919035\C,2.4526300289,-0.9803602091
 ,1.1038139922\C,1.0457868924,-0.4226351628,0.8618984752\H,0.46591183,-
 0.3996898696,1.7982437246\N,0.4008892339,-1.3085321931,-0.101637213\C,
 -0.8422306253,-1.1248348808,-0.405586431\H,-2.0973662115,1.9951617986,
 0.4184486599\H,-0.0030657464,2.7352977447,0.588581227\H,1.3200493877,0
 .4556273686,-1.7189472478\H,1.9794309818,2.0605818416,-1.3766936253\H,
 3.8166845073,0.3862729713,-1.7962464863\H,3.9039063301,1.0919933285,-0
 .1875745675\H,2.7816311743,-1.6672470544,-0.897644695\H,4.2731815506,-
 1.3339285054,-0.0157202505\H,2.362507011,-2.002514253,1.4860205819\H,2
 .9598508851,-0.3848424577,1.8754865205\H,-1.2938632724,-1.8697252148,-
 1.0597469453\\Version=ES64L-G16RevC.02\HF=-661.299081\MP2=-663.3313594
 \RMSD=6.587e-09\RMSF=7.953e-03\Dipole=2.1281687,1.742399,0.4509912\PG=
 C01 [X(C9H13N3O2)]\\@
 The archive entry for this job was punched.


 YOU KNOW YOU'VE SPOKEN TOO LONG WHEN THE AUDIENCE STOPS LOOKING AT
 THEIR WATCHES AND STARTS SHAKING THEM.
 Job cpu time:       0 days  1 hours 13 minutes 16.4 seconds.
 Elapsed time:       0 days  0 hours 21 minutes 46.8 seconds.
 File lengths (MBytes):  RWF=     31 Int=      0 D2E=      0 Chk=      7 Scr=      1
 Normal termination of Gaussian 16 at Sat Jul  1 07:52:54 2023.
