 Entering Gaussian System, Link 0=g16
 Initial command:
 /home/alexey/programs//g16/l1.exe "/home/alexey/tmp/Gau-1283748.inp" -scrdir="/home/alexey/tmp/"
 Entering Link 1 = /home/alexey/programs//g16/l1.exe PID=   1283750.
  
 Copyright (c) 1988-2021, Gaussian, Inc.  All Rights Reserved.
  
 This is part of the Gaussian(R) 16 program.  It is based on
 the Gaussian(R) 09 system (copyright 2009, Gaussian, Inc.),
 the Gaussian(R) 03 system (copyright 2003, Gaussian, Inc.),
 the Gaussian(R) 98 system (copyright 1998, Gaussian, Inc.),
 the Gaussian(R) 94 system (copyright 1995, Gaussian, Inc.),
 the Gaussian 92(TM) system (copyright 1992, Gaussian, Inc.),
 the Gaussian 90(TM) system (copyright 1990, Gaussian, Inc.),
 the Gaussian 88(TM) system (copyright 1988, Gaussian, Inc.),
 the Gaussian 86(TM) system (copyright 1986, Carnegie Mellon
 University), and the Gaussian 82(TM) system (copyright 1983,
 Carnegie Mellon University). Gaussian is a federally registered
 trademark of Gaussian, Inc.
  
 This software contains proprietary and confidential information,
 including trade secrets, belonging to Gaussian, Inc.
  
 This software is provided under written license and may be
 used, copied, transmitted, or stored only in accord with that
 written license.
  
 The following legend is applicable only to US Government
 contracts under FAR:
  
                    RESTRICTED RIGHTS LEGEND
  
 Use, reproduction and disclosure by the US Government is
 subject to restrictions as set forth in subparagraphs (a)
 and (c) of the Commercial Computer Software - Restricted
 Rights clause in FAR 52.227-19.
  
 Gaussian, Inc.
 340 Quinnipiac St., Bldg. 40, Wallingford CT 06492
  
  
 ---------------------------------------------------------------
 Warning -- This program may not be used in any manner that
 competes with the business of Gaussian, Inc. or will provide
 assistance to any competitor of Gaussian, Inc.  The licensee
 of this program is prohibited from giving any competitor of
 Gaussian, Inc. access to this program.  By using this program,
 the user acknowledges that Gaussian, Inc. is engaged in the
 business of creating and licensing software in the field of
 computational chemistry and represents and warrants to the
 licensee that it is not a competitor of Gaussian, Inc. and that
 it will not use this program in any manner prohibited above.
 ---------------------------------------------------------------
  

 Cite this work as:
 Gaussian 16, Revision C.02,
 M. J. Frisch, G. W. Trucks, H. B. Schlegel, G. E. Scuseria, 
 M. A. Robb, J. R. Cheeseman, G. Scalmani, V. Barone, 
 G. A. Petersson, H. Nakatsuji, X. Li, M. Caricato, A. V. Marenich, 
 J. Bloino, B. G. Janesko, R. Gomperts, B. Mennucci, H. P. Hratchian, 
 J. V. Ortiz, A. F. Izmaylov, J. L. Sonnenberg, D. Williams-Young, 
 F. Ding, F. Lipparini, F. Egidi, J. Goings, B. Peng, A. Petrone, 
 T. Henderson, D. Ranasinghe, V. G. Zakrzewski, J. Gao, N. Rega, 
 G. Zheng, W. Liang, M. Hada, M. Ehara, K. Toyota, R. Fukuda, 
 J. Hasegawa, M. Ishida, T. Nakajima, Y. Honda, O. Kitao, H. Nakai, 
 T. Vreven, K. Throssell, J. A. Montgomery, Jr., J. E. Peralta, 
 F. Ogliaro, M. J. Bearpark, J. J. Heyd, E. N. Brothers, K. N. Kudin, 
 V. N. Staroverov, T. A. Keith, R. Kobayashi, J. Normand, 
 K. Raghavachari, A. P. Rendell, J. C. Burant, S. S. Iyengar, 
 J. Tomasi, M. Cossi, J. M. Millam, M. Klene, C. Adamo, R. Cammi, 
 J. W. Ochterski, R. L. Martin, K. Morokuma, O. Farkas, 
 J. B. Foresman, and D. J. Fox, Gaussian, Inc., Wallingford CT, 2019.
 
 ******************************************
 Gaussian 16:  ES64L-G16RevC.02  7-Dec-2021
                 1-Jul-2023 
 ******************************************
 %mem=8GB
 %NPROCS=4
 Will use up to    4 processors via shared memory.
 %NoSave
 ---------------------------------------------------------
 #MP2/6-31G* SCF=Tight Opt=(ModRedun, MaxCycle=20 ) NoSymm
 ---------------------------------------------------------
 1/6=20,18=120,19=15,38=1/1,3;
 2/9=110,12=2,15=1,17=6,18=5,40=1/2;
 3/5=1,6=6,7=1,11=9,25=1,30=1,71=1/1,2,3;
 4//1;
 5/5=2,32=2,38=5/2;
 8/6=4,10=2/1;
 9/15=2,16=-3/6;
 10/5=1,31=1/2;
 6/7=2,8=2,9=2,10=2/1;
 7/12=2,30=1/1,2,3,16;
 1/6=20,18=20,19=15/3(2);
 2/9=110,15=1/2;
 99//99;
 2/9=110,15=1/2;
 3/5=1,6=6,7=1,11=9,25=1,30=1,71=1/1,2,3;
 4/5=5,16=3,69=1/1;
 5/5=2,32=2,38=5/2;
 8/6=4,10=2/1;
 9/15=2,16=-3/6;
 10/5=1,31=1/2;
 7/12=2,30=1/1,2,3,16;
 1/6=20,18=20,19=15/3(-8);
 2/9=110,15=1/2;
 6/7=2,8=2,9=2,10=2/1;
 99/9=10/99;
 --------
 MolName:
 --------
 Symbolic Z-matrix:
 Charge =  0 Multiplicity = 1
 8                    0    -3.53489  -1.45505  -0.12056 
 7                    0    -3.17305  -0.28698   0.03082 
 8                    0    -3.97962   0.63504   0.18148 
 6                    0    -1.78863   0.00428  -0.03931 
 6                    0    -1.38172   1.31077   0.28579 
 7                    0    -0.09143   1.77094   0.35454 
 6                    0     1.18649   0.99727   0.3427 
 1                    0     1.84063   1.49451   1.1055 
 6                    0     1.97055   1.04707  -0.99235 
 6                    0     3.37798   0.45653  -0.78296 
 6                    0     3.30309  -0.95961  -0.19054 
 6                    0     2.43596  -0.99162   1.08668 
 6                    0     1.00454  -0.44942   0.82224 
 1                    0     0.44375  -0.48798   1.78555 
 7                    0     0.35884  -1.31152  -0.16867 
 6                    0    -0.87774  -1.09697  -0.48028 
 1                    0    -2.15559   2.04924   0.55425 
 1                    0     0.13702   2.74788   0.15571 
 1                    0     1.43084   0.4728   -1.77515 
 1                    0     2.06518   2.09708  -1.3419 
 1                    0     3.92672   0.43163  -1.74981 
 1                    0     3.94682   1.10816  -0.08265 
 1                    0     2.86415  -1.6468   -0.94877 
 1                    0     4.32657  -1.32713   0.04094 
 1                    0     2.36808  -2.03824   1.45641 
 1                    0     2.92166  -0.38377   1.87862 
 1                    0    -1.3632   -1.82412  -1.14926 
 
 The following ModRedundant input section has been read:
 B       2       4 F                                                           
 D       1       2       4      16 F                                           
 D       7      13      15      16 F                                           
 D       7       9      10      11 F                                           
 D       9      10      11      12 F                                           
 D       6       7      13      15 F                                           
 

 GradGradGradGradGradGradGradGradGradGradGradGradGradGradGradGradGradGrad
 Berny optimization.
 Initialization pass.
                           ----------------------------
                           !    Initial Parameters    !
                           ! (Angstroms and Degrees)  !
 --------------------------                            --------------------------
 ! Name  Definition              Value          Derivative Info.                !
 --------------------------------------------------------------------------------
 ! R1    R(1,2)                  1.2322         estimate D2E/DX2                !
 ! R2    R(2,3)                  1.2343         estimate D2E/DX2                !
 ! R3    R(2,4)                  1.4165         Frozen                          !
 ! R4    R(4,5)                  1.4065         estimate D2E/DX2                !
 ! R5    R(4,16)                 1.4956         estimate D2E/DX2                !
 ! R6    R(5,6)                  1.3716         estimate D2E/DX2                !
 ! R7    R(5,17)                 1.1029         estimate D2E/DX2                !
 ! R8    R(6,7)                  1.4939         estimate D2E/DX2                !
 ! R9    R(6,18)                 1.0228         estimate D2E/DX2                !
 ! R10   R(7,8)                  1.1212         estimate D2E/DX2                !
 ! R11   R(7,9)                  1.5491         estimate D2E/DX2                !
 ! R12   R(7,13)                 1.5349         estimate D2E/DX2                !
 ! R13   R(9,10)                 1.5406         estimate D2E/DX2                !
 ! R14   R(9,19)                 1.1108         estimate D2E/DX2                !
 ! R15   R(9,20)                 1.1107         estimate D2E/DX2                !
 ! R16   R(10,11)                1.5369         estimate D2E/DX2                !
 ! R17   R(10,21)                1.112          estimate D2E/DX2                !
 ! R18   R(10,22)                1.1129         estimate D2E/DX2                !
 ! R19   R(11,12)                1.5441         estimate D2E/DX2                !
 ! R20   R(11,23)                1.1135         estimate D2E/DX2                !
 ! R21   R(11,24)                1.1118         estimate D2E/DX2                !
 ! R22   R(12,13)                1.5533         estimate D2E/DX2                !
 ! R23   R(12,25)                1.1121         estimate D2E/DX2                !
 ! R24   R(12,26)                1.1102         estimate D2E/DX2                !
 ! R25   R(13,14)                1.1153         estimate D2E/DX2                !
 ! R26   R(13,15)                1.4636         estimate D2E/DX2                !
 ! R27   R(15,16)                1.2932         estimate D2E/DX2                !
 ! R28   R(16,27)                1.1009         estimate D2E/DX2                !
 ! A1    A(1,2,3)              122.0907         estimate D2E/DX2                !
 ! A2    A(1,2,4)              118.4156         estimate D2E/DX2                !
 ! A3    A(3,2,4)              119.4157         estimate D2E/DX2                !
 ! A4    A(2,4,5)              117.5375         estimate D2E/DX2                !
 ! A5    A(2,4,16)             117.287          estimate D2E/DX2                !
 ! A6    A(5,4,16)             125.1637         estimate D2E/DX2                !
 ! A7    A(4,5,6)              126.5402         estimate D2E/DX2                !
 ! A8    A(4,5,17)             118.3759         estimate D2E/DX2                !
 ! A9    A(6,5,17)             115.0396         estimate D2E/DX2                !
 ! A10   A(5,6,7)              129.0909         estimate D2E/DX2                !
 ! A11   A(5,6,18)             121.3872         estimate D2E/DX2                !
 ! A12   A(7,6,18)             107.581          estimate D2E/DX2                !
 ! A13   A(6,7,8)              105.3085         estimate D2E/DX2                !
 ! A14   A(6,7,9)              115.0337         estimate D2E/DX2                !
 ! A15   A(6,7,13)             112.5962         estimate D2E/DX2                !
 ! A16   A(8,7,9)              106.0692         estimate D2E/DX2                !
 ! A17   A(8,7,13)             105.9389         estimate D2E/DX2                !
 ! A18   A(9,7,13)             111.0731         estimate D2E/DX2                !
 ! A19   A(7,9,10)             109.4473         estimate D2E/DX2                !
 ! A20   A(7,9,19)             110.1704         estimate D2E/DX2                !
 ! A21   A(7,9,20)             110.1663         estimate D2E/DX2                !
 ! A22   A(10,9,19)            109.9677         estimate D2E/DX2                !
 ! A23   A(10,9,20)            109.1058         estimate D2E/DX2                !
 ! A24   A(19,9,20)            107.9601         estimate D2E/DX2                !
 ! A25   A(9,10,11)            111.1664         estimate D2E/DX2                !
 ! A26   A(9,10,21)            109.9516         estimate D2E/DX2                !
 ! A27   A(9,10,22)            109.1489         estimate D2E/DX2                !
 ! A28   A(11,10,21)           109.7896         estimate D2E/DX2                !
 ! A29   A(11,10,22)           108.7752         estimate D2E/DX2                !
 ! A30   A(21,10,22)           107.9387         estimate D2E/DX2                !
 ! A31   A(10,11,12)           111.4268         estimate D2E/DX2                !
 ! A32   A(10,11,23)           108.9895         estimate D2E/DX2                !
 ! A33   A(10,11,24)           109.8757         estimate D2E/DX2                !
 ! A34   A(12,11,23)           109.2138         estimate D2E/DX2                !
 ! A35   A(12,11,24)           109.7482         estimate D2E/DX2                !
 ! A36   A(23,11,24)           107.4969         estimate D2E/DX2                !
 ! A37   A(11,12,13)           111.6816         estimate D2E/DX2                !
 ! A38   A(11,12,25)           109.1955         estimate D2E/DX2                !
 ! A39   A(11,12,26)           109.4513         estimate D2E/DX2                !
 ! A40   A(13,12,25)           109.1995         estimate D2E/DX2                !
 ! A41   A(13,12,26)           109.4798         estimate D2E/DX2                !
 ! A42   A(25,12,26)           107.7479         estimate D2E/DX2                !
 ! A43   A(7,13,12)            105.8393         estimate D2E/DX2                !
 ! A44   A(7,13,14)            111.2248         estimate D2E/DX2                !
 ! A45   A(7,13,15)            113.3254         estimate D2E/DX2                !
 ! A46   A(12,13,14)           107.7122         estimate D2E/DX2                !
 ! A47   A(12,13,15)           108.4337         estimate D2E/DX2                !
 ! A48   A(14,13,15)           110.034          estimate D2E/DX2                !
 ! A49   A(13,15,16)           119.163          estimate D2E/DX2                !
 ! A50   A(4,16,15)            129.3089         estimate D2E/DX2                !
 ! A51   A(4,16,27)            113.3871         estimate D2E/DX2                !
 ! A52   A(15,16,27)           117.2917         estimate D2E/DX2                !
 ! D1    D(1,2,4,5)           -172.9257         estimate D2E/DX2                !
 ! D2    D(1,2,4,16)             8.2591         Frozen                          !
 ! D3    D(3,2,4,5)             10.2181         estimate D2E/DX2                !
 ! D4    D(3,2,4,16)          -168.5971         estimate D2E/DX2                !
 ! D5    D(2,4,5,6)            175.9835         estimate D2E/DX2                !
 ! D6    D(2,4,5,17)            -1.4664         estimate D2E/DX2                !
 ! D7    D(16,4,5,6)            -5.3046         estimate D2E/DX2                !
 ! D8    D(16,4,5,17)          177.2455         estimate D2E/DX2                !
 ! D9    D(2,4,16,15)         -150.4406         estimate D2E/DX2                !
 ! D10   D(2,4,16,27)           28.227          estimate D2E/DX2                !
 ! D11   D(5,4,16,15)           30.8445         estimate D2E/DX2                !
 ! D12   D(5,4,16,27)         -150.4879         estimate D2E/DX2                !
 ! D13   D(4,5,6,7)            -11.6056         estimate D2E/DX2                !
 ! D14   D(4,5,6,18)           150.4828         estimate D2E/DX2                !
 ! D15   D(17,5,6,7)           165.918          estimate D2E/DX2                !
 ! D16   D(17,5,6,18)          -31.9936         estimate D2E/DX2                !
 ! D17   D(5,6,7,8)           -139.0339         estimate D2E/DX2                !
 ! D18   D(5,6,7,9)            104.5701         estimate D2E/DX2                !
 ! D19   D(5,6,7,13)           -24.0535         estimate D2E/DX2                !
 ! D20   D(18,6,7,8)            56.9524         estimate D2E/DX2                !
 ! D21   D(18,6,7,9)           -59.4436         estimate D2E/DX2                !
 ! D22   D(18,6,7,13)          171.9329         estimate D2E/DX2                !
 ! D23   D(6,7,9,10)           168.7765         estimate D2E/DX2                !
 ! D24   D(6,7,9,19)           -70.1915         estimate D2E/DX2                !
 ! D25   D(6,7,9,20)            48.8122         estimate D2E/DX2                !
 ! D26   D(8,7,9,10)            52.8151         estimate D2E/DX2                !
 ! D27   D(8,7,9,19)           173.8472         estimate D2E/DX2                !
 ! D28   D(8,7,9,20)           -67.1492         estimate D2E/DX2                !
 ! D29   D(13,7,9,10)          -61.8462         estimate D2E/DX2                !
 ! D30   D(13,7,9,19)           59.1858         estimate D2E/DX2                !
 ! D31   D(13,7,9,20)          178.1895         estimate D2E/DX2                !
 ! D32   D(6,7,13,12)         -166.2751         estimate D2E/DX2                !
 ! D33   D(6,7,13,14)          -49.5672         estimate D2E/DX2                !
 ! D34   D(6,7,13,15)           75.0215         Frozen                          !
 ! D35   D(8,7,13,12)          -51.6764         estimate D2E/DX2                !
 ! D36   D(8,7,13,14)           65.0315         estimate D2E/DX2                !
 ! D37   D(8,7,13,15)         -170.3798         estimate D2E/DX2                !
 ! D38   D(9,7,13,12)           63.0662         estimate D2E/DX2                !
 ! D39   D(9,7,13,14)          179.7741         estimate D2E/DX2                !
 ! D40   D(9,7,13,15)          -55.6372         estimate D2E/DX2                !
 ! D41   D(7,9,10,11)           54.8127         Frozen                          !
 ! D42   D(7,9,10,21)          176.6022         estimate D2E/DX2                !
 ! D43   D(7,9,10,22)          -65.1744         estimate D2E/DX2                !
 ! D44   D(19,9,10,11)         -66.3421         estimate D2E/DX2                !
 ! D45   D(19,9,10,21)          55.4474         estimate D2E/DX2                !
 ! D46   D(19,9,10,22)         173.6707         estimate D2E/DX2                !
 ! D47   D(20,9,10,11)         175.4249         estimate D2E/DX2                !
 ! D48   D(20,9,10,21)         -62.7856         estimate D2E/DX2                !
 ! D49   D(20,9,10,22)          55.4377         estimate D2E/DX2                !
 ! D50   D(9,10,11,12)         -52.8225         Frozen                          !
 ! D51   D(9,10,11,23)          67.7694         estimate D2E/DX2                !
 ! D52   D(9,10,11,24)        -174.6819         estimate D2E/DX2                !
 ! D53   D(21,10,11,12)       -174.7064         estimate D2E/DX2                !
 ! D54   D(21,10,11,23)        -54.1145         estimate D2E/DX2                !
 ! D55   D(21,10,11,24)         63.4342         estimate D2E/DX2                !
 ! D56   D(22,10,11,12)         67.3861         estimate D2E/DX2                !
 ! D57   D(22,10,11,23)       -172.022          estimate D2E/DX2                !
 ! D58   D(22,10,11,24)        -54.4732         estimate D2E/DX2                !
 ! D59   D(10,11,12,13)         56.5102         estimate D2E/DX2                !
 ! D60   D(10,11,12,25)        177.3839         estimate D2E/DX2                !
 ! D61   D(10,11,12,26)        -64.8887         estimate D2E/DX2                !
 ! D62   D(23,11,12,13)        -63.9499         estimate D2E/DX2                !
 ! D63   D(23,11,12,25)         56.9237         estimate D2E/DX2                !
 ! D64   D(23,11,12,26)        174.6511         estimate D2E/DX2                !
 ! D65   D(24,11,12,13)        178.4434         estimate D2E/DX2                !
 ! D66   D(24,11,12,25)        -60.6829         estimate D2E/DX2                !
 ! D67   D(24,11,12,26)         57.0445         estimate D2E/DX2                !
 ! D68   D(11,12,13,7)         -60.1195         estimate D2E/DX2                !
 ! D69   D(11,12,13,14)       -179.1748         estimate D2E/DX2                !
 ! D70   D(11,12,13,15)         61.7782         estimate D2E/DX2                !
 ! D71   D(25,12,13,7)         179.0092         estimate D2E/DX2                !
 ! D72   D(25,12,13,14)         59.9538         estimate D2E/DX2                !
 ! D73   D(25,12,13,15)        -59.0931         estimate D2E/DX2                !
 ! D74   D(26,12,13,7)          61.2629         estimate D2E/DX2                !
 ! D75   D(26,12,13,14)        -57.7924         estimate D2E/DX2                !
 ! D76   D(26,12,13,15)       -176.8394         estimate D2E/DX2                !
 ! D77   D(7,13,15,16)         -67.1601         Frozen                          !
 ! D78   D(12,13,15,16)        175.6443         estimate D2E/DX2                !
 ! D79   D(14,13,15,16)         58.0709         estimate D2E/DX2                !
 ! D80   D(13,15,16,4)           4.7471         estimate D2E/DX2                !
 ! D81   D(13,15,16,27)       -173.8767         estimate D2E/DX2                !
 --------------------------------------------------------------------------------
 Trust Radius=3.00D-01 FncErr=1.00D-07 GrdErr=1.00D-07 EigMax=2.50D+02 EigMin=1.00D-04
 Number of steps in this run=     20 maximum allowed number of steps=    162.
 GradGradGradGradGradGradGradGradGradGradGradGradGradGradGradGradGradGrad

                          Input orientation:                          
 ---------------------------------------------------------------------
 Center     Atomic      Atomic             Coordinates (Angstroms)
 Number     Number       Type             X           Y           Z
 ---------------------------------------------------------------------
      1          8           0       -3.534890   -1.455050   -0.120560
      2          7           0       -3.173050   -0.286980    0.030820
      3          8           0       -3.979620    0.635040    0.181480
      4          6           0       -1.788630    0.004280   -0.039310
      5          6           0       -1.381720    1.310770    0.285790
      6          7           0       -0.091430    1.770940    0.354540
      7          6           0        1.186490    0.997270    0.342700
      8          1           0        1.840630    1.494510    1.105500
      9          6           0        1.970550    1.047070   -0.992350
     10          6           0        3.377980    0.456530   -0.782960
     11          6           0        3.303090   -0.959610   -0.190540
     12          6           0        2.435960   -0.991620    1.086680
     13          6           0        1.004540   -0.449420    0.822240
     14          1           0        0.443750   -0.487980    1.785550
     15          7           0        0.358840   -1.311520   -0.168670
     16          6           0       -0.877740   -1.096970   -0.480280
     17          1           0       -2.155590    2.049240    0.554250
     18          1           0        0.137020    2.747880    0.155710
     19          1           0        1.430840    0.472800   -1.775150
     20          1           0        2.065180    2.097080   -1.341900
     21          1           0        3.926720    0.431630   -1.749810
     22          1           0        3.946820    1.108160   -0.082650
     23          1           0        2.864150   -1.646800   -0.948770
     24          1           0        4.326570   -1.327130    0.040940
     25          1           0        2.368080   -2.038240    1.456410
     26          1           0        2.921660   -0.383770    1.878620
     27          1           0       -1.363200   -1.824120   -1.149260
 ---------------------------------------------------------------------
                    Distance matrix (angstroms):
                    1          2          3          4          5
     1  O    0.000000
     2  N    1.232165   0.000000
     3  O    2.158122   1.234251   0.000000
     4  C    2.277207   1.416464   2.290643   0.000000
     5  C    3.528601   2.413851   2.686369   1.406479   0.000000
     6  N    4.742378   3.719706   4.054410   2.481268   1.371616
     7  C    5.340404   4.555453   5.181302   3.159636   2.587899
     8  H    6.252947   5.428225   5.955486   4.086919   3.330049
     9  C    6.109868   5.411394   6.078830   4.015860   3.597345
    10  C    7.202825   6.643120   7.422687   5.239409   4.952444
    11  C    6.856262   6.514739   7.464528   5.184358   5.227711
    12  C    6.109275   5.750857   6.680200   4.484064   4.529581
    13  C    4.744111   4.254996   5.140864   2.958025   3.013351
    14  H    4.516421   4.025012   4.837398   2.925056   2.969364
    15  N    3.896671   3.682896   4.768012   2.521843   3.180014
    16  C    2.705192   2.487118   3.613785   1.495636   2.576445
    17  H    3.825949   2.601370   2.337949   2.160749   1.102852
    18  H    5.587832   4.492498   4.627254   3.357604   2.094941
    19  H    5.577880   5.003458   5.755675   3.687498   3.586107
    20  H    6.743151   5.916685   6.402957   4.574757   3.892143
    21  H    7.866997   7.354847   8.141343   5.981109   5.752920
    22  H    7.908696   7.256159   7.944939   5.840875   5.345104
    23  H    6.455262   6.265500   7.302154   5.020114   5.319659
    24  H    7.864159   7.571414   8.535962   6.258975   6.293095
    25  H    6.137752   5.983589   7.004653   4.866960   5.162094
    26  H    6.843347   6.369397   7.179549   5.100575   4.891590
    27  H    2.431188   2.651593   3.829359   2.180832   3.447789
                    6          7          8          9         10
     6  N    0.000000
     7  C    1.493916   0.000000
     8  H    2.091222   1.121165   0.000000
     9  C    2.567073   1.549061   2.148966   0.000000
    10  C    3.880514   2.522328   2.647098   1.540598   0.000000
    11  C    4.390419   2.931505   3.137071   2.538765   1.536887
    12  C    3.815163   2.463811   2.556485   2.948767   2.545603
    13  C    2.519899   1.534919   2.134982   2.542714   3.005101
    14  H    2.727073   2.199874   2.518731   3.521963   4.012362
    15  N    3.158805   2.505397   3.419505   2.973046   3.552261
    16  C    3.088708   3.053552   4.076764   3.601650   4.540499
    17  H    2.092389   3.510113   4.072024   4.518999   5.911451
    18  H    1.022807   2.049631   2.318475   2.751841   4.078628
    19  H    2.921995   2.195464   3.083823   1.110787   2.185420
    20  H    2.763194   2.195349   2.530470   1.110703   2.174227
    21  H    4.729437   3.493910   3.692463   2.186118   1.111996
    22  H    4.115565   2.795110   2.448878   2.176449   1.112940
    23  H    4.702661   3.387262   3.890430   2.838548   2.171523
    24  H    5.405100   3.918418   3.908304   3.500763   2.181760
    25  H    4.666172   3.442503   3.589103   3.958989   3.501222
    26  H    4.005534   2.697617   2.300929   3.345801   2.828134
    27  H    4.099179   4.084985   5.134372   4.402527   5.273929
                   11         12         13         14         15
    11  C    0.000000
    12  C    1.544095   0.000000
    13  C    2.563074   1.553342   0.000000
    14  H    3.507591   2.170478   1.115320   0.000000
    15  N    2.965287   2.447992   1.463574   2.122358   0.000000
    16  C    4.193108   3.667025   2.378835   2.692803   1.293160
    17  H    6.277346   5.532869   4.037517   3.835382   4.259070
    18  H    4.887675   4.487281   3.379287   3.636104   4.078376
    19  H    2.840441   3.368214   2.789024   3.817857   2.629403
    20  H    3.493051   3.946587   3.506155   4.369498   3.988310
    21  H    2.180776   3.506235   3.991344   5.047329   4.274148
    22  H    2.168341   2.838857   3.449912   4.278941   4.328493
    23  H    1.113468   2.180749   2.833433   3.831149   2.645288
    24  H    1.111830   2.186446   3.523732   4.338678   3.973294
    25  H    2.179479   1.112080   2.187638   2.492927   2.684409
    26  H    2.181399   1.110205   2.189885   2.481846   3.408836
    27  H    4.841568   4.486212   3.373841   3.696410   2.046885
                   16         17         18         19         20
    16  C    0.000000
    17  H    3.549900   0.000000
    18  H    4.027045   2.429607   0.000000
    19  H    3.077403   4.557823   3.252411   0.000000
    20  H    4.427767   4.627372   2.526693   1.796769   0.000000
    21  H    5.199150   6.702227   4.832996   2.496348   2.530898
    22  H    5.319501   6.207309   4.154524   3.098127   2.470677
    23  H    3.810976   6.412298   5.288698   2.688863   3.848317
    24  H    5.235407   7.326784   5.845614   3.863054   4.330282
    25  H    3.895139   6.163195   5.438418   4.198419   5.002315
    26  H    4.528632   5.783767   4.530990   4.038105   4.154506
    27  H    1.100887   4.304968   4.985659   3.670727   5.212169
                   21         22         23         24         25
    21  H    0.000000
    22  H    1.799311   0.000000
    23  H    2.467912   3.084176   0.000000
    24  H    2.541634   2.467817   1.794544   0.000000
    25  H    4.336988   3.841999   2.486805   2.518912   0.000000
    26  H    3.852340   2.668968   3.097206   2.498153   1.794988
    27  H    5.782069   6.158915   4.235815   5.834129   4.556074
                   26         27
    26  H    0.000000
    27  H    5.440835   0.000000
 Symmetry turned off by external request.
 Stoichiometry    C9H13N3O2
 Framework group  C1[X(C9H13N3O2)]
 Deg. of freedom    75
 Full point group                 C1      NOp   1
 Rotational constants (GHZ):           1.6857677           0.4083562           0.3617103
 Standard basis: 6-31G(d) (6D, 7F)
   236 basis functions,   444 primitive gaussians,   236 cartesian basis functions
    52 alpha electrons       52 beta electrons
       nuclear repulsion energy       922.8297232876 Hartrees.
 NAtoms=   27 NActive=   27 NUniq=   27 SFac= 1.00D+00 NAtFMM=   60 NAOKFM=F Big=F
 Integral buffers will be    131072 words long.
 Raffenetti 1 integral format.
 Two-electron integral symmetry is turned off.
 One-electron integrals computed using PRISM.
 NBasis=   236 RedAO= T EigKep=  1.20D-03  NBF=   236
 NBsUse=   236 1.00D-06 EigRej= -1.00D+00 NBFU=   236
 ExpMin= 1.61D-01 ExpMax= 5.48D+03 ExpMxC= 8.25D+02 IAcc=3 IRadAn=         5 AccDes= 0.00D+00
 Harris functional with IExCor=  205 and IRadAn=       5 diagonalized for initial guess.
 HarFok:  IExCor=  205 AccDes= 0.00D+00 IRadAn=         5 IDoV= 1 UseB2=F ITyADJ=14
 ICtDFT=  3500011 ScaDFX=  1.000000  1.000000  1.000000  1.000000
 FoFCou: FMM=F IPFlag=           0 FMFlag=      100000 FMFlg1=           0
         NFxFlg=           0 DoJE=T BraDBF=F KetDBF=T FulRan=T
         wScrn=  0.000000 ICntrl=       500 IOpCl=  0 I1Cent=   200000004 NGrid=           0
         NMat0=    1 NMatS0=      1 NMatT0=    0 NMatD0=    1 NMtDS0=    0 NMtDT0=    0
 Symmetry not used in FoFCou.
 Keep R1 ints in memory in canonical form, NReq=397720213.
 Requested convergence on RMS density matrix=1.00D-08 within 128 cycles.
 Requested convergence on MAX density matrix=1.00D-06.
 Requested convergence on             energy=1.00D-06.
 No special actions if energy rises.
 SCF Done:  E(RHF) =  -661.284082846     A.U. after   17 cycles
            NFock= 17  Conv=0.47D-08     -V/T= 2.0034
 ExpMin= 1.61D-01 ExpMax= 5.48D+03 ExpMxC= 8.25D+02 IAcc=3 IRadAn=         5 AccDes= 0.00D+00
 HarFok:  IExCor=  205 AccDes= 0.00D+00 IRadAn=         5 IDoV=-2 UseB2=F ITyADJ=14
 ICtDFT= 12500011 ScaDFX=  1.000000  1.000000  1.000000  1.000000
 Range of M.O.s used for correlation:    15   236
 NBasis=   236 NAE=    52 NBE=    52 NFC=    14 NFV=     0
 NROrb=    222 NOA=    38 NOB=    38 NVA=   184 NVB=   184
 Fully direct method using O(ONN) memory.
 JobTyp=1 Pass  1:  I=  15 to  52 NPSUse=  4 ParTrn=T ParDer=T DoDerP=T.
 Spin components of T(2) and E(2):
     alpha-alpha T2 =       0.9159547853D-01 E2=     -0.2716742351D+00
     alpha-beta  T2 =       0.4968095592D+00 E2=     -0.1490905399D+01
     beta-beta   T2 =       0.9159547853D-01 E2=     -0.2716742351D+00
 ANorm=    0.1296148339D+01
 E2 =    -0.2034253869D+01 EUMP2 =    -0.66331833671497D+03
          IDoAtm=111111111111111111111111111
          Differentiating once with respect to electric field.
                with respect to dipole field.
          Differentiating once with respect to nuclear coordinates.
 Keep R1 ints in memory in canonical form, NReq=397723379.
          There are     1 degrees of freedom in the 1st order CPHF.  IDoFFX=0 NUNeed=     1.
 LinEq1:  Iter=  0 NonCon=     1 RMS=4.59D-03 Max=1.15D-01 NDo=     1
 AX will form     1 AO Fock derivatives at one time.
 LinEq1:  Iter=  1 NonCon=     1 RMS=1.54D-03 Max=3.00D-02 NDo=     1
 LinEq1:  Iter=  2 NonCon=     1 RMS=6.38D-04 Max=1.78D-02 NDo=     1
 LinEq1:  Iter=  3 NonCon=     1 RMS=2.99D-04 Max=1.13D-02 NDo=     1
 LinEq1:  Iter=  4 NonCon=     1 RMS=9.33D-05 Max=2.27D-03 NDo=     1
 LinEq1:  Iter=  5 NonCon=     1 RMS=4.08D-05 Max=2.17D-03 NDo=     1
 LinEq1:  Iter=  6 NonCon=     1 RMS=1.57D-05 Max=4.96D-04 NDo=     1
 LinEq1:  Iter=  7 NonCon=     1 RMS=5.94D-06 Max=7.67D-05 NDo=     1
 LinEq1:  Iter=  8 NonCon=     1 RMS=2.26D-06 Max=5.04D-05 NDo=     1
 LinEq1:  Iter=  9 NonCon=     1 RMS=8.02D-07 Max=2.37D-05 NDo=     1
 LinEq1:  Iter= 10 NonCon=     1 RMS=4.00D-07 Max=1.62D-05 NDo=     1
 LinEq1:  Iter= 11 NonCon=     1 RMS=1.48D-07 Max=5.59D-06 NDo=     1
 LinEq1:  Iter= 12 NonCon=     1 RMS=5.28D-08 Max=8.25D-07 NDo=     1
 LinEq1:  Iter= 13 NonCon=     1 RMS=1.69D-08 Max=3.08D-07 NDo=     1
 LinEq1:  Iter= 14 NonCon=     1 RMS=5.74D-09 Max=1.32D-07 NDo=     1
 LinEq1:  Iter= 15 NonCon=     1 RMS=2.18D-09 Max=5.07D-08 NDo=     1
 LinEq1:  Iter= 16 NonCon=     1 RMS=8.52D-10 Max=1.61D-08 NDo=     1
 LinEq1:  Iter= 17 NonCon=     1 RMS=2.67D-10 Max=4.64D-09 NDo=     1
 LinEq1:  Iter= 18 NonCon=     1 RMS=8.83D-11 Max=1.33D-09 NDo=     1
 LinEq1:  Iter= 19 NonCon=     0 RMS=2.75D-11 Max=4.65D-10 NDo=     1
 Linear equations converged to 1.000D-10 1.000D-09 after    19 iterations.
 End of Minotr F.D. properties file   721 does not exist.
 End of Minotr F.D. properties file   722 does not exist.
 End of Minotr F.D. properties file   788 does not exist.

 **********************************************************************

            Population analysis using the SCF Density.

 **********************************************************************

 Alpha  occ. eigenvalues --  -20.58911 -20.58297 -15.84603 -15.63759 -15.57010
 Alpha  occ. eigenvalues --  -11.36363 -11.30462 -11.30273 -11.29429 -11.27805
 Alpha  occ. eigenvalues --  -11.24793 -11.23996 -11.23510 -11.22951  -1.58556
 Alpha  occ. eigenvalues --   -1.37197  -1.28914  -1.22883  -1.14296  -1.09981
 Alpha  occ. eigenvalues --   -1.01985  -1.01337  -0.94196  -0.89126  -0.85098
 Alpha  occ. eigenvalues --   -0.81653  -0.78001  -0.77127  -0.74533  -0.71366
 Alpha  occ. eigenvalues --   -0.70476  -0.69577  -0.67458  -0.64425  -0.63370
 Alpha  occ. eigenvalues --   -0.61739  -0.60373  -0.57577  -0.56578  -0.55013
 Alpha  occ. eigenvalues --   -0.53598  -0.50867  -0.49295  -0.48658  -0.47852
 Alpha  occ. eigenvalues --   -0.47132  -0.45966  -0.45846  -0.43525  -0.42134
 Alpha  occ. eigenvalues --   -0.40172  -0.34047
 Alpha virt. eigenvalues --    0.06495   0.11939   0.18256   0.21451   0.23561
 Alpha virt. eigenvalues --    0.24407   0.26330   0.27689   0.28499   0.28749
 Alpha virt. eigenvalues --    0.30108   0.31052   0.31763   0.32147   0.33279
 Alpha virt. eigenvalues --    0.33647   0.34877   0.37156   0.37933   0.39495
 Alpha virt. eigenvalues --    0.41330   0.41678   0.44201   0.45118   0.45712
 Alpha virt. eigenvalues --    0.45876   0.49528   0.53168   0.56905   0.59011
 Alpha virt. eigenvalues --    0.63644   0.69003   0.69324   0.72196   0.73990
 Alpha virt. eigenvalues --    0.74994   0.75717   0.77146   0.77613   0.79368
 Alpha virt. eigenvalues --    0.81095   0.84003   0.85201   0.85415   0.88072
 Alpha virt. eigenvalues --    0.89007   0.90159   0.90630   0.91917   0.94511
 Alpha virt. eigenvalues --    0.95398   0.97053   0.98584   1.00215   1.02118
 Alpha virt. eigenvalues --    1.02917   1.05134   1.05873   1.07070   1.08174
 Alpha virt. eigenvalues --    1.09648   1.10378   1.10966   1.11986   1.13167
 Alpha virt. eigenvalues --    1.13768   1.14104   1.15208   1.16287   1.17304
 Alpha virt. eigenvalues --    1.17718   1.19788   1.20977   1.22274   1.22930
 Alpha virt. eigenvalues --    1.23616   1.24815   1.26487   1.27687   1.27839
 Alpha virt. eigenvalues --    1.29493   1.31353   1.33020   1.34899   1.40602
 Alpha virt. eigenvalues --    1.42985   1.46310   1.47720   1.48665   1.53097
 Alpha virt. eigenvalues --    1.53872   1.54924   1.60988   1.61350   1.65327
 Alpha virt. eigenvalues --    1.69190   1.71678   1.72891   1.74192   1.77554
 Alpha virt. eigenvalues --    1.78353   1.81854   1.84666   1.89641   1.92703
 Alpha virt. eigenvalues --    1.94118   1.97448   1.98295   1.99496   2.02690
 Alpha virt. eigenvalues --    2.04572   2.06417   2.06927   2.09383   2.12557
 Alpha virt. eigenvalues --    2.13394   2.14063   2.17516   2.19087   2.19848
 Alpha virt. eigenvalues --    2.20910   2.22326   2.24694   2.26187   2.28821
 Alpha virt. eigenvalues --    2.29040   2.32216   2.33271   2.35534   2.35754
 Alpha virt. eigenvalues --    2.38119   2.40378   2.41133   2.44238   2.46643
 Alpha virt. eigenvalues --    2.48950   2.50488   2.51628   2.56691   2.57523
 Alpha virt. eigenvalues --    2.60838   2.62961   2.65856   2.68283   2.69700
 Alpha virt. eigenvalues --    2.69901   2.70374   2.74265   2.76087   2.83634
 Alpha virt. eigenvalues --    2.84938   2.86775   2.90556   2.91970   2.95242
 Alpha virt. eigenvalues --    2.97657   2.98946   3.01652   3.04295   3.05709
 Alpha virt. eigenvalues --    3.06802   3.12480   3.20800   3.24612   3.27091
 Alpha virt. eigenvalues --    3.30408   3.34595   3.37938   3.52460   3.60216
 Alpha virt. eigenvalues --    4.12542   4.29651   4.32105   4.37842   4.43218
 Alpha virt. eigenvalues --    4.53097   4.59798   4.60174   4.70809   4.77698
 Alpha virt. eigenvalues --    4.97539   4.99155   5.02834   5.10274
          Condensed to atoms (all electrons):
               1          2          3          4          5          6
     1  O    8.321960   0.320730  -0.094952  -0.087440   0.004097  -0.000015
     2  N    0.320730   5.691473   0.311509   0.256938  -0.047017   0.001097
     3  O   -0.094952   0.311509   8.360583  -0.095410   0.007256   0.000624
     4  C   -0.087440   0.256938  -0.095410   5.266863   0.553355  -0.047718
     5  C    0.004097  -0.047017   0.007256   0.553355   4.674904   0.307684
     6  N   -0.000015   0.001097   0.000624  -0.047718   0.307684   7.195921
     7  C    0.000003  -0.000104   0.000002   0.003917  -0.028778   0.193089
     8  H   -0.000000   0.000003  -0.000000  -0.000164   0.002038  -0.050635
     9  C   -0.000000  -0.000004   0.000000   0.000389   0.001765  -0.054925
    10  C   -0.000000   0.000000  -0.000000  -0.000015  -0.000064   0.003287
    11  C   -0.000000  -0.000000  -0.000000  -0.000016   0.000015  -0.000155
    12  C   -0.000000   0.000002  -0.000000  -0.000079  -0.000122   0.003619
    13  C   -0.000026  -0.000088  -0.000003  -0.011062   0.000385  -0.043588
    14  H   -0.000004  -0.000086   0.000000   0.003028   0.005048  -0.005601
    15  N    0.000145   0.002220  -0.000018  -0.060651  -0.003516   0.001647
    16  C    0.002643  -0.029693   0.002166   0.315983  -0.039340  -0.001690
    17  H    0.000116  -0.003590   0.012027  -0.027617   0.377539  -0.034956
    18  H    0.000000  -0.000037   0.000008   0.000826  -0.023841   0.327450
    19  H    0.000000   0.000001   0.000000  -0.000663   0.000577   0.000667
    20  H    0.000000  -0.000000   0.000000  -0.000021   0.000030  -0.001930
    21  H   -0.000000  -0.000000   0.000000   0.000000   0.000001  -0.000058
    22  H   -0.000000   0.000000  -0.000000  -0.000000  -0.000002  -0.000098
    23  H    0.000000  -0.000000   0.000000   0.000024  -0.000000  -0.000024
    24  H    0.000000   0.000000   0.000000   0.000000  -0.000000   0.000004
    25  H    0.000000  -0.000000   0.000000   0.000018  -0.000001  -0.000071
    26  H   -0.000000  -0.000000   0.000000   0.000007  -0.000001  -0.000068
    27  H    0.005180  -0.000395  -0.000021  -0.065487   0.002253   0.000064
               7          8          9         10         11         12
     1  O    0.000003  -0.000000  -0.000000  -0.000000  -0.000000  -0.000000
     2  N   -0.000104   0.000003  -0.000004   0.000000  -0.000000   0.000002
     3  O    0.000002  -0.000000   0.000000  -0.000000  -0.000000  -0.000000
     4  C    0.003917  -0.000164   0.000389  -0.000015  -0.000016  -0.000079
     5  C   -0.028778   0.002038   0.001765  -0.000064   0.000015  -0.000122
     6  N    0.193089  -0.050635  -0.054925   0.003287  -0.000155   0.003619
     7  C    5.003492   0.417630   0.339626  -0.049162  -0.007749  -0.063772
     8  H    0.417630   0.546719  -0.060521   0.001586  -0.000365  -0.002752
     9  C    0.339626  -0.060521   5.181792   0.317884  -0.053014  -0.006399
    10  C   -0.049162   0.001586   0.317884   5.126401   0.332700  -0.060067
    11  C   -0.007749  -0.000365  -0.053014   0.332700   5.123876   0.330721
    12  C   -0.063772  -0.002752  -0.006399  -0.060067   0.330721   5.136064
    13  C    0.334001  -0.041274  -0.049153  -0.001937  -0.047843   0.368353
    14  H   -0.040192  -0.000959   0.003879  -0.000394   0.003947  -0.040602
    15  N   -0.057531   0.004082  -0.012972   0.001431  -0.007673  -0.074048
    16  C   -0.002703   0.000055  -0.001067  -0.000018   0.000004   0.002517
    17  H    0.001457  -0.000014  -0.000065   0.000001   0.000000   0.000001
    18  H   -0.028113  -0.002548   0.000920  -0.000125   0.000012  -0.000134
    19  H   -0.034927   0.004103   0.385758  -0.032323  -0.002278   0.000640
    20  H   -0.041719  -0.001902   0.397301  -0.037335   0.004139  -0.000360
    21  H    0.004035  -0.000079  -0.035835   0.400268  -0.035785   0.004200
    22  H   -0.004182   0.003496  -0.045738   0.396033  -0.045620  -0.001216
    23  H    0.000420   0.000034  -0.002013  -0.040076   0.396707  -0.036621
    24  H   -0.000137  -0.000098   0.004398  -0.038452   0.400349  -0.037815
    25  H    0.004959  -0.000005  -0.000364   0.004091  -0.033910   0.395591
    26  H   -0.004446   0.001654   0.001027  -0.002390  -0.042350   0.394748
    27  H   -0.000411   0.000009  -0.000062   0.000005   0.000004  -0.000019
              13         14         15         16         17         18
     1  O   -0.000026  -0.000004   0.000145   0.002643   0.000116   0.000000
     2  N   -0.000088  -0.000086   0.002220  -0.029693  -0.003590  -0.000037
     3  O   -0.000003   0.000000  -0.000018   0.002166   0.012027   0.000008
     4  C   -0.011062   0.003028  -0.060651   0.315983  -0.027617   0.000826
     5  C    0.000385   0.005048  -0.003516  -0.039340   0.377539  -0.023841
     6  N   -0.043588  -0.005601   0.001647  -0.001690  -0.034956   0.327450
     7  C    0.334001  -0.040192  -0.057531  -0.002703   0.001457  -0.028113
     8  H   -0.041274  -0.000959   0.004082   0.000055  -0.000014  -0.002548
     9  C   -0.049153   0.003879  -0.012972  -0.001067  -0.000065   0.000920
    10  C   -0.001937  -0.000394   0.001431  -0.000018   0.000001  -0.000125
    11  C   -0.047843   0.003947  -0.007673   0.000004   0.000000   0.000012
    12  C    0.368353  -0.040602  -0.074048   0.002517   0.000001  -0.000134
    13  C    5.028820   0.401498   0.236787  -0.070320  -0.000042   0.003652
    14  H    0.401498   0.520272  -0.035940  -0.004516   0.000078   0.000010
    15  N    0.236787  -0.035940   6.934535   0.585390  -0.000065  -0.000127
    16  C   -0.070320  -0.004516   0.585390   4.704862   0.001678  -0.000219
    17  H   -0.000042   0.000078  -0.000065   0.001678   0.383390  -0.001828
    18  H    0.003652   0.000010  -0.000127  -0.000219  -0.001828   0.321636
    19  H   -0.006387   0.000065   0.007024   0.002647   0.000011  -0.000135
    20  H    0.003849  -0.000048   0.000077  -0.000030  -0.000001   0.002993
    21  H   -0.000368   0.000009  -0.000027   0.000002  -0.000000  -0.000000
    22  H    0.000316  -0.000045   0.000000  -0.000001   0.000000   0.000002
    23  H   -0.005834   0.000008   0.006732   0.000060   0.000000   0.000000
    24  H    0.004132  -0.000057   0.000047   0.000005   0.000000  -0.000000
    25  H   -0.034455  -0.002648   0.000655  -0.000062  -0.000000   0.000002
    26  H   -0.044913  -0.000918   0.004197  -0.000059   0.000000  -0.000001
    27  H    0.004984  -0.000183  -0.040243   0.402190  -0.000056   0.000002
              19         20         21         22         23         24
     1  O    0.000000   0.000000  -0.000000  -0.000000   0.000000   0.000000
     2  N    0.000001  -0.000000  -0.000000   0.000000  -0.000000   0.000000
     3  O    0.000000   0.000000   0.000000  -0.000000   0.000000   0.000000
     4  C   -0.000663  -0.000021   0.000000  -0.000000   0.000024   0.000000
     5  C    0.000577   0.000030   0.000001  -0.000002  -0.000000  -0.000000
     6  N    0.000667  -0.001930  -0.000058  -0.000098  -0.000024   0.000004
     7  C   -0.034927  -0.041719   0.004035  -0.004182   0.000420  -0.000137
     8  H    0.004103  -0.001902  -0.000079   0.003496   0.000034  -0.000098
     9  C    0.385758   0.397301  -0.035835  -0.045738  -0.002013   0.004398
    10  C   -0.032323  -0.037335   0.400268   0.396033  -0.040076  -0.038452
    11  C   -0.002278   0.004139  -0.035785  -0.045620   0.396707   0.400349
    12  C    0.000640  -0.000360   0.004200  -0.001216  -0.036621  -0.037815
    13  C   -0.006387   0.003849  -0.000368   0.000316  -0.005834   0.004132
    14  H    0.000065  -0.000048   0.000009  -0.000045   0.000008  -0.000057
    15  N    0.007024   0.000077  -0.000027   0.000000   0.006732   0.000047
    16  C    0.002647  -0.000030   0.000002  -0.000001   0.000060   0.000005
    17  H    0.000011  -0.000001  -0.000000   0.000000   0.000000   0.000000
    18  H   -0.000135   0.002993  -0.000000   0.000002   0.000000  -0.000000
    19  H    0.505607  -0.024067  -0.002585   0.003742   0.001634  -0.000069
    20  H   -0.024067   0.550200  -0.002598  -0.002973  -0.000049  -0.000090
    21  H   -0.002585  -0.002598   0.525153  -0.024621  -0.002808  -0.002048
    22  H    0.003742  -0.002973  -0.024621   0.568353   0.004058  -0.003595
    23  H    0.001634  -0.000049  -0.002808   0.004058   0.509211  -0.024929
    24  H   -0.000069  -0.000090  -0.002048  -0.003595  -0.024929   0.540257
    25  H   -0.000027   0.000011  -0.000085  -0.000082  -0.002100  -0.002368
    26  H    0.000023  -0.000035  -0.000074   0.002469   0.003821  -0.002775
    27  H    0.000075  -0.000000  -0.000000   0.000000  -0.000022  -0.000000
              25         26         27
     1  O    0.000000  -0.000000   0.005180
     2  N   -0.000000  -0.000000  -0.000395
     3  O    0.000000   0.000000  -0.000021
     4  C    0.000018   0.000007  -0.065487
     5  C   -0.000001  -0.000001   0.002253
     6  N   -0.000071  -0.000068   0.000064
     7  C    0.004959  -0.004446  -0.000411
     8  H   -0.000005   0.001654   0.000009
     9  C   -0.000364   0.001027  -0.000062
    10  C    0.004091  -0.002390   0.000005
    11  C   -0.033910  -0.042350   0.000004
    12  C    0.395591   0.394748  -0.000019
    13  C   -0.034455  -0.044913   0.004984
    14  H   -0.002648  -0.000918  -0.000183
    15  N    0.000655   0.004197  -0.040243
    16  C   -0.000062  -0.000059   0.402190
    17  H   -0.000000   0.000000  -0.000056
    18  H    0.000002  -0.000001   0.000002
    19  H   -0.000027   0.000023   0.000075
    20  H    0.000011  -0.000035  -0.000000
    21  H   -0.000085  -0.000074  -0.000000
    22  H   -0.000082   0.002469   0.000000
    23  H   -0.002100   0.003821  -0.000022
    24  H   -0.002368  -0.002775  -0.000000
    25  H    0.509612  -0.023011  -0.000009
    26  H   -0.023011   0.560662   0.000001
    27  H   -0.000009   0.000001   0.453100
 Mulliken charges:
               1
     1  O   -0.472437
     2  N    0.497041
     3  O   -0.503770
     4  C   -0.005004
     5  C    0.205734
     6  N   -0.793622
     7  C    0.061294
     8  H    0.179904
     9  C   -0.312607
    10  C   -0.321327
    11  C   -0.315718
    12  C   -0.312447
    13  C   -0.029485
    14  H    0.194353
    15  N   -0.492158
    16  C    0.129516
    17  H    0.291937
    18  H    0.399595
    19  H    0.190888
    20  H    0.154560
    21  H    0.173304
    22  H    0.149705
    23  H    0.191768
    24  H    0.163240
    25  H    0.184262
    26  H    0.152435
    27  H    0.239041
 Sum of Mulliken charges =  -0.00000
 Mulliken charges with hydrogens summed into heavy atoms:
               1
     1  O   -0.472437
     2  N    0.497041
     3  O   -0.503770
     4  C   -0.005004
     5  C    0.497671
     6  N   -0.394028
     7  C    0.241199
     9  C    0.032840
    10  C    0.001682
    11  C    0.039290
    12  C    0.024250
    13  C    0.164868
    15  N   -0.492158
    16  C    0.368557
 Electronic spatial extent (au):  <R**2>=           3077.4627
 Charge=             -0.0000 electrons
 Dipole moment (field-independent basis, Debye):
    X=              5.6765    Y=              4.6738    Z=              0.4482  Tot=              7.3667
 Quadrupole moment (field-independent basis, Debye-Ang):
   XX=           -106.4020   YY=            -80.1717   ZZ=            -81.9261
   XY=             -2.2936   XZ=              1.1706   YZ=              0.0643
 Traceless Quadrupole moment (field-independent basis, Debye-Ang):
   XX=            -16.9021   YY=              9.3283   ZZ=              7.5738
   XY=             -2.2936   XZ=              1.1706   YZ=              0.0643
 Octapole moment (field-independent basis, Debye-Ang**2):
  XXX=            103.2116  YYY=             37.5826  ZZZ=             -6.0920  XYY=             -1.5433
  XXY=             12.4665  XXZ=             -2.5328  XZZ=             -9.1547  YZZ=             -2.7607
  YYZ=             -0.0298  XYZ=             -2.1595
 Hexadecapole moment (field-independent basis, Debye-Ang**3):
 XXXX=          -3507.0440 YYYY=           -616.9623 ZZZZ=           -297.9488 XXXY=            -43.5706
 XXXZ=             43.6263 YYYX=            -23.3860 YYYZ=             11.0900 ZZZX=             30.9993
 ZZZY=             10.6086 XXYY=           -646.7416 XXZZ=           -533.9637 YYZZ=           -163.3114
 XXYZ=              4.3358 YYXZ=             13.8959 ZZXY=              2.3271
 N-N= 9.228297232876D+02 E-N=-3.391804087459D+03  KE= 6.590581840642D+02
 Calling FoFJK, ICntrl=  10002127 FMM=F ISym2X=0 I1Cent= 0 IOpClX= 0 NMat=1 NMatS=1 NMatT=0.
 -------------------------------------------------------------------
 Center     Atomic                   Forces (Hartrees/Bohr)
 Number     Number              X              Y              Z
 -------------------------------------------------------------------
      1        8           0.001857029   -0.026180407   -0.002038465
      2        7          -0.010028235    0.006254213   -0.006199341
      3        8          -0.009454218    0.020035311    0.006449635
      4        6           0.050628950    0.020740426    0.010750060
      5        6           0.005255283   -0.015037941   -0.005962588
      6        7           0.012467450   -0.013647922   -0.007101769
      7        6          -0.003608462    0.004617292    0.002880894
      8        1          -0.009904177   -0.001791325   -0.007737880
      9        6          -0.004099823    0.000228512   -0.002314702
     10        6           0.002875178   -0.000848808    0.001148534
     11        6          -0.001251658   -0.004668355   -0.002518772
     12        6           0.000980512   -0.008596006   -0.002623116
     13        6           0.009365865   -0.002702296    0.006186986
     14        1           0.001039089    0.004706922   -0.009625634
     15        7          -0.002503731    0.003818452   -0.001480073
     16        6          -0.018431126    0.004820595    0.004951835
     17        1           0.006511627   -0.006322229   -0.008066397
     18        1          -0.017608954   -0.000950700    0.007693807
     19        1           0.003059718    0.005939646    0.007770921
     20        1          -0.003260269   -0.007264282    0.002549840
     21        1          -0.004525240    0.002435438    0.009566086
     22        1          -0.003891360   -0.003974355   -0.007469490
     23        1           0.003955797    0.006148895    0.009324928
     24        1          -0.009374529    0.002668948   -0.002228161
     25        1          -0.000707100    0.010593275   -0.002390048
     26        1          -0.004738683   -0.004826647   -0.004403926
     27        1           0.005391067    0.003803347    0.002886836
 -------------------------------------------------------------------
 Cartesian Forces:  Max     0.050628950 RMS     0.009670163

 GradGradGradGradGradGradGradGradGradGradGradGradGradGradGradGradGradGrad
 Berny optimization.
 FormGI is forming the generalized inverse of G from B-inverse, IUseBI=4.
 Internal  Forces:  Max     0.035853505 RMS     0.006697406
 Search for a local minimum.
 Step number   1 out of a maximum of   20
 All quantities printed in internal units (Hartrees-Bohrs-Radians)
 Mixed Optimization -- RFO/linear search
 Second derivative matrix not updated -- first step.
 ITU=  0
     Eigenvalues ---    0.00770   0.01107   0.01181   0.01300   0.01484
     Eigenvalues ---    0.01525   0.01594   0.01613   0.01916   0.02006
     Eigenvalues ---    0.02037   0.02697   0.03664   0.04505   0.04693
     Eigenvalues ---    0.04839   0.05088   0.05137   0.05306   0.05907
     Eigenvalues ---    0.06264   0.07217   0.07702   0.07731   0.07882
     Eigenvalues ---    0.07991   0.08051   0.08068   0.10459   0.11740
     Eigenvalues ---    0.12268   0.13541   0.15298   0.15799   0.15992
     Eigenvalues ---    0.16000   0.20081   0.21866   0.23044   0.24994
     Eigenvalues ---    0.25000   0.25000   0.25392   0.26228   0.26649
     Eigenvalues ---    0.27975   0.28085   0.28493   0.31255   0.31446
     Eigenvalues ---    0.32043   0.32236   0.32291   0.32381   0.32390
     Eigenvalues ---    0.32407   0.32517   0.32526   0.32578   0.32829
     Eigenvalues ---    0.33369   0.33584   0.35453   0.43204   0.43893
     Eigenvalues ---    0.48908   0.66750   0.89338   0.901901000.00000
     Eigenvalues --- 1000.000001000.000001000.000001000.000001000.00000
     Eigenvalues --- 1000.000001000.000001000.000001000.000001000.00000
     Eigenvalues --- 1000.000001000.000001000.000001000.000001000.00000
     Eigenvalues --- 1000.000001000.000001000.000001000.000001000.00000
     Eigenvalues --- 1000.000001000.000001000.000001000.000001000.00000
     Eigenvalues --- 1000.000001000.000001000.000001000.000001000.00000
     Eigenvalues --- 1000.000001000.000001000.000001000.000001000.00000
     Eigenvalues --- 1000.000001000.000001000.000001000.000001000.00000
     Eigenvalues --- 1000.000001000.000001000.000001000.000001000.00000
     Eigenvalues --- 1000.000001000.000001000.000001000.000001000.00000
     Eigenvalues --- 1000.000001000.000001000.000001000.000001000.00000
     Eigenvalues --- 1000.000001000.000001000.000001000.000001000.00000
     Eigenvalues --- 1000.000001000.000001000.000001000.000001000.00000
     Eigenvalues --- 1000.000001000.000001000.000001000.000001000.00000
     Eigenvalues --- 1000.000001000.000001000.000001000.000001000.00000
     Eigenvalues --- 1000.000001000.000001000.000001000.000001000.00000
     Eigenvalues --- 1000.000001000.000001000.000001000.000001000.00000
     Eigenvalues --- 1000.000001000.000001000.000001000.000001000.00000
     Eigenvalues --- 1000.00000
 RFO step:  Lambda=-2.15166772D-02 EMin= 7.69598393D-03
 Linear search not attempted -- first point.
 Iteration  1 RMS(Cart)=  0.04735668 RMS(Int)=  0.00124134
 Iteration  2 RMS(Cart)=  0.00127923 RMS(Int)=  0.00028681
 Iteration  3 RMS(Cart)=  0.00000173 RMS(Int)=  0.00028681
 Iteration  4 RMS(Cart)=  0.00000000 RMS(Int)=  0.00028681
 Iteration  1 RMS(Cart)=  0.00002239 RMS(Int)=  0.00001542
 Iteration  2 RMS(Cart)=  0.00001222 RMS(Int)=  0.00001710
 Iteration  3 RMS(Cart)=  0.00000705 RMS(Int)=  0.00001918
 Iteration  4 RMS(Cart)=  0.00000433 RMS(Int)=  0.00002066
 Iteration  5 RMS(Cart)=  0.00000288 RMS(Int)=  0.00002167
 Iteration  6 RMS(Cart)=  0.00000209 RMS(Int)=  0.00002237
 Iteration  7 RMS(Cart)=  0.00000163 RMS(Int)=  0.00002288
 Iteration  8 RMS(Cart)=  0.00000134 RMS(Int)=  0.00002328
 Iteration  9 RMS(Cart)=  0.00000112 RMS(Int)=  0.00002359
 Iteration 10 RMS(Cart)=  0.00000096 RMS(Int)=  0.00002384
 Variable       Old X    -DE/DX   Delta X   Delta X   Delta X     New X
                                 (Linear)    (Quad)   (Total)
    R1        2.32846   0.02452   0.00000   0.02656   0.02656   2.35501
    R2        2.33240   0.02193   0.00000   0.02397   0.02397   2.35637
    R3        2.67673   0.01712   0.00000   0.00000   0.00000   2.67673
    R4        2.65786  -0.03585   0.00000  -0.07973  -0.07950   2.57836
    R5        2.82634  -0.02121   0.00000  -0.06246  -0.06224   2.76410
    R6        2.59198  -0.02641   0.00000  -0.05183  -0.05175   2.54023
    R7        2.08409  -0.01077   0.00000  -0.03031  -0.03031   2.05378
    R8        2.82309  -0.01891   0.00000  -0.05310  -0.05319   2.76990
    R9        1.93283  -0.00634   0.00000  -0.01376  -0.01376   1.91906
   R10        2.11869  -0.01184   0.00000  -0.03523  -0.03523   2.08346
   R11        2.92730  -0.01314   0.00000  -0.04529  -0.04533   2.88197
   R12        2.90058  -0.00533   0.00000  -0.01126  -0.01126   2.88932
   R13        2.91131  -0.00467   0.00000  -0.01447  -0.01450   2.89681
   R14        2.09908  -0.01003   0.00000  -0.02894  -0.02894   2.07014
   R15        2.09892  -0.00795   0.00000  -0.02292  -0.02292   2.07601
   R16        2.90430  -0.00180   0.00000  -0.00707  -0.00711   2.89718
   R17        2.10137  -0.01061   0.00000  -0.03070  -0.03070   2.07066
   R18        2.10315  -0.00902   0.00000  -0.02618  -0.02618   2.07697
   R19        2.91792  -0.00900   0.00000  -0.02852  -0.02849   2.88943
   R20        2.10415  -0.01170   0.00000  -0.03404  -0.03404   2.07011
   R21        2.10105  -0.00998   0.00000  -0.02887  -0.02887   2.07219
   R22        2.93539  -0.01055   0.00000  -0.03672  -0.03670   2.89870
   R23        2.10153  -0.01072   0.00000  -0.03105  -0.03105   2.07048
   R24        2.09798  -0.00786   0.00000  -0.02262  -0.02262   2.07536
   R25        2.10765  -0.00900   0.00000  -0.02632  -0.02632   2.08133
   R26        2.76575  -0.00503   0.00000  -0.01040  -0.01073   2.75502
   R27        2.44372  -0.00825   0.00000  -0.01117  -0.01122   2.43250
   R28        2.08038  -0.00664   0.00000  -0.01859  -0.01859   2.06178
    A1        2.13088   0.01209   0.00000   0.04564   0.04453   2.17542
    A2        2.06674  -0.00964   0.00000  -0.03441  -0.03552   2.03123
    A3        2.08420  -0.00220   0.00000  -0.00702  -0.00812   2.07607
    A4        2.05142  -0.00540   0.00000  -0.01796  -0.01821   2.03321
    A5        2.04704  -0.00433   0.00000  -0.01402  -0.01429   2.03276
    A6        2.18452   0.00970   0.00000   0.03158   0.03190   2.21641
    A7        2.20854   0.00568   0.00000   0.01749   0.01769   2.22623
    A8        2.06605  -0.00384   0.00000  -0.01394  -0.01419   2.05186
    A9        2.00782  -0.00180   0.00000  -0.00259  -0.00284   2.00498
   A10        2.25306  -0.00432   0.00000  -0.01420  -0.01435   2.23871
   A11        2.11861  -0.01325   0.00000  -0.07565  -0.07608   2.04252
   A12        1.87764   0.01785   0.00000   0.09806   0.09821   1.97585
   A13        1.83798  -0.00119   0.00000  -0.01847  -0.01826   1.81972
   A14        2.00772  -0.00147   0.00000  -0.01257  -0.01259   1.99513
   A15        1.96517   0.00076   0.00000   0.00187   0.00143   1.96661
   A16        1.85126   0.00257   0.00000   0.02480   0.02463   1.87589
   A17        1.84898   0.00064   0.00000   0.01592   0.01571   1.86469
   A18        1.93859  -0.00099   0.00000  -0.00769  -0.00735   1.93124
   A19        1.91022  -0.00010   0.00000  -0.00560  -0.00577   1.90445
   A20        1.92284  -0.00071   0.00000  -0.01293  -0.01289   1.90995
   A21        1.92277  -0.00151   0.00000  -0.00701  -0.00698   1.91579
   A22        1.91930  -0.00031   0.00000   0.00661   0.00657   1.92587
   A23        1.90425   0.00309   0.00000   0.02441   0.02442   1.92867
   A24        1.88426  -0.00042   0.00000  -0.00502  -0.00528   1.87897
   A25        1.94022  -0.00093   0.00000   0.00606   0.00595   1.94617
   A26        1.91902  -0.00078   0.00000  -0.00722  -0.00724   1.91178
   A27        1.90501   0.00040   0.00000  -0.00307  -0.00314   1.90187
   A28        1.91619   0.00089   0.00000   0.00747   0.00752   1.92371
   A29        1.89849   0.00167   0.00000   0.01128   0.01130   1.90979
   A30        1.88389  -0.00123   0.00000  -0.01502  -0.01511   1.86877
   A31        1.94476   0.00064   0.00000   0.00513   0.00524   1.95001
   A32        1.90222   0.00057   0.00000   0.00564   0.00560   1.90783
   A33        1.91769   0.00041   0.00000   0.00563   0.00560   1.92329
   A34        1.90614  -0.00101   0.00000  -0.01402  -0.01406   1.89208
   A35        1.91547  -0.00057   0.00000   0.00001  -0.00007   1.91540
   A36        1.87617  -0.00007   0.00000  -0.00278  -0.00282   1.87336
   A37        1.94921  -0.00301   0.00000  -0.01774  -0.01776   1.93145
   A38        1.90582   0.00255   0.00000   0.01741   0.01727   1.92309
   A39        1.91029   0.00141   0.00000   0.01314   0.01311   1.92339
   A40        1.90589   0.00022   0.00000  -0.00288  -0.00273   1.90316
   A41        1.91078  -0.00021   0.00000  -0.00529  -0.00523   1.90556
   A42        1.88056  -0.00089   0.00000  -0.00419  -0.00438   1.87618
   A43        1.84724   0.00449   0.00000   0.02459   0.02461   1.87186
   A44        1.94124  -0.00409   0.00000  -0.03216  -0.03263   1.90861
   A45        1.97790   0.00002   0.00000   0.00659   0.00678   1.98468
   A46        1.87993   0.00209   0.00000   0.03115   0.03149   1.91143
   A47        1.89252  -0.00307   0.00000  -0.02636  -0.02636   1.86616
   A48        1.92046   0.00082   0.00000  -0.00126  -0.00123   1.91923
   A49        2.07979  -0.00584   0.00000  -0.01204  -0.01250   2.06729
   A50        2.25687  -0.00428   0.00000  -0.01683  -0.01692   2.23995
   A51        1.97898   0.00474   0.00000   0.02296   0.02252   2.00150
   A52        2.04713  -0.00041   0.00000  -0.00522  -0.00566   2.04146
    D1       -3.01812   0.00114   0.00000  -0.01969  -0.01939  -3.03751
    D2        0.14415   0.00267   0.00000   0.00000  -0.00000   0.14415
    D3        0.17834  -0.00425   0.00000  -0.10580  -0.10563   0.07271
    D4       -2.94257  -0.00272   0.00000  -0.08611  -0.08625  -3.02882
    D5        3.07149   0.00032   0.00000   0.00073   0.00068   3.07217
    D6       -0.02559  -0.00089   0.00000  -0.02677  -0.02685  -0.05244
    D7       -0.09258  -0.00154   0.00000  -0.02134  -0.02175  -0.11433
    D8        3.09352  -0.00275   0.00000  -0.04883  -0.04927   3.04425
    D9       -2.62568  -0.00212   0.00000  -0.03925  -0.03965  -2.66533
   D10        0.49265   0.00045   0.00000   0.00997   0.00983   0.50249
   D11        0.53834  -0.00025   0.00000  -0.01718  -0.01718   0.52116
   D12       -2.62651   0.00232   0.00000   0.03203   0.03230  -2.59421
   D13       -0.20256   0.00026   0.00000   0.03363   0.03395  -0.16861
   D14        2.62642   0.00432   0.00000   0.08589   0.08464   2.71106
   D15        2.89582   0.00137   0.00000   0.06005   0.06058   2.95639
   D16       -0.55839   0.00544   0.00000   0.11231   0.11127  -0.44713
   D17       -2.42660  -0.00079   0.00000  -0.02779  -0.02731  -2.45391
   D18        1.82509  -0.00238   0.00000  -0.03934  -0.03891   1.78618
   D19       -0.41981  -0.00034   0.00000  -0.01873  -0.01863  -0.43844
   D20        0.99401  -0.00045   0.00000  -0.05199  -0.05264   0.94136
   D21       -1.03749  -0.00204   0.00000  -0.06354  -0.06425  -1.10173
   D22        3.00079  -0.00000   0.00000  -0.04292  -0.04396   2.95683
   D23        2.94571   0.00250   0.00000   0.02416   0.02405   2.96976
   D24       -1.22507   0.00160   0.00000   0.02057   0.02048  -1.20459
   D25        0.85193  -0.00031   0.00000   0.00194   0.00193   0.85387
   D26        0.92180   0.00307   0.00000   0.03744   0.03743   0.95922
   D27        3.03421   0.00217   0.00000   0.03384   0.03385   3.06806
   D28       -1.17197   0.00026   0.00000   0.01522   0.01530  -1.15667
   D29       -1.07942   0.00137   0.00000   0.00865   0.00861  -1.07081
   D30        1.03299   0.00047   0.00000   0.00505   0.00504   1.03803
   D31        3.10999  -0.00144   0.00000  -0.01357  -0.01351   3.09649
   D32       -2.90205  -0.00131   0.00000  -0.01267  -0.01248  -2.91453
   D33       -0.86511   0.00167   0.00000   0.02207   0.02185  -0.84326
   D34        1.30937  -0.00046   0.00000   0.00000  -0.00001   1.30936
   D35       -0.90192  -0.00196   0.00000  -0.02443  -0.02435  -0.92627
   D36        1.13501   0.00102   0.00000   0.01032   0.00999   1.14500
   D37       -2.97369  -0.00111   0.00000  -0.01176  -0.01188  -2.98557
   D38        1.10071   0.00095   0.00000   0.00989   0.00998   1.11069
   D39        3.13765   0.00392   0.00000   0.04464   0.04431  -3.10123
   D40       -0.97105   0.00179   0.00000   0.02257   0.02245  -0.94861
   D41        0.95666   0.00055   0.00000   0.00000   0.00001   0.95667
   D42        3.08229   0.00052   0.00000   0.00857   0.00853   3.09082
   D43       -1.13751  -0.00120   0.00000  -0.01579  -0.01575  -1.15326
   D44       -1.15789   0.00169   0.00000   0.01541   0.01548  -1.14241
   D45        0.96774   0.00166   0.00000   0.02397   0.02400   0.99174
   D46        3.03113  -0.00006   0.00000  -0.00038  -0.00028   3.03085
   D47        3.06174   0.00054   0.00000   0.00301   0.00296   3.06470
   D48       -1.09581   0.00051   0.00000   0.01158   0.01148  -1.08433
   D49        0.96757  -0.00121   0.00000  -0.01278  -0.01280   0.95477
   D50       -0.92193  -0.00096   0.00000   0.00000   0.00001  -0.92192
   D51        1.18280  -0.00144   0.00000  -0.01051  -0.01052   1.17228
   D52       -3.04877  -0.00095   0.00000  -0.00732  -0.00735  -3.05612
   D53       -3.04920   0.00004   0.00000  -0.00000   0.00001  -3.04919
   D54       -0.94448  -0.00044   0.00000  -0.01051  -0.01051  -0.95499
   D55        1.10714   0.00004   0.00000  -0.00732  -0.00734   1.09979
   D56        1.17611   0.00003   0.00000   0.00723   0.00727   1.18338
   D57       -3.00235  -0.00045   0.00000  -0.00328  -0.00326  -3.00561
   D58       -0.95074   0.00004   0.00000  -0.00009  -0.00009  -0.95083
   D59        0.98629  -0.00084   0.00000  -0.01377  -0.01380   0.97249
   D60        3.09593  -0.00079   0.00000  -0.01710  -0.01724   3.07869
   D61       -1.13252   0.00043   0.00000  -0.00442  -0.00438  -1.13690
   D62       -1.11614  -0.00130   0.00000  -0.01481  -0.01479  -1.13093
   D63        0.99351  -0.00124   0.00000  -0.01814  -0.01824   0.97527
   D64        3.04824  -0.00002   0.00000  -0.00546  -0.00537   3.04286
   D65        3.11442  -0.00028   0.00000  -0.00322  -0.00321   3.11121
   D66       -1.05912  -0.00023   0.00000  -0.00655  -0.00665  -1.06577
   D67        0.99561   0.00099   0.00000   0.00614   0.00621   1.00182
   D68       -1.04928   0.00029   0.00000   0.00247   0.00256  -1.04672
   D69       -3.12719   0.00166   0.00000   0.01140   0.01102  -3.11617
   D70        1.07823   0.00120   0.00000   0.01001   0.00993   1.08816
   D71        3.12430  -0.00112   0.00000  -0.00601  -0.00585   3.11845
   D72        1.04639   0.00024   0.00000   0.00291   0.00261   1.04900
   D73       -1.03137  -0.00021   0.00000   0.00152   0.00152  -1.02985
   D74        1.06924  -0.00005   0.00000   0.00379   0.00399   1.07323
   D75       -1.00867   0.00132   0.00000   0.01271   0.01244  -0.99622
   D76       -3.08643   0.00086   0.00000   0.01132   0.01136  -3.07507
   D77       -1.17217   0.00333   0.00000   0.00000  -0.00001  -1.17217
   D78        3.06557  -0.00024   0.00000  -0.01717  -0.01713   3.04844
   D79        1.01353  -0.00142   0.00000  -0.03858  -0.03888   0.97465
   D80        0.08285   0.00303   0.00000   0.02915   0.02892   0.11177
   D81       -3.03472   0.00032   0.00000  -0.02198  -0.02184  -3.05656
         Item               Value     Threshold  Converged?
 Maximum Force            0.035513     0.000450     NO 
 RMS     Force            0.006657     0.000300     NO 
 Maximum Displacement     0.183307     0.001800     NO 
 RMS     Displacement     0.047536     0.001200     NO 
 Predicted change in Energy=-1.223099D-02
 GradGradGradGradGradGradGradGradGradGradGradGradGradGradGradGradGradGrad

                          Input orientation:                          
 ---------------------------------------------------------------------
 Center     Atomic      Atomic             Coordinates (Angstroms)
 Number     Number       Type             X           Y           Z
 ---------------------------------------------------------------------
      1          8           0       -3.437888   -1.452429   -0.159774
      2          7           0       -3.097845   -0.264837    0.004722
      3          8           0       -3.886425    0.672425    0.238243
      4          6           0       -1.708041    0.004372   -0.043658
      5          6           0       -1.323786    1.277817    0.260142
      6          7           0       -0.070641    1.754840    0.355227
      7          6           0        1.188920    1.005199    0.350108
      8          1           0        1.812834    1.517283    1.101142
      9          6           0        1.940238    1.048915   -0.976340
     10          6           0        3.336488    0.446602   -0.782535
     11          6           0        3.262212   -0.965382   -0.189874
     12          6           0        2.421214   -0.999938    1.086616
     13          6           0        1.018043   -0.437809    0.825762
     14          1           0        0.437960   -0.447294    1.761968
     15          7           0        0.388146   -1.309044   -0.158939
     16          6           0       -0.844553   -1.098808   -0.464225
     17          1           0       -2.106084    2.003348    0.466966
     18          1           0        0.056222    2.751489    0.207285
     19          1           0        1.382379    0.482495   -1.730011
     20          1           0        2.014397    2.087286   -1.327273
     21          1           0        3.863633    0.426971   -1.742951
     22          1           0        3.915202    1.095287   -0.110010
     23          1           0        2.807941   -1.642051   -0.921845
     24          1           0        4.270646   -1.341127    0.020624
     25          1           0        2.331807   -2.028739    1.452711
     26          1           0        2.905455   -0.409499    1.875924
     27          1           0       -1.315474   -1.813384   -1.140984
 ---------------------------------------------------------------------
                    Distance matrix (angstroms):
                    1          2          3          4          5
     1  O    0.000000
     2  N    1.246219   0.000000
     3  O    2.207851   1.246936   0.000000
     4  C    2.264536   1.416464   2.295892   0.000000
     5  C    3.478505   2.364806   2.633268   1.364407   0.000000
     6  N    4.678691   3.655942   3.968062   2.429882   1.344234
     7  C    5.263769   4.484266   5.087473   3.090160   2.529052
     8  H    6.162725   5.337870   5.825798   3.999503   3.256226
     9  C    5.987299   5.298180   5.963804   3.907801   3.497876
    10  C    7.063025   6.521239   7.298182   5.117497   4.847293
    11  C    6.717847   6.401481   7.346340   5.066085   5.125020
    12  C    6.007271   5.671938   6.580489   4.397375   4.460521
    13  C    4.675046   4.200543   5.062767   2.895333   2.957611
    14  H    4.441349   3.952609   4.719725   2.840705   2.887081
    15  N    3.828719   3.642702   4.728205   2.476358   3.130205
    16  C    2.634981   2.448008   3.589388   1.462701   2.530359
    17  H    3.756181   2.518317   2.234565   2.101209   1.086813
    18  H    5.478728   4.368912   4.457345   3.274484   2.019635
    19  H    5.426283   4.862120   5.627645   3.552898   3.452039
    20  H    6.604548   5.782881   6.266768   4.454519   3.783992
    21  H    7.703947   7.210765   8.003048   5.840354   5.625445
    22  H    7.782112   7.144643   7.820836   5.728469   5.255219
    23  H    6.295005   6.134619   7.177544   4.886309   5.195564
    24  H    7.711448   7.446698   8.404734   6.128556   6.181739
    25  H    6.018440   5.889749   6.887497   4.763720   5.071379
    26  H    6.743127   6.289828   7.069808   5.014023   4.831590
    27  H    2.365946   2.624401   3.832923   2.159276   3.393928
                    6          7          8          9         10
     6  N    0.000000
     7  C    1.465770   0.000000
     8  H    2.039681   1.102520   0.000000
     9  C    2.512974   1.525075   2.133432   0.000000
    10  C    3.822894   2.491377   2.648796   1.532924   0.000000
    11  C    4.336433   2.910895   3.151356   2.534470   1.533122
    12  C    3.785904   2.466083   2.589738   2.947020   2.534548
    13  C    2.492859   1.528960   2.128359   2.511646   2.957024
    14  H    2.662140   2.160330   2.487274   3.463209   3.959168
    15  N    3.140420   2.501217   3.406709   2.938896   3.487677
    16  C    3.068183   3.037268   4.044257   3.553877   4.468861
    17  H    2.053600   3.444853   3.999544   4.400773   5.797095
    18  H    1.015525   2.086368   2.325496   2.801650   4.129454
    19  H    2.842243   2.153495   3.044915   1.095472   2.171990
    20  H    2.699762   2.160077   2.502545   1.098575   2.176352
    21  H    4.652322   3.445190   3.671978   2.161933   1.095749
    22  H    4.066743   2.766304   2.462706   2.157119   1.099087
    23  H    4.632064   3.353659   3.881251   2.827928   2.158991
    24  H    5.342634   3.887266   3.921590   3.483825   2.171104
    25  H    4.614292   3.424427   3.601001   3.940250   3.483249
    26  H    3.981711   2.697402   2.346614   3.345748   2.825970
    27  H    4.064539   4.054597   5.089871   4.338148   5.184282
                   11         12         13         14         15
    11  C    0.000000
    12  C    1.529019   0.000000
    13  C    2.519156   1.533923   0.000000
    14  H    3.471960   2.166752   1.101394   0.000000
    15  N    2.894706   2.404229   1.457895   2.105939   0.000000
    16  C    4.118082   3.616644   2.360138   2.650518   1.287224
    17  H    6.169555   5.468100   3.980974   3.762291   4.193433
    18  H    4.924555   4.521019   3.388102   3.577006   4.090503
    19  H    2.828806   3.348159   2.740744   3.735017   2.581933
    20  H    3.488481   3.939964   3.464735   4.295656   3.942684
    21  H    2.170806   3.481822   3.929823   4.978356   4.195456
    22  H    2.163130   2.837936   3.408751   4.239702   4.268879
    23  H    1.095457   2.143777   2.776340   3.774534   2.558971
    24  H    1.096554   2.161746   3.470397   4.303568   3.886783
    25  H    2.166672   1.095651   2.156408   2.486617   2.625490
    26  H    2.168825   1.098233   2.160084   2.470414   3.359568
    27  H    4.751730   4.425690   3.347477   3.656209   2.030047
                   16         17         18         19         20
    16  C    0.000000
    17  H    3.475910   0.000000
    18  H    4.010873   2.302763   0.000000
    19  H    3.010309   4.394210   3.264987   0.000000
    20  H    4.366880   4.494965   2.574973   1.771158   0.000000
    21  H    5.111766   6.557913   4.868592   2.481909   2.519744
    22  H    5.253075   6.116647   4.211343   3.068405   2.465533
    23  H    3.720920   6.274183   5.305665   2.683105   3.834324
    24  H    5.143837   7.214390   5.877561   3.838281   4.319896
    25  H    3.824746   6.076536   5.438745   4.163824   4.977020
    26  H    4.473702   5.737815   4.571032   4.014745   4.157931
    27  H    1.091049   4.216398   4.953528   3.591159   5.132054
                   21         22         23         24         25
    21  H    0.000000
    22  H    1.765164   0.000000
    23  H    2.463645   3.062372   0.000000
    24  H    2.530222   2.465668   1.765873   0.000000
    25  H    4.311526   3.835202   2.452499   2.506548   0.000000
    26  H    3.835889   2.688476   3.058792   2.484716   1.769214
    27  H    5.674919   6.073158   4.132788   5.725129   4.480658
                   26         27
    26  H    0.000000
    27  H    5.374837   0.000000
 Symmetry turned off by external request.
 Stoichiometry    C9H13N3O2
 Framework group  C1[X(C9H13N3O2)]
 Deg. of freedom    75
 Full point group                 C1      NOp   1
 Rotational constants (GHZ):           1.6951402           0.4238727           0.3740135
 Standard basis: 6-31G(d) (6D, 7F)
   236 basis functions,   444 primitive gaussians,   236 cartesian basis functions
    52 alpha electrons       52 beta electrons
       nuclear repulsion energy       933.7382518856 Hartrees.
 NAtoms=   27 NActive=   27 NUniq=   27 SFac= 1.00D+00 NAtFMM=   60 NAOKFM=F Big=F
 Integral buffers will be    131072 words long.
 Raffenetti 1 integral format.
 Two-electron integral symmetry is turned off.
 One-electron integrals computed using PRISM.
 NBasis=   236 RedAO= T EigKep=  9.99D-04  NBF=   236
 NBsUse=   236 1.00D-06 EigRej= -1.00D+00 NBFU=   236
 Initial guess from the checkpoint file:  "/home/alexey/tmp/Gau-1283750.chk"
 B after Tr=     0.043339    0.002678    0.001831
         Rot=    0.999999   -0.001375   -0.000043    0.000706 Ang=  -0.18 deg.
 ExpMin= 1.61D-01 ExpMax= 5.48D+03 ExpMxC= 8.25D+02 IAcc=3 IRadAn=         5 AccDes= 0.00D+00
 Harris functional with IExCor=  205 and IRadAn=       5 diagonalized for initial guess.
 HarFok:  IExCor=  205 AccDes= 0.00D+00 IRadAn=         5 IDoV= 1 UseB2=F ITyADJ=14
 ICtDFT=  3500011 ScaDFX=  1.000000  1.000000  1.000000  1.000000
 FoFCou: FMM=F IPFlag=           0 FMFlag=      100000 FMFlg1=           0
         NFxFlg=           0 DoJE=T BraDBF=F KetDBF=T FulRan=T
         wScrn=  0.000000 ICntrl=       500 IOpCl=  0 I1Cent=   200000004 NGrid=           0
         NMat0=    1 NMatS0=      1 NMatT0=    0 NMatD0=    1 NMtDS0=    0 NMtDT0=    0
 Symmetry not used in FoFCou.
 Keep R1 ints in memory in canonical form, NReq=397720213.
 Requested convergence on RMS density matrix=1.00D-08 within 128 cycles.
 Requested convergence on MAX density matrix=1.00D-06.
 Requested convergence on             energy=1.00D-06.
 No special actions if energy rises.
 SCF Done:  E(RHF) =  -661.297483376     A.U. after   15 cycles
            NFock= 15  Conv=0.54D-08     -V/T= 2.0024
 ExpMin= 1.61D-01 ExpMax= 5.48D+03 ExpMxC= 8.25D+02 IAcc=3 IRadAn=         5 AccDes= 0.00D+00
 HarFok:  IExCor=  205 AccDes= 0.00D+00 IRadAn=         5 IDoV=-2 UseB2=F ITyADJ=14
 ICtDFT= 12500011 ScaDFX=  1.000000  1.000000  1.000000  1.000000
 Range of M.O.s used for correlation:    15   236
 NBasis=   236 NAE=    52 NBE=    52 NFC=    14 NFV=     0
 NROrb=    222 NOA=    38 NOB=    38 NVA=   184 NVB=   184
 Fully direct method using O(ONN) memory.
 JobTyp=1 Pass  1:  I=  15 to  52 NPSUse=  4 ParTrn=T ParDer=T DoDerP=T.
 Spin components of T(2) and E(2):
     alpha-alpha T2 =       0.9120372413D-01 E2=     -0.2723967950D+00
     alpha-beta  T2 =       0.4908270042D+00 E2=     -0.1487630320D+01
     beta-beta   T2 =       0.9120372413D-01 E2=     -0.2723967950D+00
 ANorm=    0.1293535640D+01
 E2 =    -0.2032423910D+01 EUMP2 =    -0.66332990728578D+03
          IDoAtm=111111111111111111111111111
          Differentiating once with respect to electric field.
                with respect to dipole field.
          Differentiating once with respect to nuclear coordinates.
 Keep R1 ints in memory in canonical form, NReq=397723379.
          There are     1 degrees of freedom in the 1st order CPHF.  IDoFFX=0 NUNeed=     1.
 LinEq1:  Iter=  0 NonCon=     1 RMS=4.59D-03 Max=1.21D-01 NDo=     1
 AX will form     1 AO Fock derivatives at one time.
 LinEq1:  Iter=  1 NonCon=     1 RMS=1.54D-03 Max=2.69D-02 NDo=     1
 LinEq1:  Iter=  2 NonCon=     1 RMS=6.53D-04 Max=2.03D-02 NDo=     1
 LinEq1:  Iter=  3 NonCon=     1 RMS=2.89D-04 Max=9.59D-03 NDo=     1
 LinEq1:  Iter=  4 NonCon=     1 RMS=9.01D-05 Max=2.11D-03 NDo=     1
 LinEq1:  Iter=  5 NonCon=     1 RMS=3.89D-05 Max=2.03D-03 NDo=     1
 LinEq1:  Iter=  6 NonCon=     1 RMS=1.45D-05 Max=4.93D-04 NDo=     1
 LinEq1:  Iter=  7 NonCon=     1 RMS=5.49D-06 Max=9.32D-05 NDo=     1
 LinEq1:  Iter=  8 NonCon=     1 RMS=2.14D-06 Max=4.70D-05 NDo=     1
[...]
    16  C    0.000000
    17  H    3.463237   0.000000
    18  H    4.081056   2.231743   0.000000
    19  H    2.986755   4.308834   3.507635   0.000000
    20  H    4.370005   4.451966   2.877115   1.768558   0.000000
    21  H    5.093870   6.513871   5.082821   2.498967   2.520955
    22  H    5.245772   6.099758   4.311173   3.070227   2.461162
    23  H    3.695808   6.237817   5.419163   2.704605   3.843039
    24  H    5.134017   7.200916   5.935251   3.849931   4.317072
    25  H    3.822406   6.086030   5.370272   4.171472   4.985064
    26  H    4.495178   5.778696   4.488037   4.037576   4.183855
    27  H    1.089531   4.215512   5.069376   3.571905   5.136579
                   21         22         23         24         25
    21  H    0.000000
    22  H    1.758846   0.000000
    23  H    2.469225   3.062262   0.000000
    24  H    2.517431   2.459917   1.764574   0.000000
    25  H    4.312047   3.840238   2.443689   2.520078   0.000000
    26  H    3.847574   2.705756   3.060453   2.491130   1.767947
    27  H    5.643782   6.053056   4.086749   5.691787   4.455544
                   26         27
    26  H    0.000000
    27  H    5.377712   0.000000
 Symmetry turned off by external request.
 Stoichiometry    C9H13N3O2
 Framework group  C1[X(C9H13N3O2)]
 Deg. of freedom    75
 Full point group                 C1      NOp   1
 Rotational constants (GHZ):           1.6837608           0.4218018           0.3741350

 **********************************************************************

            Population analysis using the SCF Density.

 **********************************************************************

 Alpha  occ. eigenvalues --  -20.58820 -20.58454 -15.84409 -15.64394 -15.56159
 Alpha  occ. eigenvalues --  -11.35208 -11.29735 -11.29549 -11.28392 -11.27203
 Alpha  occ. eigenvalues --  -11.23823 -11.23278 -11.22754 -11.22148  -1.56966
 Alpha  occ. eigenvalues --   -1.36272  -1.31185  -1.23150  -1.15143  -1.10312
 Alpha  occ. eigenvalues --   -1.02937  -1.01535  -0.94714  -0.89772  -0.85667
 Alpha  occ. eigenvalues --   -0.82508  -0.78658  -0.77410  -0.75303  -0.72089
 Alpha  occ. eigenvalues --   -0.69792  -0.69323  -0.67815  -0.64923  -0.63816
 Alpha  occ. eigenvalues --   -0.62443  -0.60260  -0.57796  -0.57073  -0.55119
 Alpha  occ. eigenvalues --   -0.54647  -0.50831  -0.50118  -0.48692  -0.48142
 Alpha  occ. eigenvalues --   -0.47143  -0.46194  -0.45964  -0.43460  -0.41740
 Alpha  occ. eigenvalues --   -0.39900  -0.33925
 Alpha virt. eigenvalues --    0.07195   0.11898   0.17243   0.21815   0.24103
 Alpha virt. eigenvalues --    0.25718   0.27128   0.28719   0.28992   0.29643
 Alpha virt. eigenvalues --    0.30718   0.31757   0.31978   0.32716   0.33906
 Alpha virt. eigenvalues --    0.34332   0.35941   0.37494   0.38556   0.40496
 Alpha virt. eigenvalues --    0.42160   0.42428   0.44892   0.46043   0.46627
 Alpha virt. eigenvalues --    0.47002   0.48897   0.53951   0.57202   0.59374
 Alpha virt. eigenvalues --    0.64003   0.69467   0.69882   0.72819   0.74184
 Alpha virt. eigenvalues --    0.74877   0.75701   0.77238   0.78775   0.79400
 Alpha virt. eigenvalues --    0.81620   0.84802   0.85772   0.85907   0.88525
 Alpha virt. eigenvalues --    0.89377   0.90987   0.92037   0.92858   0.94682
 Alpha virt. eigenvalues --    0.95746   0.97975   0.99562   1.01652   1.02533
 Alpha virt. eigenvalues --    1.03236   1.05877   1.06838   1.07970   1.08852
 Alpha virt. eigenvalues --    1.10394   1.11312   1.11801   1.12436   1.13855
 Alpha virt. eigenvalues --    1.14741   1.14909   1.15797   1.16873   1.18668
 Alpha virt. eigenvalues --    1.19134   1.21308   1.22497   1.23948   1.24521
 Alpha virt. eigenvalues --    1.24885   1.26139   1.27217   1.27623   1.29656
 Alpha virt. eigenvalues --    1.30181   1.33052   1.36121   1.36934   1.41040
 Alpha virt. eigenvalues --    1.42162   1.46643   1.48807   1.51811   1.54457
 Alpha virt. eigenvalues --    1.55945   1.58968   1.59600   1.63557   1.65613
 Alpha virt. eigenvalues --    1.68165   1.68730   1.73278   1.75360   1.77529
 Alpha virt. eigenvalues --    1.82023   1.84719   1.87984   1.90674   1.93581
 Alpha virt. eigenvalues --    1.95986   1.97002   1.99796   2.02238   2.02970
 Alpha virt. eigenvalues --    2.05326   2.06754   2.08919   2.10029   2.12843
 Alpha virt. eigenvalues --    2.13419   2.15296   2.18690   2.20041   2.22661
 Alpha virt. eigenvalues --    2.22853   2.24712   2.26173   2.28323   2.29538
 Alpha virt. eigenvalues --    2.31940   2.33958   2.34580   2.36421   2.38339
 Alpha virt. eigenvalues --    2.40186   2.42021   2.43880   2.45407   2.47498
 Alpha virt. eigenvalues --    2.50872   2.52100   2.53101   2.55484   2.61795
 Alpha virt. eigenvalues --    2.62318   2.65177   2.67567   2.70367   2.70442
 Alpha virt. eigenvalues --    2.72227   2.72679   2.76711   2.78374   2.85513
 Alpha virt. eigenvalues --    2.88477   2.88542   2.93000   2.93324   2.95957
 Alpha virt. eigenvalues --    2.99376   3.01417   3.04255   3.06009   3.07609
 Alpha virt. eigenvalues --    3.09362   3.15045   3.21547   3.26042   3.27521
 Alpha virt. eigenvalues --    3.33610   3.37940   3.39015   3.55452   3.65911
 Alpha virt. eigenvalues --    4.14493   4.30654   4.34690   4.39299   4.46515
 Alpha virt. eigenvalues --    4.56734   4.61911   4.62311   4.73427   4.79857
 Alpha virt. eigenvalues --    4.99630   5.00886   5.05159   5.11238
          Condensed to atoms (all electrons):
               1          2          3          4          5          6
     1  O    8.325499   0.308093  -0.083451  -0.088384   0.004857  -0.000016
     2  N    0.308093   5.730133   0.301415   0.260878  -0.053640   0.001020
     3  O   -0.083451   0.301415   8.364822  -0.095740   0.003366   0.000865
     4  C   -0.088384   0.260878  -0.095740   5.235217   0.554421  -0.046941
     5  C    0.004857  -0.053640   0.003366   0.554421   4.712676   0.317642
     6  N   -0.000016   0.001020   0.000865  -0.046941   0.317642   7.195682
     7  C    0.000004  -0.000144   0.000002   0.004647  -0.029840   0.166983
     8  H   -0.000000   0.000003  -0.000000  -0.000268   0.003064  -0.050747
     9  C   -0.000000  -0.000005  -0.000000   0.000830   0.000600  -0.061217
    10  C    0.000000   0.000000   0.000000  -0.000037  -0.000051   0.003737
    11  C   -0.000000  -0.000000  -0.000000  -0.000028   0.000026  -0.000190
    12  C   -0.000000   0.000003  -0.000000  -0.000131  -0.000176   0.003884
    13  C   -0.000027  -0.000059  -0.000004  -0.011496  -0.000601  -0.047601
    14  H   -0.000004  -0.000120   0.000001   0.002619   0.006028  -0.006952
    15  N    0.000405   0.002612  -0.000017  -0.063545  -0.006220   0.001461
    16  C    0.000246  -0.027848   0.002654   0.326663  -0.049855  -0.002019
    17  H    0.000218  -0.007178   0.017704  -0.022871   0.373977  -0.034395
    18  H    0.000001  -0.000051   0.000011   0.001476  -0.031597   0.338558
    19  H    0.000001  -0.000004   0.000000  -0.001199   0.001237  -0.000383
    20  H    0.000000  -0.000000   0.000000  -0.000075   0.000149  -0.000489
    21  H   -0.000000  -0.000000   0.000000   0.000001   0.000001  -0.000077
    22  H   -0.000000   0.000000  -0.000000  -0.000000  -0.000003  -0.000117
    23  H    0.000000  -0.000000   0.000000   0.000040  -0.000000  -0.000030
    24  H    0.000000   0.000000   0.000000   0.000000  -0.000000   0.000006
    25  H    0.000000  -0.000000   0.000000   0.000024  -0.000000  -0.000091
    26  H    0.000000  -0.000000   0.000000   0.000007  -0.000002  -0.000061
    27  H    0.006121  -0.000898   0.000014  -0.063553   0.002262   0.000021
               7          8          9         10         11         12
     1  O    0.000004  -0.000000  -0.000000   0.000000  -0.000000  -0.000000
     2  N   -0.000144   0.000003  -0.000005   0.000000  -0.000000   0.000003
     3  O    0.000002  -0.000000  -0.000000   0.000000  -0.000000  -0.000000
     4  C    0.004647  -0.000268   0.000830  -0.000037  -0.000028  -0.000131
     5  C   -0.029840   0.003064   0.000600  -0.000051   0.000026  -0.000176
     6  N    0.166983  -0.050747  -0.061217   0.003737  -0.000190   0.003884
     7  C    5.019631   0.418552   0.350097  -0.054703  -0.009061  -0.061081
     8  H    0.418552   0.537394  -0.054945   0.000808  -0.000334  -0.002172
     9  C    0.350097  -0.054945   5.158448   0.324732  -0.050392  -0.005406
    10  C   -0.054703   0.000808   0.324732   5.119343   0.336982  -0.060943
    11  C   -0.009061  -0.000334  -0.050392   0.336982   5.119893   0.335908
    12  C   -0.061081  -0.002172  -0.005406  -0.060943   0.335908   5.118454
    13  C    0.338966  -0.038134  -0.059766  -0.000346  -0.050627   0.372155
    14  H   -0.046487  -0.000763   0.004417  -0.000406   0.004194  -0.036346
    15  N   -0.057924   0.003934  -0.014823   0.001540  -0.012975  -0.081949
    16  C   -0.001731   0.000019  -0.001360  -0.000027   0.000028   0.002556
    17  H    0.001602  -0.000043  -0.000070   0.000001   0.000000   0.000000
    18  H   -0.021156  -0.004450   0.001300  -0.000083   0.000004  -0.000114
    19  H   -0.036791   0.004353   0.390197  -0.031947  -0.002204   0.000692
    20  H   -0.042488  -0.002110   0.399579  -0.035287   0.003928  -0.000415
    21  H    0.004603  -0.000076  -0.036370   0.402479  -0.034851   0.004341
    22  H   -0.004843   0.003551  -0.046973   0.397785  -0.045402  -0.000997
    23  H    0.000577   0.000034  -0.001956  -0.039013   0.399157  -0.037817
    24  H   -0.000128  -0.000102   0.004389  -0.038425   0.402378  -0.038683
    25  H    0.005154  -0.000027  -0.000420   0.004183  -0.033372   0.398290
    26  H   -0.003895   0.001696   0.000963  -0.002214  -0.041489   0.396776
    27  H   -0.000414   0.000009  -0.000059   0.000007   0.000012  -0.000035
              13         14         15         16         17         18
     1  O   -0.000027  -0.000004   0.000405   0.000246   0.000218   0.000001
     2  N   -0.000059  -0.000120   0.002612  -0.027848  -0.007178  -0.000051
     3  O   -0.000004   0.000001  -0.000017   0.002654   0.017704   0.000011
     4  C   -0.011496   0.002619  -0.063545   0.326663  -0.022871   0.001476
     5  C   -0.000601   0.006028  -0.006220  -0.049855   0.373977  -0.031597
     6  N   -0.047601  -0.006952   0.001461  -0.002019  -0.034395   0.338558
     7  C    0.338966  -0.046487  -0.057924  -0.001731   0.001602  -0.021156
     8  H   -0.038134  -0.000763   0.003934   0.000019  -0.000043  -0.004450
     9  C   -0.059766   0.004417  -0.014823  -0.001360  -0.000070   0.001300
    10  C   -0.000346  -0.000406   0.001540  -0.000027   0.000001  -0.000083
    11  C   -0.050627   0.004194  -0.012975   0.000028   0.000000   0.000004
    12  C    0.372155  -0.036346  -0.081949   0.002556   0.000000  -0.000114
    13  C    5.040656   0.402962   0.243426  -0.071234  -0.000008   0.002998
    14  H    0.402962   0.526393  -0.037215  -0.004324   0.000097  -0.000105
    15  N    0.243426  -0.037215   6.965263   0.585183  -0.000082  -0.000133
    16  C   -0.071234  -0.004324   0.585183   4.710442   0.002050  -0.000199
    17  H   -0.000008   0.000097  -0.000082   0.002050   0.374942  -0.002850
    18  H    0.002998  -0.000105  -0.000133  -0.000199  -0.002850   0.309919
    19  H   -0.007562   0.000104   0.007727   0.003054   0.000016  -0.000148
    20  H    0.004327  -0.000065   0.000127  -0.000036   0.000002   0.000828
    21  H   -0.000429   0.000010  -0.000040   0.000004  -0.000000   0.000001
    22  H    0.000038  -0.000055   0.000019  -0.000002   0.000000   0.000001
    23  H   -0.007510   0.000002   0.008568   0.000108   0.000000   0.000000
    24  H    0.004696  -0.000056   0.000137   0.000007   0.000000  -0.000000
    25  H   -0.035542  -0.002809   0.000382  -0.000023  -0.000000   0.000002
    26  H   -0.047478  -0.001052   0.004904  -0.000060   0.000000  -0.000000
    27  H    0.005092  -0.000176  -0.040567   0.403816  -0.000078   0.000001
              19         20         21         22         23         24
     1  O    0.000001   0.000000  -0.000000  -0.000000   0.000000   0.000000
     2  N   -0.000004  -0.000000  -0.000000   0.000000  -0.000000   0.000000
     3  O    0.000000   0.000000   0.000000  -0.000000   0.000000   0.000000
     4  C   -0.001199  -0.000075   0.000001  -0.000000   0.000040   0.000000
     5  C    0.001237   0.000149   0.000001  -0.000003  -0.000000  -0.000000
     6  N   -0.000383  -0.000489  -0.000077  -0.000117  -0.000030   0.000006
     7  C   -0.036791  -0.042488   0.004603  -0.004843   0.000577  -0.000128
     8  H    0.004353  -0.002110  -0.000076   0.003551   0.000034  -0.000102
     9  C    0.390197   0.399579  -0.036370  -0.046973  -0.001956   0.004389
    10  C   -0.031947  -0.035287   0.402479   0.397785  -0.039013  -0.038425
    11  C   -0.002204   0.003928  -0.034851  -0.045402   0.399157   0.402378
    12  C    0.000692  -0.000415   0.004341  -0.000997  -0.037817  -0.038683
    13  C   -0.007562   0.004327  -0.000429   0.000038  -0.007510   0.004696
    14  H    0.000104  -0.000065   0.000010  -0.000055   0.000002  -0.000056
    15  N    0.007727   0.000127  -0.000040   0.000019   0.008568   0.000137
    16  C    0.003054  -0.000036   0.000004  -0.000002   0.000108   0.000007
    17  H    0.000016   0.000002  -0.000000   0.000000   0.000000   0.000000
    18  H   -0.000148   0.000828   0.000001   0.000001   0.000000  -0.000000
    19  H    0.504121  -0.024732  -0.002786   0.003950   0.001508  -0.000066
    20  H   -0.024732   0.541047  -0.002684  -0.002994  -0.000045  -0.000083
    21  H   -0.002786  -0.002684   0.523497  -0.027354  -0.002897  -0.002237
    22  H    0.003950  -0.002994  -0.027354   0.571061   0.004135  -0.003657
    23  H    0.001508  -0.000045  -0.002897   0.004135   0.498726  -0.025416
    24  H   -0.000066  -0.000083  -0.002237  -0.003657  -0.025416   0.537706
    25  H   -0.000029   0.000012  -0.000086  -0.000080  -0.002323  -0.002282
    26  H    0.000019  -0.000030  -0.000081   0.002376   0.004064  -0.003042
    27  H    0.000083   0.000000  -0.000000   0.000000  -0.000036  -0.000000
              25         26         27
     1  O    0.000000   0.000000   0.006121
     2  N   -0.000000  -0.000000  -0.000898
     3  O    0.000000   0.000000   0.000014
     4  C    0.000024   0.000007  -0.063553
     5  C   -0.000000  -0.000002   0.002262
     6  N   -0.000091  -0.000061   0.000021
     7  C    0.005154  -0.003895  -0.000414
     8  H   -0.000027   0.001696   0.000009
     9  C   -0.000420   0.000963  -0.000059
    10  C    0.004183  -0.002214   0.000007
    11  C   -0.033372  -0.041489   0.000012
    12  C    0.398290   0.396776  -0.000035
    13  C   -0.035542  -0.047478   0.005092
    14  H   -0.002809  -0.001052  -0.000176
    15  N    0.000382   0.004904  -0.040567
    16  C   -0.000023  -0.000060   0.403816
    17  H   -0.000000   0.000000  -0.000078
    18  H    0.000002  -0.000000   0.000001
    19  H   -0.000029   0.000019   0.000083
    20  H    0.000012  -0.000030   0.000000
    21  H   -0.000086  -0.000081  -0.000000
    22  H   -0.000080   0.002376   0.000000
    23  H   -0.002323   0.004064  -0.000036
    24  H   -0.002282  -0.003042  -0.000000
    25  H    0.505654  -0.024033  -0.000013
    26  H   -0.024033   0.562113   0.000001
    27  H   -0.000013   0.000001   0.439405
 Mulliken charges:
               1
     1  O   -0.473561
     2  N    0.485791
     3  O   -0.511643
     4  C    0.007445
     5  C    0.191679
     6  N   -0.778533
     7  C    0.059864
     8  H    0.180754
     9  C   -0.301790
    10  C   -0.328118
    11  C   -0.321584
    12  C   -0.306795
    13  C   -0.036893
    14  H    0.190111
    15  N   -0.510198
    16  C    0.121889
    17  H    0.296965
    18  H    0.405788
    19  H    0.190790
    20  H    0.161534
    21  H    0.175032
    22  H    0.149561
    23  H    0.200123
    24  H    0.164859
    25  H    0.187428
    26  H    0.150518
    27  H    0.248986
 Sum of Mulliken charges =  -0.00000
 Mulliken charges with hydrogens summed into heavy atoms:
               1
     1  O   -0.473561
     2  N    0.485791
     3  O   -0.511643
     4  C    0.007445
     5  C    0.488644
     6  N   -0.372746
     7  C    0.240618
     9  C    0.050533
    10  C   -0.003525
    11  C    0.043398
    12  C    0.031151
    13  C    0.153218
    15  N   -0.510198
    16  C    0.370874
 Electronic spatial extent (au):  <R**2>=           2991.8614
 Charge=             -0.0000 electrons
 Dipole moment (field-independent basis, Debye):
    X=              5.6029    Y=              4.8844    Z=              1.2540  Tot=              7.5381
 Quadrupole moment (field-independent basis, Debye-Ang):
   XX=           -106.6768   YY=            -79.1238   ZZ=            -81.4086
   XY=             -1.9429   XZ=             -0.0159   YZ=              1.8155
 Traceless Quadrupole moment (field-independent basis, Debye-Ang):
   XX=            -17.6071   YY=              9.9460   ZZ=              7.6611
   XY=             -1.9429   XZ=             -0.0159   YZ=              1.8155
 Octapole moment (field-independent basis, Debye-Ang**2):
  XXX=             94.3835  YYY=             36.7691  ZZZ=             -1.8019  XYY=             -4.4817
  XXY=              9.8872  XXZ=              4.2025  XZZ=             -9.9072  YZZ=             -0.4525
  YYZ=              7.7635  XYZ=              0.1887
 Hexadecapole moment (field-independent basis, Debye-Ang**3):
 XXXX=          -3372.3912 YYYY=           -599.2514 ZZZZ=           -303.0851 XXXY=            -21.8771
 XXXZ=             -8.5498 YYYX=             -9.7480 YYYZ=             24.9747 ZZZX=              4.2821
 ZZZY=              7.4663 XXYY=           -625.1534 XXZZ=           -521.1083 YYZZ=           -157.0471
 XXYZ=             -4.0348 YYXZ=              2.7145 ZZXY=              4.8199
 N-N= 9.328980911877D+02 E-N=-3.412557707493D+03  KE= 6.597016279756D+02
 Unable to Open any file for archive entry.
 1\1\GINC-LOTUS\FOpt\RMP2-FC\6-31G(d)\C9H13N3O2\ALEXEY\01-Jul-2023\0\\#
 MP2/6-31G* SCF=Tight Opt=(ModRedun, MaxCycle=20 ) NoSymm\\MolName:\\0,
 1\O,-3.4827911805,-1.3947478679,-0.3530877154\N,-3.0958579183,-0.23341
 84162,-0.1057372234\O,-3.8809935406,0.7211976581,0.072045275\C,-1.6982
 851937,-0.0223510707,-0.0129450046\C,-1.3050712889,1.2618948564,0.2720
 520579\N,-0.060493516,1.7484481782,0.3804283362\C,1.2032051598,1.02323
 84621,0.3560354647\H,1.8488795945,1.5539701638,1.072051068\C,1.9094009
 505,1.0336916966,-0.9982215501\C,3.3072031416,0.4267788209,-0.83002371
 98\C,3.257296523,-0.9689671234,-0.2026396086\C,2.4588836893,-0.9789348
 934,1.1028232835\C,1.0505434871,-0.4233300876,0.8638165939\H,0.4725543
 343,-0.4009661824,1.80134101\N,0.4046804423,-1.3132344358,-0.095635141
 2\C,-0.8406293268,-1.1317105441,-0.3951510059\H,-2.0966956911,1.991398
 2987,0.4187912309\H,-0.0006360439,2.7354381867,0.6021391706\H,1.316951
 6107,0.4562259442,-1.7157602091\H,1.9768304946,2.0615160226,-1.3760537
 651\H,3.8135209751,0.3879045475,-1.8012673784\H,3.9055270548,1.0934081
 705,-0.1927461785\H,2.7814140175,-1.6660092197,-0.899454222\H,4.275910
 3429,-1.3325013178,-0.022543089\H,2.3712183532,-2.0008691582,1.4861741
 702\H,2.967638974,-0.3819879263,1.8723653195\H,-1.2972054454,-1.882092
 7625,-1.0397771693\\Version=ES64L-G16RevC.02\HF=-661.3005742\MP2=-663.
 3338916\RMSD=7.585e-09\RMSF=3.530e-03\Dipole=2.0507379,1.7165396,0.461
 4628\PG=C01 [X(C9H13N3O2)]\\@
 The archive entry for this job was punched.


 ... A MOLECULAR SYSTEM ... (PASSES) ... FROM ONE STATE OF EQUILIBRIUM 
 TO ANOTHER ... BY MEANS OF ALL POSSIBLE INTERMEDIATE PATHS, 
 BUT THE PATH MOST ECONOMICAL OF ENERGY WILL BE THE MORE OFTEN TRAVELED.

                      -- HENRY EYRING, 1945
 Job cpu time:       0 days  1 hours  3 minutes 45.6 seconds.
 Elapsed time:       0 days  0 hours 19 minutes  8.2 seconds.
 File lengths (MBytes):  RWF=     31 Int=      0 D2E=      0 Chk=      7 Scr=      1
 Normal termination of Gaussian 16 at Sat Jul  1 07:30:46 2023.
