 Entering Gaussian System, Link 0=g16
 Initial command:
 /home/alexey/programs//g16/l1.exe "/home/alexey/tmp/Gau-1275850.inp" -scrdir="/home/alexey/tmp/"
 Entering Link 1 = /home/alexey/programs//g16/l1.exe PID=   1275852.
  
 Copyright (c) 1988-2021, Gaussian, Inc.  All Rights Reserved.
  
 This is part of the Gaussian(R) 16 program.  It is based on
 the Gaussian(R) 09 system (copyright 2009, Gaussian, Inc.),
 the Gaussian(R) 03 system (copyright 2003, Gaussian, Inc.),
 the Gaussian(R) 98 system (copyright 1998, Gaussian, Inc.),
 the Gaussian(R) 94 system (copyright 1995, Gaussian, Inc.),
 the Gaussian 92(TM) system (copyright 1992, Gaussian, Inc.),
 the Gaussian 90(TM) system (copyright 1990, Gaussian, Inc.),
 the Gaussian 88(TM) system (copyright 1988, Gaussian, Inc.),
 the Gaussian 86(TM) system (copyright 1986, Carnegie Mellon
 University), and the Gaussian 82(TM) system (copyright 1983,
 Carnegie Mellon University). Gaussian is a federally registered
 trademark of Gaussian, Inc.
  
 This software contains proprietary and confidential information,
 including trade secrets, belonging to Gaussian, Inc.
  
 This software is provided under written license and may be
 used, copied, transmitted, or stored only in accord with that
 written license.
  
 The following legend is applicable only to US Government
 contracts under FAR:
  
                    RESTRICTED RIGHTS LEGEND
  
 Use, reproduction and disclosure by the US Government is
 subject to restrictions as set forth in subparagraphs (a)
 and (c) of the Commercial Computer Software - Restricted
 Rights clause in FAR 52.227-19.
  
 Gaussian, Inc.
 340 Quinnipiac St., Bldg. 40, Wallingford CT 06492
  
  
 ---------------------------------------------------------------
 Warning -- This program may not be used in any manner that
 competes with the business of Gaussian, Inc. or will provide
 assistance to any competitor of Gaussian, Inc.  The licensee
 of this program is prohibited from giving any competitor of
 Gaussian, Inc. access to this program.  By using this program,
 the user acknowledges that Gaussian, Inc. is engaged in the
 business of creating and licensing software in the field of
 computational chemistry and represents and warrants to the
 licensee that it is not a competitor of Gaussian, Inc. and that
 it will not use this program in any manner prohibited above.
 ---------------------------------------------------------------
  

 Cite this work as:
 Gaussian 16, Revision C.02,
 M. J. Frisch, G. W. Trucks, H. B. Schlegel, G. E. Scuseria, 
 M. A. Robb, J. R. Cheeseman, G. Scalmani, V. Barone, 
 G. A. Petersson, H. Nakatsuji, X. Li, M. Caricato, A. V. Marenich, 
 J. Bloino, B. G. Janesko, R. Gomperts, B. Mennucci, H. P. Hratchian, 
 J. V. Ortiz, A. F. Izmaylov, J. L. Sonnenberg, D. Williams-Young, 
 F. Ding, F. Lipparini, F. Egidi, J. Goings, B. Peng, A. Petrone, 
 T. Henderson, D. Ranasinghe, V. G. Zakrzewski, J. Gao, N. Rega, 
 G. Zheng, W. Liang, M. Hada, M. Ehara, K. Toyota, R. Fukuda, 
 J. Hasegawa, M. Ishida, T. Nakajima, Y. Honda, O. Kitao, H. Nakai, 
 T. Vreven, K. Throssell, J. A. Montgomery, Jr., J. E. Peralta, 
 F. Ogliaro, M. J. Bearpark, J. J. Heyd, E. N. Brothers, K. N. Kudin, 
 V. N. Staroverov, T. A. Keith, R. Kobayashi, J. Normand, 
 K. Raghavachari, A. P. Rendell, J. C. Burant, S. S. Iyengar, 
 J. Tomasi, M. Cossi, J. M. Millam, M. Klene, C. Adamo, R. Cammi, 
 J. W. Ochterski, R. L. Martin, K. Morokuma, O. Farkas, 
 J. B. Foresman, and D. J. Fox, Gaussian, Inc., Wallingford CT, 2019.
 
 ******************************************
 Gaussian 16:  ES64L-G16RevC.02  7-Dec-2021
                 1-Jul-2023 
 ******************************************
 %mem=8GB
 %NPROCS=4
 Will use up to    4 processors via shared memory.
 %NoSave
 ---------------------------------------------------------
 #MP2/6-31G* SCF=Tight Opt=(ModRedun, MaxCycle=20 ) NoSymm
 ---------------------------------------------------------
 1/6=20,18=120,19=15,38=1/1,3;
 2/9=110,12=2,15=1,17=6,18=5,40=1/2;
 3/5=1,6=6,7=1,11=9,25=1,30=1,71=1/1,2,3;
 4//1;
 5/5=2,32=2,38=5/2;
 8/6=4,10=2/1;
 9/15=2,16=-3/6;
 10/5=1,31=1/2;
 6/7=2,8=2,9=2,10=2/1;
 7/12=2,30=1/1,2,3,16;
 1/6=20,18=20,19=15/3(2);
 2/9=110,15=1/2;
 99//99;
 2/9=110,15=1/2;
 3/5=1,6=6,7=1,11=9,25=1,30=1,71=1/1,2,3;
 4/5=5,16=3,69=1/1;
 5/5=2,32=2,38=5/2;
 8/6=4,10=2/1;
 9/15=2,16=-3/6;
 10/5=1,31=1/2;
 7/12=2,30=1/1,2,3,16;
 1/6=20,18=20,19=15/3(-8);
 2/9=110,15=1/2;
 6/7=2,8=2,9=2,10=2/1;
 99/9=10/99;
 --------
 MolName:
 --------
 Symbolic Z-matrix:
 Charge =  0 Multiplicity = 1
 8                    0    -3.56229  -1.45247  -0.14176 
 7                    0    -3.20139  -0.28561   0.0141 
 8                    0    -3.99858   0.64239   0.16989 
 6                    0    -1.77806   0.00492  -0.03955 
 6                    0    -1.37792   1.31178   0.28192 
 7                    0    -0.08817   1.77026   0.36596 
 6                    0     1.19011   0.99678   0.34844 
 1                    0     1.84725   1.49377   1.10874 
 6                    0     1.96817   1.04767  -0.9901 
 6                    0     3.37698   0.45813  -0.78719 
 6                    0     3.30593  -0.95829  -0.19494 
 6                    0     2.44458  -0.99143   1.08609 
 6                    0     1.01148  -0.45093   0.82735 
 1                    0     0.45435  -0.49006   1.79275 
 7                    0     0.36251  -1.31484  -0.16046 
 6                    0    -0.87557  -1.10392  -0.46773 
 1                    0    -2.15665   2.05038   0.5352 
 1                    0     0.14153   2.74909   0.17806 
 1                    0     1.42538   0.47317  -1.77061 
 1                    0     2.06037   2.09786  -1.33975 
 1                    0     3.92141   0.43401  -1.7565 
 1                    0     3.94844   1.10998  -0.08922 
 1                    0     2.86437  -1.64566  -0.95148 
 1                    0     4.33077  -1.3249    0.0319 
 1                    0     2.3795   -2.03815   1.45604 
 1                    0     2.93293  -0.38305   1.87599 
 1                    0    -1.36643  -1.83789  -1.12514 
 
 The following ModRedundant input section has been read:
 B       2       4 F                                                           
 D       1       2       4      16 F                                           
 D       7      13      15      16 F                                           
 D       7       9      10      11 F                                           
 D       9      10      11      12 F                                           
 D       6       7      13      15 F                                           
 

 GradGradGradGradGradGradGradGradGradGradGradGradGradGradGradGradGradGrad
 Berny optimization.
 Initialization pass.
                           ----------------------------
                           !    Initial Parameters    !
                           ! (Angstroms and Degrees)  !
 --------------------------                            --------------------------
 ! Name  Definition              Value          Derivative Info.                !
 --------------------------------------------------------------------------------
 ! R1    R(1,2)                  1.2313         estimate D2E/DX2                !
 ! R2    R(2,3)                  1.2333         estimate D2E/DX2                !
 ! R3    R(2,4)                  1.4537         Frozen                          !
 ! R4    R(4,5)                  1.404          estimate D2E/DX2                !
 ! R5    R(4,16)                 1.4924         estimate D2E/DX2                !
 ! R6    R(5,6)                  1.3714         estimate D2E/DX2                !
 ! R7    R(5,17)                 1.1028         estimate D2E/DX2                !
 ! R8    R(6,7)                  1.4942         estimate D2E/DX2                !
 ! R9    R(6,18)                 1.0228         estimate D2E/DX2                !
 ! R10   R(7,8)                  1.1211         estimate D2E/DX2                !
 ! R11   R(7,9)                  1.5491         estimate D2E/DX2                !
 ! R12   R(7,13)                 1.5353         estimate D2E/DX2                !
 ! R13   R(9,10)                 1.5406         estimate D2E/DX2                !
 ! R14   R(9,19)                 1.1108         estimate D2E/DX2                !
 ! R15   R(9,20)                 1.1107         estimate D2E/DX2                !
 ! R16   R(10,11)                1.5369         estimate D2E/DX2                !
 ! R17   R(10,21)                1.112          estimate D2E/DX2                !
 ! R18   R(10,22)                1.1129         estimate D2E/DX2                !
 ! R19   R(11,12)                1.544          estimate D2E/DX2                !
 ! R20   R(11,23)                1.1135         estimate D2E/DX2                !
 ! R21   R(11,24)                1.1118         estimate D2E/DX2                !
 ! R22   R(12,13)                1.5533         estimate D2E/DX2                !
 ! R23   R(12,25)                1.1121         estimate D2E/DX2                !
 ! R24   R(12,26)                1.1102         estimate D2E/DX2                !
 ! R25   R(13,14)                1.1153         estimate D2E/DX2                !
 ! R26   R(13,15)                1.464          estimate D2E/DX2                !
 ! R27   R(15,16)                1.293          estimate D2E/DX2                !
 ! R28   R(16,27)                1.1008         estimate D2E/DX2                !
 ! A1    A(1,2,3)              122.6574         estimate D2E/DX2                !
 ! A2    A(1,2,4)              118.1457         estimate D2E/DX2                !
 ! A3    A(3,2,4)              119.1557         estimate D2E/DX2                !
 ! A4    A(2,4,5)              117.1692         estimate D2E/DX2                !
 ! A5    A(2,4,16)             117.0127         estimate D2E/DX2                !
 ! A6    A(5,4,16)             125.796          estimate D2E/DX2                !
 ! A7    A(4,5,6)              126.3867         estimate D2E/DX2                !
 ! A8    A(4,5,17)             118.3429         estimate D2E/DX2                !
 ! A9    A(6,5,17)             115.2221         estimate D2E/DX2                !
 ! A10   A(5,6,7)              129.1086         estimate D2E/DX2                !
 ! A11   A(5,6,18)             121.3243         estimate D2E/DX2                !
 ! A12   A(7,6,18)             107.5246         estimate D2E/DX2                !
 ! A13   A(6,7,8)              105.3089         estimate D2E/DX2                !
 ! A14   A(6,7,9)              115.0129         estimate D2E/DX2                !
 ! A15   A(6,7,13)             112.6397         estimate D2E/DX2                !
 ! A16   A(8,7,9)              106.0827         estimate D2E/DX2                !
 ! A17   A(8,7,13)             105.9422         estimate D2E/DX2                !
 ! A18   A(9,7,13)             111.036          estimate D2E/DX2                !
 ! A19   A(7,9,10)             109.4464         estimate D2E/DX2                !
 ! A20   A(7,9,19)             110.1654         estimate D2E/DX2                !
 ! A21   A(7,9,20)             110.1678         estimate D2E/DX2                !
 ! A22   A(10,9,19)            109.9669         estimate D2E/DX2                !
 ! A23   A(10,9,20)            109.1093         estimate D2E/DX2                !
 ! A24   A(19,9,20)            107.962          estimate D2E/DX2                !
 ! A25   A(9,10,11)            111.1708         estimate D2E/DX2                !
 ! A26   A(9,10,21)            109.9502         estimate D2E/DX2                !
 ! A27   A(9,10,22)            109.1482         estimate D2E/DX2                !
 ! A28   A(11,10,21)           109.7885         estimate D2E/DX2                !
 ! A29   A(11,10,22)           108.7751         estimate D2E/DX2                !
 ! A30   A(21,10,22)           107.9375         estimate D2E/DX2                !
 ! A31   A(10,11,12)           111.425          estimate D2E/DX2                !
 ! A32   A(10,11,23)           108.9921         estimate D2E/DX2                !
 ! A33   A(10,11,24)           109.8707         estimate D2E/DX2                !
 ! A34   A(12,11,23)           109.2224         estimate D2E/DX2                !
 ! A35   A(12,11,24)           109.7466         estimate D2E/DX2                !
 ! A36   A(23,11,24)           107.4941         estimate D2E/DX2                !
 ! A37   A(11,12,13)           111.6544         estimate D2E/DX2                !
 ! A38   A(11,12,25)           109.1988         estimate D2E/DX2                !
 ! A39   A(11,12,26)           109.46           estimate D2E/DX2                !
 ! A40   A(13,12,25)           109.2039         estimate D2E/DX2                !
 ! A41   A(13,12,26)           109.491          estimate D2E/DX2                !
 ! A42   A(25,12,26)           107.7483         estimate D2E/DX2                !
 ! A43   A(7,13,12)            105.8265         estimate D2E/DX2                !
 ! A44   A(7,13,14)            111.1744         estimate D2E/DX2                !
 ! A45   A(7,13,15)            113.4248         estimate D2E/DX2                !
 ! A46   A(12,13,14)           107.7264         estimate D2E/DX2                !
 ! A47   A(12,13,15)           108.4232         estimate D2E/DX2                !
 ! A48   A(14,13,15)           109.993          estimate D2E/DX2                !
 ! A49   A(13,15,16)           119.2459         estimate D2E/DX2                !
 ! A50   A(4,16,15)            129.2026         estimate D2E/DX2                !
 ! A51   A(4,16,27)            113.3949         estimate D2E/DX2                !
 ! A52   A(15,16,27)           117.3953         estimate D2E/DX2                !
 ! D1    D(1,2,4,5)           -173.3544         estimate D2E/DX2                !
 ! D2    D(1,2,4,16)             8.2584         Frozen                          !
 ! D3    D(3,2,4,5)              8.9193         estimate D2E/DX2                !
 ! D4    D(3,2,4,16)          -169.468          estimate D2E/DX2                !
 ! D5    D(2,4,5,6)            176.058          estimate D2E/DX2                !
 ! D6    D(2,4,5,17)            -1.2829         estimate D2E/DX2                !
 ! D7    D(16,4,5,6)            -5.7135         estimate D2E/DX2                !
 ! D8    D(16,4,5,17)          176.9456         estimate D2E/DX2                !
 ! D9    D(2,4,16,15)         -151.9212         estimate D2E/DX2                !
 ! D10   D(2,4,16,27)           27.0613         estimate D2E/DX2                !
 ! D11   D(5,4,16,15)           29.8478         estimate D2E/DX2                !
 ! D12   D(5,4,16,27)         -151.1697         estimate D2E/DX2                !
 ! D13   D(4,5,6,7)            -10.1393         estimate D2E/DX2                !
 ! D14   D(4,5,6,18)           151.4863         estimate D2E/DX2                !
 ! D15   D(17,5,6,7)           167.2738         estimate D2E/DX2                !
 ! D16   D(17,5,6,18)          -31.1006         estimate D2E/DX2                !
 ! D17   D(5,6,7,8)           -140.1374         estimate D2E/DX2                !
 ! D18   D(5,6,7,9)            103.461          estimate D2E/DX2                !
 ! D19   D(5,6,7,13)           -25.1312         estimate D2E/DX2                !
 ! D20   D(18,6,7,8)            56.2651         estimate D2E/DX2                !
 ! D21   D(18,6,7,9)           -60.1366         estimate D2E/DX2                !
 ! D22   D(18,6,7,13)          171.2713         estimate D2E/DX2                !
 ! D23   D(6,7,9,10)           168.7498         estimate D2E/DX2                !
 ! D24   D(6,7,9,19)           -70.223          estimate D2E/DX2                !
 ! D25   D(6,7,9,20)            48.7808         estimate D2E/DX2                !
 ! D26   D(8,7,9,10)            52.7904         estimate D2E/DX2                !
 ! D27   D(8,7,9,19)           173.8176         estimate D2E/DX2                !
 ! D28   D(8,7,9,20)           -67.1786         estimate D2E/DX2                !
 ! D29   D(13,7,9,10)          -61.864          estimate D2E/DX2                !
 ! D30   D(13,7,9,19)           59.1632         estimate D2E/DX2                !
 ! D31   D(13,7,9,20)          178.1669         estimate D2E/DX2                !
 ! D32   D(6,7,13,12)         -166.2403         estimate D2E/DX2                !
 ! D33   D(6,7,13,14)          -49.5487         estimate D2E/DX2                !
 ! D34   D(6,7,13,15)           75.0217         Frozen                          !
 ! D35   D(8,7,13,12)          -51.6172         estimate D2E/DX2                !
 ! D36   D(8,7,13,14)           65.0744         estimate D2E/DX2                !
 ! D37   D(8,7,13,15)         -170.3551         estimate D2E/DX2                !
 ! D38   D(9,7,13,12)           63.1249         estimate D2E/DX2                !
 ! D39   D(9,7,13,14)          179.8165         estimate D2E/DX2                !
 ! D40   D(9,7,13,15)          -55.613          estimate D2E/DX2                !
 ! D41   D(7,9,10,11)           54.8122         Frozen                          !
 ! D42   D(7,9,10,21)          176.6024         estimate D2E/DX2                !
 ! D43   D(7,9,10,22)          -65.1771         estimate D2E/DX2                !
 ! D44   D(19,9,10,11)         -66.3352         estimate D2E/DX2                !
 ! D45   D(19,9,10,21)          55.455          estimate D2E/DX2                !
 ! D46   D(19,9,10,22)         173.6755         estimate D2E/DX2                !
 ! D47   D(20,9,10,11)         175.4278         estimate D2E/DX2                !
 ! D48   D(20,9,10,21)         -62.782          estimate D2E/DX2                !
 ! D49   D(20,9,10,22)          55.4386         estimate D2E/DX2                !
 ! D50   D(9,10,11,12)         -52.8221         Frozen                          !
 ! D51   D(9,10,11,23)          67.7812         estimate D2E/DX2                !
 ! D52   D(9,10,11,24)        -174.6749         estimate D2E/DX2                !
 ! D53   D(21,10,11,12)       -174.7064         estimate D2E/DX2                !
 ! D54   D(21,10,11,23)        -54.1031         estimate D2E/DX2                !
 ! D55   D(21,10,11,24)         63.4408         estimate D2E/DX2                !
 ! D56   D(22,10,11,12)         67.3883         estimate D2E/DX2                !
 ! D57   D(22,10,11,23)       -172.0084         estimate D2E/DX2                !
 ! D58   D(22,10,11,24)        -54.4645         estimate D2E/DX2                !
 ! D59   D(10,11,12,13)         56.5415         estimate D2E/DX2                !
 ! D60   D(10,11,12,25)        177.4053         estimate D2E/DX2                !
 ! D61   D(10,11,12,26)        -64.8598         estimate D2E/DX2                !
 ! D62   D(23,11,12,13)        -63.9266         estimate D2E/DX2                !
 ! D63   D(23,11,12,25)         56.9373         estimate D2E/DX2                !
 ! D64   D(23,11,12,26)        174.6721         estimate D2E/DX2                !
 ! D65   D(24,11,12,13)        178.466          estimate D2E/DX2                !
 ! D66   D(24,11,12,25)        -60.6701         estimate D2E/DX2                !
 ! D67   D(24,11,12,26)         57.0648         estimate D2E/DX2                !
 ! D68   D(11,12,13,7)         -60.1859         estimate D2E/DX2                !
 ! D69   D(11,12,13,14)       -179.183          estimate D2E/DX2                !
 ! D70   D(11,12,13,15)         61.8166         estimate D2E/DX2                !
 ! D71   D(25,12,13,7)         178.9532         estimate D2E/DX2                !
 ! D72   D(25,12,13,14)         59.9561         estimate D2E/DX2                !
 ! D73   D(25,12,13,15)        -59.0443         estimate D2E/DX2                !
 ! D74   D(26,12,13,7)          61.1974         estimate D2E/DX2                !
 ! D75   D(26,12,13,14)        -57.7998         estimate D2E/DX2                !
 ! D76   D(26,12,13,15)       -176.8001         estimate D2E/DX2                !
 ! D77   D(7,13,15,16)         -67.16           Frozen                          !
 ! D78   D(12,13,15,16)        175.6079         estimate D2E/DX2                !
 ! D79   D(14,13,15,16)         58.0468         estimate D2E/DX2                !
 ! D80   D(13,15,16,4)           5.7328         estimate D2E/DX2                !
 ! D81   D(13,15,16,27)       -173.2154         estimate D2E/DX2                !
 --------------------------------------------------------------------------------
 Trust Radius=3.00D-01 FncErr=1.00D-07 GrdErr=1.00D-07 EigMax=2.50D+02 EigMin=1.00D-04
 Number of steps in this run=     20 maximum allowed number of steps=    162.
 GradGradGradGradGradGradGradGradGradGradGradGradGradGradGradGradGradGrad

                          Input orientation:                          
 ---------------------------------------------------------------------
 Center     Atomic      Atomic             Coordinates (Angstroms)
 Number     Number       Type             X           Y           Z
 ---------------------------------------------------------------------
      1          8           0       -3.562290   -1.452470   -0.141760
      2          7           0       -3.201390   -0.285610    0.014100
      3          8           0       -3.998580    0.642390    0.169890
      4          6           0       -1.778060    0.004920   -0.039550
      5          6           0       -1.377920    1.311780    0.281920
      6          7           0       -0.088170    1.770260    0.365960
      7          6           0        1.190110    0.996780    0.348440
      8          1           0        1.847250    1.493770    1.108740
      9          6           0        1.968170    1.047670   -0.990100
     10          6           0        3.376980    0.458130   -0.787190
     11          6           0        3.305930   -0.958290   -0.194940
     12          6           0        2.444580   -0.991430    1.086090
     13          6           0        1.011480   -0.450930    0.827350
     14          1           0        0.454350   -0.490060    1.792750
     15          7           0        0.362510   -1.314840   -0.160460
     16          6           0       -0.875570   -1.103920   -0.467730
     17          1           0       -2.156650    2.050380    0.535200
     18          1           0        0.141530    2.749090    0.178060
     19          1           0        1.425380    0.473170   -1.770610
     20          1           0        2.060370    2.097860   -1.339750
     21          1           0        3.921410    0.434010   -1.756500
     22          1           0        3.948440    1.109980   -0.089220
     23          1           0        2.864370   -1.645660   -0.951480
     24          1           0        4.330770   -1.324900    0.031900
     25          1           0        2.379500   -2.038150    1.456040
     26          1           0        2.932930   -0.383050    1.875990
     27          1           0       -1.366430   -1.837890   -1.125140
 ---------------------------------------------------------------------
                    Distance matrix (angstroms):
                    1          2          3          4          5
     1  O    0.000000
     2  N    1.231302   0.000000
     3  O    2.162386   1.233275   0.000000
     4  C    2.306059   1.453669   2.319686   0.000000
     5  C    3.548529   2.438939   2.707119   1.404043   0.000000
     6  N    4.765845   3.747338   4.074536   2.477215   1.371394
     7  C    5.368839   4.587110   5.203842   3.153467   2.588132
     8  H    6.285476   5.463808   5.981640   4.083885   3.334437
     9  C    6.128325   5.432348   6.091957   4.003138   3.589444
    10  C    7.226371   6.668596   7.439680   5.228652   4.947806
    11  C    6.886181   6.545335   7.486731   5.176763   5.226764
    12  C    6.148387   5.790019   6.709926   4.482239   4.534641
    13  C    4.781384   4.293830   5.169942   2.956493   3.018919
    14  H    4.560916   4.070606   4.872854   2.930185   2.981015
    15  N    3.927257   3.713646   4.791554   2.517623   3.181812
    16  C    2.728774   2.512216   3.634467   1.492432   2.578747
    17  H    3.834587   2.611489   2.347039   2.158141   1.102770
    18  H    5.610140   4.517898   4.645295   3.355987   2.094129
    19  H    5.589105   5.016766   5.763117   3.671220   3.574162
    20  H    6.756799   5.932955   6.411574   4.561191   3.881955
    21  H    7.884920   7.374765   8.153566   5.967914   5.745305
    22  H    7.935992   7.285493   7.964980   5.832360   5.343087
    23  H    6.480349   6.290908   7.320705   5.010807   5.316460
    24  H    7.896001   7.603544   8.559634   6.252306   6.293150
    25  H    6.180684   6.024693   7.037001   4.867877   5.169023
    26  H    6.884973   6.411397   7.211667   5.100318   4.898667
    27  H    2.436675   2.659797   3.841498   2.178048   3.449691
                    6          7          8          9         10
     6  N    0.000000
     7  C    1.494181   0.000000
     8  H    2.091416   1.121110   0.000000
     9  C    2.567016   1.549082   2.149129   0.000000
    10  C    3.880555   2.522340   2.647107   1.540609   0.000000
    11  C    4.390844   2.931596   3.136866   2.538849   1.536897
    12  C    3.815802   2.463900   2.556078   2.948807   2.545540
    13  C    2.521070   1.535294   2.135310   2.542476   3.004783
    14  H    2.727472   2.199561   2.518655   3.521437   4.012097
    15  N    3.161973   2.507486   3.421054   2.974542   3.552920
    16  C    3.094503   3.057140   4.080073   3.604035   4.541612
    17  H    2.094211   3.513653   4.082888   4.510666   5.908048
    18  H    1.022828   2.049180   2.313325   2.756092   4.080238
    19  H    2.922021   2.195425   3.083870   1.110796   2.185425
    20  H    2.762787   2.195385   2.530899   1.110700   2.174281
    21  H    4.729390   3.493921   3.692537   2.186114   1.112002
    22  H    4.115505   2.795129   2.448959   2.176450   1.112941
    23  H    4.703366   3.387540   3.890380   2.838784   2.171565
    24  H    5.405427   3.918436   3.907986   3.500779   2.181701
    25  H    4.667082   3.442706   3.588644   3.959176   3.501209
    26  H    4.005494   2.697177   2.299962   3.345474   2.827948
    27  H    4.108050   4.091783   5.139836   4.411831   5.280706
                   11         12         13         14         15
    11  C    0.000000
    12  C    1.544040   0.000000
    13  C    2.562614   1.553339   0.000000
    14  H    3.507372   2.170658   1.115313   0.000000
    15  N    2.965137   2.448162   1.463992   2.122198   0.000000
    16  C    4.192918   3.667480   2.380039   2.693563   1.292959
    17  H    6.278931   5.543231   4.047092   3.853906   4.260847
    18  H    4.888479   4.485538   3.379130   3.632791   4.083988
    19  H    2.840472   3.368168   2.788310   3.816837   2.630448
    20  H    3.493145   3.946648   3.506112   4.369117   3.989984
    21  H    2.180776   3.506169   3.990876   5.046938   4.274528
    22  H    2.168349   2.838815   3.449967   4.279089   4.329402
    23  H    1.113466   2.180810   2.832811   3.830719   2.644704
    24  H    1.111826   2.186374   3.523386   4.338684   3.972932
    25  H    2.179474   1.112080   2.187692   2.493223   2.684120
    26  H    2.181463   1.110204   2.190028   2.482285   3.409167
    27  H    4.844576   4.486628   3.374956   3.694045   2.047785
                   16         17         18         19         20
    16  C    0.000000
    17  H    3.549175   0.000000
    18  H    4.036982   2.428451   0.000000
    19  H    3.078811   4.542608   3.259662   0.000000
    20  H    4.430751   4.615295   2.531757   1.796794   0.000000
    21  H    5.199728   6.693830   4.836281   2.496377   2.530918
    22  H    5.321249   6.208573   4.153394   3.098133   2.470737
    23  H    3.809809   6.409491   5.291838   2.689072   3.848521
    24  H    5.234925   7.330242   5.845382   3.863080   4.330292
    25  H    3.894760   6.175814   5.436857   4.198612   5.002486
    26  H    4.529608   5.798545   4.526056   4.037761   4.154186
    27  H    1.100838   4.301142   5.001266   3.681281   5.222944
                   21         22         23         24         25
    21  H    0.000000
    22  H    1.799302   0.000000
    23  H    2.467877   3.084194   0.000000
    24  H    2.541597   2.467689   1.794506   0.000000
    25  H    4.336989   3.841891   2.487026   2.518800   0.000000
    26  H    3.852228   2.668792   3.097333   2.498341   1.794993
    27  H    5.789767   6.165299   4.238724   5.836094   4.553525
                   26         27
    26  H    0.000000
    27  H    5.441308   0.000000
 Symmetry turned off by external request.
 Stoichiometry    C9H13N3O2
 Framework group  C1[X(C9H13N3O2)]
 Deg. of freedom    75
 Full point group                 C1      NOp   1
 Rotational constants (GHZ):           1.6824565           0.4056251           0.3595207
 Standard basis: 6-31G(d) (6D, 7F)
   236 basis functions,   444 primitive gaussians,   236 cartesian basis functions
    52 alpha electrons       52 beta electrons
       nuclear repulsion energy       921.0132091093 Hartrees.
 NAtoms=   27 NActive=   27 NUniq=   27 SFac= 1.00D+00 NAtFMM=   60 NAOKFM=F Big=F
 Integral buffers will be    131072 words long.
 Raffenetti 1 integral format.
 Two-electron integral symmetry is turned off.
 One-electron integrals computed using PRISM.
 NBasis=   236 RedAO= T EigKep=  1.22D-03  NBF=   236
 NBsUse=   236 1.00D-06 EigRej= -1.00D+00 NBFU=   236
 ExpMin= 1.61D-01 ExpMax= 5.48D+03 ExpMxC= 8.25D+02 IAcc=3 IRadAn=         5 AccDes= 0.00D+00
 Harris functional with IExCor=  205 and IRadAn=       5 diagonalized for initial guess.
 HarFok:  IExCor=  205 AccDes= 0.00D+00 IRadAn=         5 IDoV= 1 UseB2=F ITyADJ=14
 ICtDFT=  3500011 ScaDFX=  1.000000  1.000000  1.000000  1.000000
 FoFCou: FMM=F IPFlag=           0 FMFlag=      100000 FMFlg1=           0
         NFxFlg=           0 DoJE=T BraDBF=F KetDBF=T FulRan=T
         wScrn=  0.000000 ICntrl=       500 IOpCl=  0 I1Cent=   200000004 NGrid=           0
         NMat0=    1 NMatS0=      1 NMatT0=    0 NMatD0=    1 NMtDS0=    0 NMtDT0=    0
 Symmetry not used in FoFCou.
 Keep R1 ints in memory in canonical form, NReq=397720213.
 Requested convergence on RMS density matrix=1.00D-08 within 128 cycles.
 Requested convergence on MAX density matrix=1.00D-06.
 Requested convergence on             energy=1.00D-06.
 No special actions if energy rises.
 SCF Done:  E(RHF) =  -661.284511021     A.U. after   16 cycles
            NFock= 16  Conv=0.98D-08     -V/T= 2.0035
 ExpMin= 1.61D-01 ExpMax= 5.48D+03 ExpMxC= 8.25D+02 IAcc=3 IRadAn=         5 AccDes= 0.00D+00
 HarFok:  IExCor=  205 AccDes= 0.00D+00 IRadAn=         5 IDoV=-2 UseB2=F ITyADJ=14
 ICtDFT= 12500011 ScaDFX=  1.000000  1.000000  1.000000  1.000000
 Range of M.O.s used for correlation:    15   236
 NBasis=   236 NAE=    52 NBE=    52 NFC=    14 NFV=     0
 NROrb=    222 NOA=    38 NOB=    38 NVA=   184 NVB=   184
 Fully direct method using O(ONN) memory.
 JobTyp=1 Pass  1:  I=  15 to  52 NPSUse=  4 ParTrn=T ParDer=T DoDerP=T.
 Spin components of T(2) and E(2):
     alpha-alpha T2 =       0.9171326093D-01 E2=     -0.2716897515D+00
     alpha-beta  T2 =       0.4977422929D+00 E2=     -0.1491853162D+01
     beta-beta   T2 =       0.9171326093D-01 E2=     -0.2716897515D+00
 ANorm=    0.1296598941D+01
 E2 =    -0.2035232665D+01 EUMP2 =    -0.66331974368593D+03
          IDoAtm=111111111111111111111111111
          Differentiating once with respect to electric field.
                with respect to dipole field.
          Differentiating once with respect to nuclear coordinates.
 Keep R1 ints in memory in canonical form, NReq=397723379.
          There are     1 degrees of freedom in the 1st order CPHF.  IDoFFX=0 NUNeed=     1.
 LinEq1:  Iter=  0 NonCon=     1 RMS=4.59D-03 Max=1.07D-01 NDo=     1
 AX will form     1 AO Fock derivatives at one time.
 LinEq1:  Iter=  1 NonCon=     1 RMS=1.54D-03 Max=2.88D-02 NDo=     1
 LinEq1:  Iter=  2 NonCon=     1 RMS=6.37D-04 Max=1.68D-02 NDo=     1
 LinEq1:  Iter=  3 NonCon=     1 RMS=2.96D-04 Max=1.05D-02 NDo=     1
 LinEq1:  Iter=  4 NonCon=     1 RMS=9.19D-05 Max=2.18D-03 NDo=     1
 LinEq1:  Iter=  5 NonCon=     1 RMS=3.95D-05 Max=2.08D-03 NDo=     1
 LinEq1:  Iter=  6 NonCon=     1 RMS=1.56D-05 Max=5.30D-04 NDo=     1
 LinEq1:  Iter=  7 NonCon=     1 RMS=5.92D-06 Max=8.51D-05 NDo=     1
 LinEq1:  Iter=  8 NonCon=     1 RMS=2.29D-06 Max=5.51D-05 NDo=     1
 LinEq1:  Iter=  9 NonCon=     1 RMS=8.31D-07 Max=2.47D-05 NDo=     1
 LinEq1:  Iter= 10 NonCon=     1 RMS=4.17D-07 Max=1.61D-05 NDo=     1
 LinEq1:  Iter= 11 NonCon=     1 RMS=1.51D-07 Max=5.72D-06 NDo=     1
 LinEq1:  Iter= 12 NonCon=     1 RMS=5.32D-08 Max=8.23D-07 NDo=     1
 LinEq1:  Iter= 13 NonCon=     1 RMS=1.69D-08 Max=3.31D-07 NDo=     1
 LinEq1:  Iter= 14 NonCon=     1 RMS=5.65D-09 Max=1.52D-07 NDo=     1
 LinEq1:  Iter= 15 NonCon=     1 RMS=2.16D-09 Max=4.81D-08 NDo=     1
 LinEq1:  Iter= 16 NonCon=     1 RMS=8.53D-10 Max=1.48D-08 NDo=     1
 LinEq1:  Iter= 17 NonCon=     1 RMS=2.73D-10 Max=4.75D-09 NDo=     1
 LinEq1:  Iter= 18 NonCon=     1 RMS=9.13D-11 Max=1.26D-09 NDo=     1
 LinEq1:  Iter= 19 NonCon=     0 RMS=2.89D-11 Max=4.87D-10 NDo=     1
 Linear equations converged to 1.000D-10 1.000D-09 after    19 iterations.
 End of Minotr F.D. properties file   721 does not exist.
 End of Minotr F.D. properties file   722 does not exist.
 End of Minotr F.D. properties file   788 does not exist.

 **********************************************************************

            Population analysis using the SCF Density.

 **********************************************************************

 Alpha  occ. eigenvalues --  -20.59272 -20.58722 -15.84899 -15.63592 -15.56942
 Alpha  occ. eigenvalues --  -11.36167 -11.30451 -11.30194 -11.29647 -11.27756
 Alpha  occ. eigenvalues --  -11.24727 -11.23949 -11.23465 -11.22910  -1.58548
 Alpha  occ. eigenvalues --   -1.37512  -1.28781  -1.22818  -1.13847  -1.09443
 Alpha  occ. eigenvalues --   -1.01911  -1.01120  -0.93989  -0.89071  -0.85031
 Alpha  occ. eigenvalues --   -0.81605  -0.78049  -0.77059  -0.74450  -0.71267
 Alpha  occ. eigenvalues --   -0.70375  -0.69718  -0.67437  -0.64399  -0.63326
 Alpha  occ. eigenvalues --   -0.61697  -0.60372  -0.57515  -0.56532  -0.54961
 Alpha  occ. eigenvalues --   -0.53588  -0.50813  -0.49304  -0.48644  -0.47819
 Alpha  occ. eigenvalues --   -0.47356  -0.46049  -0.45798  -0.43718  -0.42116
 Alpha  occ. eigenvalues --   -0.40097  -0.33943
 Alpha virt. eigenvalues --    0.06808   0.11879   0.18253   0.21455   0.23536
 Alpha virt. eigenvalues --    0.24334   0.26330   0.27731   0.28536   0.28801
 Alpha virt. eigenvalues --    0.30088   0.31075   0.31805   0.32198   0.33314
 Alpha virt. eigenvalues --    0.33703   0.34878   0.36962   0.37761   0.38979
 Alpha virt. eigenvalues --    0.40885   0.41660   0.44311   0.45185   0.45771
 Alpha virt. eigenvalues --    0.45862   0.49588   0.53200   0.57140   0.59023
 Alpha virt. eigenvalues --    0.63514   0.69075   0.69294   0.72202   0.74011
 Alpha virt. eigenvalues --    0.74971   0.75774   0.76437   0.77665   0.79319
 Alpha virt. eigenvalues --    0.80879   0.83906   0.85118   0.85381   0.88067
 Alpha virt. eigenvalues --    0.89049   0.90198   0.90692   0.91877   0.94323
 Alpha virt. eigenvalues --    0.95280   0.97112   0.98664   1.00284   1.02060
 Alpha virt. eigenvalues --    1.02847   1.05140   1.06119   1.07064   1.08325
 Alpha virt. eigenvalues --    1.09643   1.10418   1.11070   1.11965   1.13206
 Alpha virt. eigenvalues --    1.13800   1.14144   1.15283   1.16331   1.17305
 Alpha virt. eigenvalues --    1.17803   1.19849   1.21072   1.22328   1.23043
 Alpha virt. eigenvalues --    1.23497   1.24619   1.26213   1.27522   1.27627
 Alpha virt. eigenvalues --    1.29488   1.31284   1.33017   1.35285   1.40331
 Alpha virt. eigenvalues --    1.42934   1.46304   1.47555   1.48801   1.53039
 Alpha virt. eigenvalues --    1.54179   1.54939   1.60901   1.61302   1.65558
 Alpha virt. eigenvalues --    1.69003   1.71212   1.72906   1.73899   1.77629
 Alpha virt. eigenvalues --    1.77996   1.81172   1.84576   1.89544   1.92752
 Alpha virt. eigenvalues --    1.94042   1.97269   1.98191   1.99491   2.02168
 Alpha virt. eigenvalues --    2.03793   2.05745   2.06309   2.09078   2.12495
 Alpha virt. eigenvalues --    2.13008   2.13929   2.17592   2.19007   2.19652
 Alpha virt. eigenvalues --    2.20874   2.22242   2.24628   2.26040   2.27550
 Alpha virt. eigenvalues --    2.28981   2.32254   2.33396   2.35624   2.35859
 Alpha virt. eigenvalues --    2.38248   2.40327   2.41108   2.43832   2.46571
 Alpha virt. eigenvalues --    2.48802   2.50486   2.51238   2.56673   2.57437
 Alpha virt. eigenvalues --    2.60801   2.62902   2.65903   2.68375   2.69361
 Alpha virt. eigenvalues --    2.69774   2.70317   2.74388   2.76327   2.83518
 Alpha virt. eigenvalues --    2.84396   2.86582   2.90325   2.91587   2.95184
 Alpha virt. eigenvalues --    2.97635   2.98772   3.01854   3.03984   3.05684
 Alpha virt. eigenvalues --    3.06870   3.12563   3.20346   3.24013   3.27091
 Alpha virt. eigenvalues --    3.30538   3.34399   3.37703   3.49164   3.60101
 Alpha virt. eigenvalues --    4.11814   4.27241   4.31984   4.37425   4.43209
 Alpha virt. eigenvalues --    4.52936   4.59782   4.60160   4.70827   4.77689
 Alpha virt. eigenvalues --    4.97192   4.99187   5.02834   5.10160
          Condensed to atoms (all electrons):
               1          2          3          4          5          6
     1  O    8.313617   0.318242  -0.093063  -0.084468   0.003893  -0.000014
     2  N    0.318242   5.687775   0.311035   0.260133  -0.046997   0.001013
     3  O   -0.093063   0.311035   8.349511  -0.092667   0.007523   0.000566
     4  C   -0.084468   0.260133  -0.092667   5.257863   0.559043  -0.047756
     5  C    0.003893  -0.046997   0.007523   0.559043   4.673124   0.307587
     6  N   -0.000014   0.001013   0.000566  -0.047756   0.307587   7.193865
     7  C    0.000003  -0.000102   0.000002   0.003987  -0.028933   0.195022
     8  H   -0.000000   0.000003  -0.000000  -0.000169   0.002130  -0.050425
     9  C   -0.000000  -0.000004   0.000000   0.000415   0.001735  -0.055373
    10  C   -0.000000   0.000000  -0.000000  -0.000016  -0.000064   0.003305
    11  C   -0.000000  -0.000000  -0.000000  -0.000015   0.000015  -0.000155
    12  C   -0.000000   0.000002  -0.000000  -0.000085  -0.000124   0.003611
    13  C   -0.000023  -0.000062  -0.000003  -0.010864   0.000412  -0.043835
    14  H   -0.000004  -0.000074   0.000000   0.003013   0.004977  -0.005596
    15  N    0.000160   0.002016  -0.000016  -0.060933  -0.003612   0.001734
    16  C    0.002871  -0.028704   0.002096   0.316997  -0.039921  -0.001543
    17  H    0.000118  -0.003813   0.011999  -0.027398   0.377474  -0.034610
    18  H    0.000000  -0.000036   0.000008   0.000861  -0.024030   0.327801
    19  H    0.000000   0.000000   0.000000  -0.000699   0.000605   0.000662
    20  H    0.000000  -0.000000   0.000000  -0.000023   0.000030  -0.001855
    21  H   -0.000000  -0.000000   0.000000   0.000000   0.000001  -0.000058
    22  H   -0.000000   0.000000  -0.000000  -0.000000  -0.000002  -0.000098
    23  H    0.000000  -0.000000   0.000000   0.000024  -0.000000  -0.000024
    24  H    0.000000   0.000000   0.000000   0.000000  -0.000000   0.000004
    25  H    0.000000  -0.000000   0.000000   0.000019  -0.000001  -0.000071
    26  H    0.000000  -0.000000   0.000000   0.000006  -0.000001  -0.000068
    27  H    0.005219  -0.000335  -0.000014  -0.065724   0.002210   0.000057
               7          8          9         10         11         12
     1  O    0.000003  -0.000000  -0.000000  -0.000000  -0.000000  -0.000000
     2  N   -0.000102   0.000003  -0.000004   0.000000  -0.000000   0.000002
     3  O    0.000002  -0.000000   0.000000  -0.000000  -0.000000  -0.000000
     4  C    0.003987  -0.000169   0.000415  -0.000016  -0.000015  -0.000085
     5  C   -0.028933   0.002130   0.001735  -0.000064   0.000015  -0.000124
     6  N    0.195022  -0.050425  -0.055373   0.003305  -0.000155   0.003611
     7  C    5.003114   0.417330   0.340055  -0.049226  -0.007732  -0.063905
     8  H    0.417330   0.547078  -0.060566   0.001548  -0.000353  -0.002785
     9  C    0.340055  -0.060566   5.181621   0.317889  -0.053023  -0.006336
    10  C   -0.049226   0.001548   0.317889   5.126530   0.332727  -0.060093
    11  C   -0.007732  -0.000353  -0.053023   0.332727   5.123887   0.330698
    12  C   -0.063905  -0.002785  -0.006336  -0.060093   0.330698   5.136365
    13  C    0.333491  -0.040961  -0.049593  -0.001865  -0.047861   0.368333
    14  H   -0.040200  -0.000952   0.003875  -0.000393   0.003950  -0.040654
    15  N   -0.057778   0.004071  -0.012949   0.001443  -0.007699  -0.074086
    16  C   -0.002539   0.000043  -0.001005  -0.000021   0.000004   0.002507
    17  H    0.001445  -0.000015  -0.000065   0.000001   0.000000   0.000001
    18  H   -0.028240  -0.002586   0.000887  -0.000124   0.000012  -0.000135
    19  H   -0.034951   0.004102   0.385817  -0.032409  -0.002274   0.000637
    20  H   -0.041692  -0.001884   0.397277  -0.037353   0.004139  -0.000361
    21  H    0.004038  -0.000080  -0.035836   0.400221  -0.035807   0.004204
    22  H   -0.004194   0.003501  -0.045720   0.396010  -0.045621  -0.001221
    23  H    0.000423   0.000034  -0.002009  -0.040081   0.396703  -0.036623
    24  H   -0.000138  -0.000098   0.004397  -0.038465   0.400328  -0.037838
    25  H    0.004967  -0.000005  -0.000366   0.004093  -0.033918   0.395533
    26  H   -0.004449   0.001636   0.001032  -0.002395  -0.042339   0.394726
    27  H   -0.000408   0.000009  -0.000061   0.000005   0.000005  -0.000019
              13         14         15         16         17         18
     1  O   -0.000023  -0.000004   0.000160   0.002871   0.000118   0.000000
     2  N   -0.000062  -0.000074   0.002016  -0.028704  -0.003813  -0.000036
     3  O   -0.000003   0.000000  -0.000016   0.002096   0.011999   0.000008
     4  C   -0.010864   0.003013  -0.060933   0.316997  -0.027398   0.000861
     5  C    0.000412   0.004977  -0.003612  -0.039921   0.377474  -0.024030
     6  N   -0.043835  -0.005596   0.001734  -0.001543  -0.034610   0.327801
     7  C    0.333491  -0.040200  -0.057778  -0.002539   0.001445  -0.028240
     8  H   -0.040961  -0.000952   0.004071   0.000043  -0.000015  -0.002586
     9  C   -0.049593   0.003875  -0.012949  -0.001005  -0.000065   0.000887
    10  C   -0.001865  -0.000393   0.001443  -0.000021   0.000001  -0.000124
    11  C   -0.047861   0.003950  -0.007699   0.000004   0.000000   0.000012
    12  C    0.368333  -0.040654  -0.074086   0.002507   0.000001  -0.000135
    13  C    5.027033   0.401766   0.237886  -0.070177  -0.000041   0.003662
    14  H    0.401766   0.519962  -0.035907  -0.004620   0.000073   0.000010
    15  N    0.237886  -0.035907   6.935010   0.586382  -0.000063  -0.000124
    16  C   -0.070177  -0.004620   0.586382   4.702791   0.001670  -0.000217
    17  H   -0.000041   0.000073  -0.000063   0.001670   0.384421  -0.001841
    18  H    0.003662   0.000010  -0.000124  -0.000217  -0.001841   0.322715
    19  H   -0.006348   0.000065   0.007003   0.002610   0.000011  -0.000132
    20  H    0.003854  -0.000049   0.000078  -0.000030  -0.000001   0.002951
    21  H   -0.000371   0.000009  -0.000028   0.000002  -0.000000  -0.000000
    22  H    0.000317  -0.000045   0.000001  -0.000001   0.000000   0.000002
    23  H   -0.005844   0.000008   0.006746   0.000062   0.000000   0.000000
    24  H    0.004135  -0.000057   0.000046   0.000005   0.000000  -0.000000
    25  H   -0.034462  -0.002651   0.000693  -0.000061  -0.000000   0.000002
    26  H   -0.044876  -0.000913   0.004193  -0.000058   0.000000  -0.000001
    27  H    0.004948  -0.000179  -0.040084   0.402271  -0.000057   0.000002
              19         20         21         22         23         24
     1  O    0.000000   0.000000  -0.000000  -0.000000   0.000000   0.000000
     2  N    0.000000  -0.000000  -0.000000   0.000000  -0.000000   0.000000
     3  O    0.000000   0.000000   0.000000  -0.000000   0.000000   0.000000
     4  C   -0.000699  -0.000023   0.000000  -0.000000   0.000024   0.000000
     5  C    0.000605   0.000030   0.000001  -0.000002  -0.000000  -0.000000
     6  N    0.000662  -0.001855  -0.000058  -0.000098  -0.000024   0.000004
     7  C   -0.034951  -0.041692   0.004038  -0.004194   0.000423  -0.000138
     8  H    0.004102  -0.001884  -0.000080   0.003501   0.000034  -0.000098
     9  C    0.385817   0.397277  -0.035836  -0.045720  -0.002009   0.004397
    10  C   -0.032409  -0.037353   0.400221   0.396010  -0.040081  -0.038465
    11  C   -0.002274   0.004139  -0.035807  -0.045621   0.396703   0.400328
    12  C    0.000637  -0.000361   0.004204  -0.001221  -0.036623  -0.037838
    13  C   -0.006348   0.003854  -0.000371   0.000317  -0.005844   0.004135
    14  H    0.000065  -0.000049   0.000009  -0.000045   0.000008  -0.000057
    15  N    0.007003   0.000078  -0.000028   0.000001   0.006746   0.000046
    16  C    0.002610  -0.000030   0.000002  -0.000001   0.000062   0.000005
    17  H    0.000011  -0.000001  -0.000000   0.000000   0.000000   0.000000
    18  H   -0.000132   0.002951  -0.000000   0.000002   0.000000  -0.000000
    19  H    0.506076  -0.024054  -0.002588   0.003748   0.001636  -0.000069
    20  H   -0.024054   0.550227  -0.002604  -0.002971  -0.000049  -0.000090
    21  H   -0.002588  -0.002604   0.525526  -0.024650  -0.002810  -0.002052
    22  H    0.003748  -0.002971  -0.024650   0.568545   0.004059  -0.003596
    23  H    0.001636  -0.000049  -0.002810   0.004059   0.509375  -0.024954
    24  H   -0.000069  -0.000090  -0.002052  -0.003596  -0.024954   0.540573
    25  H   -0.000027   0.000011  -0.000086  -0.000082  -0.002098  -0.002372
    26  H    0.000023  -0.000035  -0.000074   0.002468   0.003821  -0.002772
    27  H    0.000075  -0.000000  -0.000000   0.000000  -0.000022  -0.000000
              25         26         27
     1  O    0.000000   0.000000   0.005219
     2  N   -0.000000  -0.000000  -0.000335
     3  O    0.000000   0.000000  -0.000014
     4  C    0.000019   0.000006  -0.065724
     5  C   -0.000001  -0.000001   0.002210
     6  N   -0.000071  -0.000068   0.000057
     7  C    0.004967  -0.004449  -0.000408
     8  H   -0.000005   0.001636   0.000009
     9  C   -0.000366   0.001032  -0.000061
    10  C    0.004093  -0.002395   0.000005
    11  C   -0.033918  -0.042339   0.000005
    12  C    0.395533   0.394726  -0.000019
    13  C   -0.034462  -0.044876   0.004948
    14  H   -0.002651  -0.000913  -0.000179
    15  N    0.000693   0.004193  -0.040084
    16  C   -0.000061  -0.000058   0.402271
    17  H   -0.000000   0.000000  -0.000057
    18  H    0.000002  -0.000001   0.000002
    19  H   -0.000027   0.000023   0.000075
    20  H    0.000011  -0.000035  -0.000000
    21  H   -0.000086  -0.000074  -0.000000
    22  H   -0.000082   0.002468   0.000000
    23  H   -0.002098   0.003821  -0.000022
    24  H   -0.002372  -0.002772  -0.000000
    25  H    0.509937  -0.023047  -0.000010
    26  H   -0.023047   0.560787   0.000001
    27  H   -0.000010   0.000001   0.452857
 Mulliken charges:
               1
     1  O   -0.466552
     2  N    0.499908
     3  O   -0.496977
     4  C   -0.011543
     5  C    0.202927
     6  N   -0.793748
     7  C    0.060608
     8  H    0.179394
     9  C   -0.312094
    10  C   -0.321268
    11  C   -0.315672
    12  C   -0.312353
    13  C   -0.028649
    14  H    0.194588
    15  N   -0.494183
    16  C    0.128587
    17  H    0.290692
    18  H    0.398552
    19  H    0.190481
    20  H    0.154484
    21  H    0.173043
    22  H    0.149551
    23  H    0.191624
    24  H    0.163012
    25  H    0.184001
    26  H    0.152334
    27  H    0.239254
 Sum of Mulliken charges =  -0.00000
 Mulliken charges with hydrogens summed into heavy atoms:
               1
     1  O   -0.466552
     2  N    0.499908
     3  O   -0.496977
     4  C   -0.011543
     5  C    0.493619
     6  N   -0.395197
     7  C    0.240002
     9  C    0.032871
    10  C    0.001326
    11  C    0.038964
    12  C    0.023982
    13  C    0.165939
    15  N   -0.494183
    16  C    0.367841
 Electronic spatial extent (au):  <R**2>=           3093.3992
 Charge=             -0.0000 electrons
 Dipole moment (field-independent basis, Debye):
    X=              5.5439    Y=              4.6080    Z=              0.4637  Tot=              7.2238
 Quadrupole moment (field-independent basis, Debye-Ang):
   XX=           -105.9951   YY=            -80.2066   ZZ=            -82.0514
   XY=             -2.1395   XZ=              1.0992   YZ=              0.0523
 Traceless Quadrupole moment (field-independent basis, Debye-Ang):
   XX=            -16.5774   YY=              9.2111   ZZ=              7.3663
   XY=             -2.1395   XZ=              1.0992   YZ=              0.0523
 Octapole moment (field-independent basis, Debye-Ang**2):
  XXX=            102.1663  YYY=             37.3102  ZZZ=             -5.8607  XYY=             -1.5333
  XXY=             12.2221  XXZ=             -1.9058  XZZ=             -8.8662  YZZ=             -2.8056
  YYZ=              0.2277  XYZ=             -1.8932
 Hexadecapole moment (field-independent basis, Debye-Ang**3):
 XXXX=          -3523.2600 YYYY=           -618.0063 ZZZZ=           -298.2840 XXXY=            -42.9200
 XXXZ=             38.6837 YYYX=            -22.6091 YYYZ=             11.1170 ZZZX=             28.2360
 ZZZY=              9.9193 XXYY=           -650.0018 XXZZ=           -537.1391 YYZZ=           -163.7471
 XXYZ=              3.5824 YYXZ=             12.8242 ZZXY=              2.3263
 N-N= 9.210132091093D+02 E-N=-3.388121035319D+03  KE= 6.589809901543D+02
 Calling FoFJK, ICntrl=  10002127 FMM=F ISym2X=0 I1Cent= 0 IOpClX= 0 NMat=1 NMatS=1 NMatT=0.
 -------------------------------------------------------------------
 Center     Atomic                   Forces (Hartrees/Bohr)
 Number     Number              X              Y              Z
 -------------------------------------------------------------------
      1        8           0.001929579   -0.023755339   -0.002533319
      2        7           0.010740006    0.009806940   -0.004922490
      3        8          -0.007990834    0.018549805    0.005396476
      4        6           0.028313611    0.015605636    0.010662355
      5        6           0.004637619   -0.015538110   -0.005621493
      6        7           0.013180717   -0.012456794   -0.006897168
      7        6          -0.003956689    0.004830765    0.002891103
      8        1          -0.009962019   -0.001765649   -0.007710205
      9        6          -0.004050281    0.000207487   -0.002249422
     10        6           0.002863225   -0.000862092    0.001090777
     11        6          -0.001180767   -0.004644564   -0.002490896
     12        6           0.000918383   -0.008643417   -0.002704555
     13        6           0.009183922   -0.002444961    0.005668656
     14        1           0.000983640    0.004625127   -0.009701554
     15        7          -0.001576111    0.002840877   -0.000532794
     16        6          -0.019272133    0.005720283    0.004533892
     17        1           0.006749412   -0.006220851   -0.007451319
     18        1          -0.017608236   -0.001226337    0.007173162
     19        1           0.003077836    0.005921963    0.007747892
     20        1          -0.003256808   -0.007290386    0.002566858
     21        1          -0.004468123    0.002423124    0.009585468
     22        1          -0.003923557   -0.003973936   -0.007447208
     23        1           0.003965537    0.006144030    0.009319731
     24        1          -0.009370251    0.002650182   -0.002193002
     25        1          -0.000731243    0.010592667   -0.002396776
     26        1          -0.004753708   -0.004821626   -0.004396851
     27        1           0.005557273    0.003725175    0.002612682
 -------------------------------------------------------------------
 Cartesian Forces:  Max     0.028313611 RMS     0.008211525

 GradGradGradGradGradGradGradGradGradGradGradGradGradGradGradGradGradGrad
 Berny optimization.
 FormGI is forming the generalized inverse of G from B-inverse, IUseBI=4.
 Internal  Forces:  Max     0.035437815 RMS     0.006437508
 Search for a local minimum.
 Step number   1 out of a maximum of   20
 All quantities printed in internal units (Hartrees-Bohrs-Radians)
 Mixed Optimization -- RFO/linear search
 Second derivative matrix not updated -- first step.
 ITU=  0
     Eigenvalues ---    0.00770   0.00987   0.01101   0.01179   0.01259
     Eigenvalues ---    0.01524   0.01527   0.01594   0.01937   0.02009
     Eigenvalues ---    0.02055   0.02694   0.03664   0.04505   0.04694
     Eigenvalues ---    0.04839   0.05085   0.05138   0.05305   0.05902
     Eigenvalues ---    0.06264   0.07217   0.07701   0.07729   0.07878
     Eigenvalues ---    0.07992   0.08050   0.08064   0.10459   0.11740
     Eigenvalues ---    0.12268   0.13521   0.15283   0.15778   0.15991
     Eigenvalues ---    0.16000   0.20083   0.21897   0.23084   0.24990
     Eigenvalues ---    0.25000   0.25000   0.25385   0.26220   0.26650
     Eigenvalues ---    0.27977   0.28085   0.28485   0.31426   0.31451
     Eigenvalues ---    0.32044   0.32236   0.32291   0.32381   0.32389
     Eigenvalues ---    0.32407   0.32516   0.32526   0.32578   0.32979
     Eigenvalues ---    0.33378   0.33590   0.35421   0.43568   0.43890
     Eigenvalues ---    0.48995   0.66844   0.89735   0.905461000.00000
     Eigenvalues --- 1000.000001000.000001000.000001000.000001000.00000
     Eigenvalues --- 1000.000001000.000001000.000001000.000001000.00000
     Eigenvalues --- 1000.000001000.000001000.000001000.000001000.00000
     Eigenvalues --- 1000.000001000.000001000.000001000.000001000.00000
     Eigenvalues --- 1000.000001000.000001000.000001000.000001000.00000
     Eigenvalues --- 1000.000001000.000001000.000001000.000001000.00000
     Eigenvalues --- 1000.000001000.000001000.000001000.000001000.00000
     Eigenvalues --- 1000.000001000.000001000.000001000.000001000.00000
     Eigenvalues --- 1000.000001000.000001000.000001000.000001000.00000
     Eigenvalues --- 1000.000001000.000001000.000001000.000001000.00000
     Eigenvalues --- 1000.000001000.000001000.000001000.000001000.00000
     Eigenvalues --- 1000.000001000.000001000.000001000.000001000.00000
     Eigenvalues --- 1000.000001000.000001000.000001000.000001000.00000
     Eigenvalues --- 1000.000001000.000001000.000001000.000001000.00000
     Eigenvalues --- 1000.000001000.000001000.000001000.000001000.00000
     Eigenvalues --- 1000.000001000.000001000.000001000.000001000.00000
     Eigenvalues --- 1000.000001000.000001000.000001000.000001000.00000
     Eigenvalues --- 1000.000001000.000001000.000001000.000001000.00000
     Eigenvalues --- 1000.00000
 RFO step:  Lambda=-2.08120644D-02 EMin= 7.69713702D-03
 Linear search not attempted -- first point.
 Iteration  1 RMS(Cart)=  0.04729438 RMS(Int)=  0.00119746
 Iteration  2 RMS(Cart)=  0.00125065 RMS(Int)=  0.00026615
 Iteration  3 RMS(Cart)=  0.00000153 RMS(Int)=  0.00026615
 Iteration  4 RMS(Cart)=  0.00000000 RMS(Int)=  0.00026615
 Iteration  1 RMS(Cart)=  0.00002539 RMS(Int)=  0.00001818
 Iteration  2 RMS(Cart)=  0.00001319 RMS(Int)=  0.00002019
 Iteration  3 RMS(Cart)=  0.00000732 RMS(Int)=  0.00002252
 Iteration  4 RMS(Cart)=  0.00000442 RMS(Int)=  0.00002408
 Iteration  5 RMS(Cart)=  0.00000294 RMS(Int)=  0.00002508
 Iteration  6 RMS(Cart)=  0.00000216 RMS(Int)=  0.00002577
 Iteration  7 RMS(Cart)=  0.00000171 RMS(Int)=  0.00002626
 Iteration  8 RMS(Cart)=  0.00000141 RMS(Int)=  0.00002664
 Iteration  9 RMS(Cart)=  0.00000119 RMS(Int)=  0.00002694
 Iteration 10 RMS(Cart)=  0.00000101 RMS(Int)=  0.00002719
 Iteration 11 RMS(Cart)=  0.00000087 RMS(Int)=  0.00002739
 Variable       Old X    -DE/DX   Delta X   Delta X   Delta X     New X
                                 (Linear)    (Quad)   (Total)
    R1        2.32682   0.02227   0.00000   0.02404   0.02404   2.35086
    R2        2.33055   0.01981   0.00000   0.02157   0.02157   2.35212
    R3        2.74704  -0.00558   0.00000   0.00000   0.00000   2.74704
    R4        2.65326  -0.03544   0.00000  -0.07828  -0.07804   2.57522
    R5        2.82029  -0.02137   0.00000  -0.06261  -0.06238   2.75791
    R6        2.59156  -0.02582   0.00000  -0.05061  -0.05052   2.54103
    R7        2.08393  -0.01064   0.00000  -0.03002  -0.03002   2.05391
    R8        2.82359  -0.01909   0.00000  -0.05361  -0.05371   2.76989
    R9        1.93286  -0.00645   0.00000  -0.01402  -0.01402   1.91884
   R10        2.11859  -0.01185   0.00000  -0.03534  -0.03534   2.08325
   R11        2.92734  -0.01309   0.00000  -0.04517  -0.04520   2.88214
   R12        2.90129  -0.00503   0.00000  -0.01042  -0.01043   2.89086
   R13        2.91133  -0.00465   0.00000  -0.01447  -0.01450   2.89683
   R14        2.09910  -0.01001   0.00000  -0.02894  -0.02894   2.07016
   R15        2.09892  -0.00797   0.00000  -0.02303  -0.02303   2.07588
   R16        2.90432  -0.00181   0.00000  -0.00715  -0.00720   2.89711
   R17        2.10138  -0.01060   0.00000  -0.03074  -0.03074   2.07064
   R18        2.10315  -0.00901   0.00000  -0.02622  -0.02622   2.07693
   R19        2.91781  -0.00902   0.00000  -0.02872  -0.02869   2.88913
   R20        2.10414  -0.01170   0.00000  -0.03409  -0.03409   2.07006
   R21        2.10105  -0.00996   0.00000  -0.02887  -0.02887   2.07217
   R22        2.93539  -0.01056   0.00000  -0.03683  -0.03681   2.89858
   R23        2.10153  -0.01072   0.00000  -0.03112  -0.03112   2.07041
   R24        2.09798  -0.00786   0.00000  -0.02268  -0.02268   2.07530
   R25        2.10764  -0.00905   0.00000  -0.02652  -0.02652   2.08111
   R26        2.76654  -0.00511   0.00000  -0.01063  -0.01096   2.75558
   R27        2.44334  -0.00737   0.00000  -0.00999  -0.01004   2.43330
   R28        2.08028  -0.00652   0.00000  -0.01828  -0.01828   2.06200
    A1        2.14077   0.01160   0.00000   0.04353   0.04275   2.18353
    A2        2.06203  -0.00883   0.00000  -0.03191  -0.03269   2.02934
    A3        2.07966  -0.00264   0.00000  -0.00906  -0.00984   2.06982
    A4        2.04499  -0.00617   0.00000  -0.02070  -0.02100   2.02399
    A5        2.04226  -0.00378   0.00000  -0.01185  -0.01217   2.03009
    A6        2.19555   0.00991   0.00000   0.03183   0.03212   2.22768
    A7        2.20586   0.00586   0.00000   0.01825   0.01849   2.22435
    A8        2.06547  -0.00367   0.00000  -0.01291  -0.01316   2.05231
    A9        2.01101  -0.00215   0.00000  -0.00439  -0.00465   2.00636
   A10        2.25337  -0.00472   0.00000  -0.01586  -0.01598   2.23739
   A11        2.11751  -0.01301   0.00000  -0.07487  -0.07530   2.04221
   A12        1.87666   0.01798   0.00000   0.09892   0.09907   1.97573
   A13        1.83799  -0.00132   0.00000  -0.01859  -0.01838   1.81961
   A14        2.00735  -0.00135   0.00000  -0.01273  -0.01275   1.99460
   A15        1.96593   0.00085   0.00000   0.00176   0.00129   1.96722
   A16        1.85149   0.00261   0.00000   0.02483   0.02465   1.87614
   A17        1.84904   0.00071   0.00000   0.01719   0.01698   1.86602
   A18        1.93794  -0.00116   0.00000  -0.00837  -0.00803   1.92992
   A19        1.91020  -0.00002   0.00000  -0.00548  -0.00564   1.90456
   A20        1.92275  -0.00072   0.00000  -0.01317  -0.01312   1.90962
   A21        1.92279  -0.00156   0.00000  -0.00706  -0.00703   1.91576
   A22        1.91928  -0.00034   0.00000   0.00653   0.00649   1.92577
   A23        1.90432   0.00308   0.00000   0.02470   0.02471   1.92902
   A24        1.88429  -0.00041   0.00000  -0.00507  -0.00534   1.87895
   A25        1.94030  -0.00091   0.00000   0.00613   0.00601   1.94631
   A26        1.91899  -0.00075   0.00000  -0.00716  -0.00718   1.91181
   A27        1.90500   0.00037   0.00000  -0.00312  -0.00319   1.90181
   A28        1.91617   0.00085   0.00000   0.00748   0.00753   1.92370
   A29        1.89848   0.00168   0.00000   0.01134   0.01137   1.90985
   A30        1.88386  -0.00123   0.00000  -0.01519  -0.01528   1.86858
   A31        1.94473   0.00064   0.00000   0.00516   0.00528   1.95002
   A32        1.90227   0.00059   0.00000   0.00583   0.00579   1.90806
   A33        1.91760   0.00040   0.00000   0.00560   0.00557   1.92317
   A34        1.90629  -0.00105   0.00000  -0.01429  -0.01434   1.89195
   A35        1.91544  -0.00054   0.00000   0.00010   0.00001   1.91545
   A36        1.87613  -0.00007   0.00000  -0.00279  -0.00283   1.87330
   A37        1.94874  -0.00299   0.00000  -0.01811  -0.01814   1.93060
   A38        1.90588   0.00255   0.00000   0.01739   0.01724   1.92312
   A39        1.91044   0.00140   0.00000   0.01341   0.01338   1.92382
   A40        1.90597   0.00021   0.00000  -0.00303  -0.00288   1.90309
   A41        1.91098  -0.00021   0.00000  -0.00511  -0.00504   1.90594
   A42        1.88056  -0.00088   0.00000  -0.00407  -0.00426   1.87630
   A43        1.84702   0.00450   0.00000   0.02457   0.02460   1.87162
   A44        1.94036  -0.00417   0.00000  -0.03229  -0.03276   1.90760
   A45        1.97964   0.00030   0.00000   0.00836   0.00855   1.98819
   A46        1.88018   0.00214   0.00000   0.03143   0.03176   1.91195
   A47        1.89234  -0.00335   0.00000  -0.02744  -0.02745   1.86489
   A48        1.91974   0.00082   0.00000  -0.00209  -0.00202   1.91772
   A49        2.08123  -0.00599   0.00000  -0.01285  -0.01327   2.06796
   A50        2.25501  -0.00451   0.00000  -0.01825  -0.01833   2.23668
   A51        1.97911   0.00503   0.00000   0.02467   0.02419   2.00330
   A52        2.04894  -0.00049   0.00000  -0.00570  -0.00617   2.04276
    D1       -3.02560   0.00040   0.00000  -0.02541  -0.02497  -3.05057
    D2        0.14414   0.00177   0.00000   0.00000  -0.00000   0.14414
    D3        0.15567  -0.00327   0.00000  -0.09694  -0.09670   0.05897
    D4       -2.95777  -0.00190   0.00000  -0.07153  -0.07173  -3.02951
    D5        3.07279   0.00041   0.00000   0.00681   0.00679   3.07958
    D6       -0.02239  -0.00073   0.00000  -0.01927  -0.01934  -0.04173
    D7       -0.09972  -0.00138   0.00000  -0.02200  -0.02243  -0.12214
    D8        3.08828  -0.00252   0.00000  -0.04808  -0.04855   3.03974
    D9       -2.65152  -0.00208   0.00000  -0.04319  -0.04367  -2.69519
   D10        0.47231   0.00044   0.00000   0.00772   0.00753   0.47984
   D11        0.52094  -0.00026   0.00000  -0.01428  -0.01423   0.50671
   D12       -2.63841   0.00226   0.00000   0.03663   0.03697  -2.60144
   D13       -0.17696   0.00012   0.00000   0.03116   0.03146  -0.14551
   D14        2.64393   0.00413   0.00000   0.08290   0.08172   2.72565
   D15        2.91948   0.00119   0.00000   0.05630   0.05678   2.97625
   D16       -0.54281   0.00520   0.00000   0.10805   0.10703  -0.43578
   D17       -2.44586  -0.00077   0.00000  -0.02571  -0.02524  -2.47110
   D18        1.80573  -0.00237   0.00000  -0.03713  -0.03671   1.76903
   D19       -0.43862  -0.00028   0.00000  -0.01528  -0.01520  -0.45382
   D20        0.98201  -0.00032   0.00000  -0.04896  -0.04958   0.93243
   D21       -1.04958  -0.00193   0.00000  -0.06038  -0.06105  -1.11063
   D22        2.98925   0.00016   0.00000  -0.03853  -0.03954   2.94971
   D23        2.94524   0.00245   0.00000   0.02506   0.02495   2.97019
   D24       -1.22562   0.00156   0.00000   0.02130   0.02122  -1.20441
   D25        0.85139  -0.00037   0.00000   0.00244   0.00243   0.85381
   D26        0.92137   0.00310   0.00000   0.03857   0.03856   0.95992
   D27        3.03369   0.00221   0.00000   0.03481   0.03482   3.06851
   D28       -1.17249   0.00028   0.00000   0.01594   0.01603  -1.15645
   D29       -1.07973   0.00139   0.00000   0.00863   0.00860  -1.07113
   D30        1.03259   0.00050   0.00000   0.00488   0.00487   1.03746
   D31        3.10960  -0.00143   0.00000  -0.01399  -0.01392   3.09568
   D32       -2.90144  -0.00121   0.00000  -0.01298  -0.01277  -2.91421
   D33       -0.86479   0.00179   0.00000   0.02198   0.02178  -0.84301
   D34        1.30938  -0.00020   0.00000   0.00000  -0.00001   1.30937
   D35       -0.90089  -0.00195   0.00000  -0.02418  -0.02409  -0.92498
   D36        1.13576   0.00105   0.00000   0.01078   0.01046   1.14622
   D37       -2.97326  -0.00094   0.00000  -0.01120  -0.01133  -2.98459
   D38        1.10174   0.00095   0.00000   0.01051   0.01061   1.11234
   D39        3.13839   0.00395   0.00000   0.04547   0.04516  -3.09964
   D40       -0.97063   0.00196   0.00000   0.02349   0.02337  -0.94726
   D41        0.95665   0.00058   0.00000   0.00000   0.00001   0.95666
   D42        3.08229   0.00055   0.00000   0.00867   0.00863   3.09092
   D43       -1.13755  -0.00117   0.00000  -0.01588  -0.01585  -1.15340
   D44       -1.15777   0.00170   0.00000   0.01566   0.01574  -1.14203
   D45        0.96787   0.00166   0.00000   0.02433   0.02436   0.99223
   D46        3.03121  -0.00006   0.00000  -0.00022  -0.00011   3.03110
   D47        3.06179   0.00056   0.00000   0.00320   0.00315   3.06495
   D48       -1.09575   0.00052   0.00000   0.01187   0.01177  -1.08398
   D49        0.96759  -0.00120   0.00000  -0.01268  -0.01270   0.95489
   D50       -0.92192  -0.00090   0.00000   0.00000   0.00001  -0.92191
   D51        1.18300  -0.00143   0.00000  -0.01070  -0.01071   1.17229
   D52       -3.04865  -0.00093   0.00000  -0.00743  -0.00746  -3.05611
   D53       -3.04920   0.00007   0.00000  -0.00013  -0.00011  -3.04931
   D54       -0.94428  -0.00046   0.00000  -0.01083  -0.01083  -0.95511
   D55        1.10725   0.00004   0.00000  -0.00756  -0.00758   1.09967
   D56        1.17615   0.00007   0.00000   0.00726   0.00730   1.18344
   D57       -3.00211  -0.00045   0.00000  -0.00344  -0.00342  -3.00554
   D58       -0.95058   0.00005   0.00000  -0.00017  -0.00017  -0.95076
   D59        0.98683  -0.00084   0.00000  -0.01335  -0.01338   0.97345
   D60        3.09631  -0.00079   0.00000  -0.01713  -0.01728   3.07903
   D61       -1.13202   0.00044   0.00000  -0.00416  -0.00412  -1.13614
   D62       -1.11573  -0.00128   0.00000  -0.01447  -0.01445  -1.13018
   D63        0.99374  -0.00124   0.00000  -0.01825  -0.01835   0.97539
   D64        3.04860  -0.00001   0.00000  -0.00527  -0.00519   3.04341
   D65        3.11482  -0.00027   0.00000  -0.00275  -0.00275   3.11207
   D66       -1.05889  -0.00022   0.00000  -0.00653  -0.00664  -1.06554
   D67        0.99597   0.00100   0.00000   0.00644   0.00651   1.00248
   D68       -1.05044   0.00021   0.00000   0.00158   0.00168  -1.04877
   D69       -3.12733   0.00163   0.00000   0.01056   0.01018  -3.11716
   D70        1.07890   0.00131   0.00000   0.01061   0.01052   1.08943
   D71        3.12332  -0.00120   0.00000  -0.00653  -0.00636   3.11696
   D72        1.04643   0.00022   0.00000   0.00245   0.00214   1.04857
   D73       -1.03052  -0.00010   0.00000   0.00249   0.00249  -1.02803
   D74        1.06810  -0.00013   0.00000   0.00312   0.00333   1.07142
   D75       -1.00880   0.00129   0.00000   0.01210   0.01183  -0.99697
   D76       -3.08574   0.00097   0.00000   0.01214   0.01217  -3.07357
   D77       -1.17216   0.00347   0.00000   0.00000  -0.00001  -1.17217
   D78        3.06494  -0.00010   0.00000  -0.01746  -0.01739   3.04755
   D79        1.01311  -0.00118   0.00000  -0.03812  -0.03841   0.97470
   D80        0.10006   0.00264   0.00000   0.02633   0.02606   0.12612
   D81       -3.02318  -0.00002   0.00000  -0.02654  -0.02638  -3.04956
         Item               Value     Threshold  Converged?
 Maximum Force            0.035112     0.000450     NO 
 RMS     Force            0.006516     0.000300     NO 
 Maximum Displacement     0.182016     0.001800     NO 
 RMS     Displacement     0.047453     0.001200     NO 
 Predicted change in Energy=-1.175704D-02
 GradGradGradGradGradGradGradGradGradGradGradGradGradGradGradGradGradGrad

                          Input orientation:                          
 ---------------------------------------------------------------------
 Center     Atomic      Atomic             Coordinates (Angstroms)
 Number     Number       Type             X           Y           Z
 ---------------------------------------------------------------------
      1          8           0       -3.471173   -1.445186   -0.184385
      2          7           0       -3.126057   -0.262584   -0.011352
      3          8           0       -3.902262    0.683950    0.214109
      4          6           0       -1.696790    0.001218   -0.038868
      5          6           0       -1.319480    1.276050    0.260324
      6          7           0       -0.067303    1.754256    0.367454
      7          6           0        1.192780    1.005572    0.356564
      8          1           0        1.819739    1.518420    1.104369
      9          6           0        1.937187    1.049895   -0.973855
     10          6           0        3.334799    0.448334   -0.787590
     11          6           0        3.264693   -0.963778   -0.194820
     12          6           0        2.430675   -0.999171    1.086029
     13          6           0        1.025650   -0.439055    0.831259
     14          1           0        0.449135   -0.449443    1.769520
     15          7           0        0.393176   -1.313942   -0.148983
     16          6           0       -0.841918   -1.108117   -0.449336
     17          1           0       -2.105463    2.001029    0.455143
     18          1           0        0.058926    2.751921    0.226796
     19          1           0        1.375584    0.482991   -1.724392
     20          1           0        2.008497    2.088255   -1.325210
     21          1           0        3.856901    0.429261   -1.750753
     22          1           0        3.916701    1.097322   -0.118151
     23          1           0        2.807012   -1.640803   -0.924289
     24          1           0        4.274546   -1.338744    0.010148
     25          1           0        2.344232   -2.028017    1.452592
     26          1           0        2.917978   -0.408028    1.872878
     27          1           0       -1.316765   -1.828613   -1.117200
 ---------------------------------------------------------------------
                    Distance matrix (angstroms):
                    1          2          3          4          5
     1  O    0.000000
     2  N    1.244023   0.000000
     3  O    2.208586   1.244689   0.000000
     4  C    2.293838   1.453669   2.322548   0.000000
     5  C    3.497524   2.388498   2.650185   1.362746   0.000000
     6  N    4.703964   3.683356   3.984467   2.427647   1.344658
     7  C    5.296346   4.516185   5.107169   3.084591   2.528610
     8  H    6.199806   5.373798   5.850658   3.996857   3.259732
     9  C    6.008248   5.318407   5.970288   3.896115   3.490017
    10  C    7.090171   6.546038   7.309854   5.106602   4.842060
    11  C    6.753055   6.431720   7.365288   5.056862   5.122366
    12  C    6.053485   5.711749   6.610538   4.393419   4.463416
    13  C    4.718606   4.240024   5.091790   2.891822   2.960943
    14  H    4.491999   3.998552   4.757997   2.842244   2.895341
    15  N    3.866738   3.675500   4.751230   2.471786   3.131897
    16  C    2.663981   2.474682   3.607959   1.459422   2.532970
    17  H    3.761722   2.526494   2.240821   2.100073   1.086885
    18  H    5.499670   4.391818   4.468520   3.274062   2.019733
    19  H    5.438799   4.873927   5.626174   3.537312   3.439682
    20  H    6.619174   5.797958   6.267268   4.442921   3.774788
    21  H    7.724488   7.229514   8.008131   5.827285   5.617508
    22  H    7.813412   7.173646   7.836928   5.720053   5.252883
    23  H    6.324660   6.159079   7.191299   4.874878   5.190306
    24  H    7.748892   7.478470   8.425738   6.120028   6.180037
    25  H    6.069457   5.931606   6.921509   4.761523   5.075544
    26  H    6.791853   6.332601   7.103492   5.011820   4.836580
    27  H    2.378788   2.636074   3.843195   2.157660   3.396544
                    6          7          8          9         10
     6  N    0.000000
     7  C    1.465761   0.000000
     8  H    2.039508   1.102409   0.000000
     9  C    2.512611   1.525162   2.133618   0.000000
    10  C    3.822807   2.491556   2.649528   1.532935   0.000000
    11  C    4.336596   2.911218   3.152315   2.534571   1.533086
    12  C    3.786503   2.466475   2.590722   2.947087   2.534395
    13  C    2.494048   1.529776   2.129994   2.511236   2.956400
    14  H    2.662478   2.160213   2.488668   3.462430   3.958772
    15  N    3.145248   2.505012   3.410021   2.941447   3.488063
    16  C    3.075769   3.042556   4.049335   3.557465   4.470114
    17  H    2.054917   3.446601   4.007695   4.392005   5.792383
    18  H    1.015408   2.086193   2.322095   2.804696   4.131203
    19  H    2.841454   2.153343   3.044877   1.095484   2.171940
    20  H    2.699187   2.160083   2.502638   1.098511   2.176569
    21  H    4.652074   3.445353   3.672603   2.161957   1.095736
    22  H    4.066898   2.766500   2.463560   2.157071   1.099065
    23  H    4.632139   3.354047   3.882120   2.828234   2.159106
    24  H    5.342843   3.887557   3.922598   3.483835   2.170981
    25  H    4.615042   3.424877   3.601883   3.940415   3.483095
    26  H    3.981668   2.696995   2.346899   3.345352   2.825807
    27  H    4.074592   4.062313   5.096631   4.346787   5.189429
                   11         12         13         14         15
    11  C    0.000000
    12  C    1.528860   0.000000
    13  C    2.518231   1.533862   0.000000
    14  H    3.471389   2.166993   1.101277   0.000000
    15  N    2.893152   2.403276   1.458192   2.105028   0.000000
    16  C    4.117022   3.616501   2.361223   2.650281   1.287646
    17  H    6.168559   5.475013   3.987398   3.776026   4.194901
    18  H    4.925558   4.520416   3.388548   3.575051   4.096849
    19  H    2.828686   3.347908   2.739339   3.732983   2.583797
    20  H    3.488655   3.940115   3.464627   4.295215   3.945594
    21  H    2.170759   3.481648   3.928962   4.977681   4.195452
    22  H    2.163129   2.837888   3.408814   4.240259   4.269704
    23  H    1.095427   2.143525   2.774779   3.773000   2.556276
    24  H    1.096546   2.161640   3.469725   4.303488   3.884710
    25  H    2.166522   1.095612   2.156273   2.486711   2.623274
    26  H    2.168973   1.098202   2.160287   2.471353   3.359052
    27  H    4.752734   4.425549   3.348770   3.654266   2.031311
                   16         17         18         19         20
    16  C    0.000000
    17  H    3.475833   0.000000
    18  H    4.021015   2.302295   0.000000
    19  H    3.012426   4.378642   3.269369   0.000000
    20  H    4.371362   4.483518   2.578760   1.771100   0.000000
    21  H    5.112349   6.548757   4.871351   2.482038   2.519909
    22  H    5.255292   6.116520   4.211783   3.068337   2.465803
    23  H    3.718068   6.268827   5.307825   2.683217   3.834610
    24  H    5.142229   7.215027   5.878089   3.838141   4.320009
    25  H    3.822970   6.085056   5.438107   4.163732   4.977207
    26  H    4.474329   5.748782   4.568265   4.014131   4.157686
    27  H    1.091162   4.214316   4.967911   3.600130   5.142225
                   21         22         23         24         25
    21  H    0.000000
    22  H    1.765013   0.000000
    23  H    2.463833   3.062450   0.000000
    24  H    2.530028   2.465549   1.765805   0.000000
    25  H    4.311357   3.835053   2.452277   2.506362   0.000000
    26  H    3.835796   2.688442   3.058790   2.485210   1.769234
    27  H    5.680335   6.078516   4.132556   5.724826   4.477330
                   26         27
    26  H    0.000000
    27  H    5.375097   0.000000
 Symmetry turned off by external request.
 Stoichiometry    C9H13N3O2
 Framework group  C1[X(C9H13N3O2)]
 Deg. of freedom    75
 Full point group                 C1      NOp   1
 Rotational constants (GHZ):           1.6921128           0.4209331           0.3716995
 Standard basis: 6-31G(d) (6D, 7F)
   236 basis functions,   444 primitive gaussians,   236 cartesian basis functions
    52 alpha electrons       52 beta electrons
       nuclear repulsion energy       931.9268032817 Hartrees.
 NAtoms=   27 NActive=   27 NUniq=   27 SFac= 1.00D+00 NAtFMM=   60 NAOKFM=F Big=F
 Integral buffers will be    131072 words long.
 Raffenetti 1 integral format.
 Two-electron integral symmetry is turned off.
 One-electron integrals computed using PRISM.
 NBasis=   236 RedAO= T EigKep=  1.03D-03  NBF=   236
 NBsUse=   236 1.00D-06 EigRej= -1.00D+00 NBFU=   236
 Initial guess from the checkpoint file:  "/home/alexey/tmp/Gau-1275852.chk"
 B after Tr=     0.043333    0.003121    0.001205
         Rot=    0.999999   -0.001340    0.000206    0.000855 Ang=  -0.18 deg.
 ExpMin= 1.61D-01 ExpMax= 5.48D+03 ExpMxC= 8.25D+02 IAcc=3 IRadAn=         5 AccDes= 0.00D+00
 Harris functional with IExCor=  205 and IRadAn=       5 diagonalized for initial guess.
 HarFok:  IExCor=  205 AccDes= 0.00D+00 IRadAn=         5 IDoV= 1 UseB2=F ITyADJ=14
 ICtDFT=  3500011 ScaDFX=  1.000000  1.000000  1.000000  1.000000
 FoFCou: FMM=F IPFlag=           0 FMFlag=      100000 FMFlg1=           0
         NFxFlg=           0 DoJE=T BraDBF=F KetDBF=T FulRan=T
         wScrn=  0.000000 ICntrl=       500 IOpCl=  0 I1Cent=   200000004 NGrid=           0
         NMat0=    1 NMatS0=      1 NMatT0=    0 NMatD0=    1 NMtDS0=    0 NMtDT0=    0
 Symmetry not used in FoFCou.
 Keep R1 ints in memory in canonical form, NReq=397720213.
 Requested convergence on RMS density matrix=1.00D-08 within 128 cycles.
 Requested convergence on MAX density matrix=1.00D-06.
 Requested convergence on             energy=1.00D-06.
 No special actions if energy rises.
 SCF Done:  E(RHF) =  -661.297749561     A.U. after   15 cycles
            NFock= 15  Conv=0.51D-08     -V/T= 2.0025
 ExpMin= 1.61D-01 ExpMax= 5.48D+03 ExpMxC= 8.25D+02 IAcc=3 IRadAn=         5 AccDes= 0.00D+00
 HarFok:  IExCor=  205 AccDes= 0.00D+00 IRadAn=         5 IDoV=-2 UseB2=F ITyADJ=14
 ICtDFT= 12500011 ScaDFX=  1.000000  1.000000  1.000000  1.000000
 Range of M.O.s used for correlation:    15   236
 NBasis=   236 NAE=    52 NBE=    52 NFC=    14 NFV=     0
 NROrb=    222 NOA=    38 NOB=    38 NVA=   184 NVB=   184
 Fully direct method using O(ONN) memory.
 JobTyp=1 Pass  1:  I=  15 to  52 NPSUse=  4 ParTrn=T ParDer=T DoDerP=T.
 Spin components of T(2) and E(2):
     alpha-alpha T2 =       0.9130165606D-01 E2=     -0.2723870933D+00
     alpha-beta  T2 =       0.4916743506D+00 E2=     -0.1488448049D+01
     beta-beta   T2 =       0.9130165606D-01 E2=     -0.2723870933D+00
 ANorm=    0.1293938817D+01
 E2 =    -0.2033222236D+01 EUMP2 =    -0.66333097179725D+03
          IDoAtm=111111111111111111111111111
          Differentiating once with respect to electric field.
                with respect to dipole field.
          Differentiating once with respect to nuclear coordinates.
 Keep R1 ints in memory in canonical form, NReq=397723379.
          There are     1 degrees of freedom in the 1st order CPHF.  IDoFFX=0 NUNeed=     1.
 LinEq1:  Iter=  0 NonCon=     1 RMS=4.58D-03 Max=1.00D-01 NDo=     1
 AX will form     1 AO Fock derivatives at one time.
 LinEq1:  Iter=  1 NonCon=     1 RMS=1.54D-03 Max=2.63D-02 NDo=     1
 LinEq1:  Iter=  2 NonCon=     1 RMS=6.50D-04 Max=1.71D-02 NDo=     1
 LinEq1:  Iter=  3 NonCon=     1 RMS=2.85D-04 Max=8.69D-03 NDo=     1
 LinEq1:  Iter=  4 NonCon=     1 RMS=8.86D-05 Max=1.97D-03 NDo=     1
 LinEq1:  Iter=  5 NonCon=     1 RMS=3.74D-05 Max=1.90D-03 NDo=     1
 LinEq1:  Iter=  6 NonCon=     1 RMS=1.43D-05 Max=5.20D-04 NDo=     1
 LinEq1:  Iter=  7 NonCon=     1 RMS=5.46D-06 Max=1.00D-04 NDo=     1
[...]
    26  H    2.175756   1.098792   2.166968   2.497079   3.362748
    27  H    4.723948   4.418624   3.356607   3.656608   2.029410
                   16         17         18         19         20
    16  C    0.000000
    17  H    3.463851   0.000000
    18  H    4.088142   2.235946   0.000000
    19  H    2.990357   4.303457   3.512047   0.000000
    20  H    4.374800   4.449291   2.882131   1.768538   0.000000
    21  H    5.096205   6.511260   5.086554   2.499111   2.521027
    22  H    5.248484   6.100635   4.313244   3.070196   2.461422
    23  H    3.694778   6.235066   5.421167   2.704237   3.842952
    24  H    5.133656   7.200951   5.936600   3.849627   4.317115
    25  H    3.821540   6.088369   5.369495   4.171552   4.985036
    26  H    4.495112   5.781255   4.484935   4.035988   4.182215
    27  H    1.089703   4.215264   5.079299   3.583240   5.147814
                   21         22         23         24         25
    21  H    0.000000
    22  H    1.758844   0.000000
    23  H    2.469457   3.062283   0.000000
    24  H    2.517358   2.459897   1.764576   0.000000
    25  H    4.311996   3.839530   2.444074   2.519682   0.000000
    26  H    3.846736   2.704419   3.060433   2.491801   1.767992
    27  H    5.652789   6.060363   4.090333   5.694672   4.454449
                   26         27
    26  H    0.000000
    27  H    5.378443   0.000000
 Symmetry turned off by external request.
 Stoichiometry    C9H13N3O2
 Framework group  C1[X(C9H13N3O2)]
 Deg. of freedom    75
 Full point group                 C1      NOp   1
 Rotational constants (GHZ):           1.6800868           0.4193442           0.3721503

 **********************************************************************

            Population analysis using the SCF Density.

 **********************************************************************

 Alpha  occ. eigenvalues --  -20.59237 -20.58904 -15.84723 -15.64136 -15.56110
 Alpha  occ. eigenvalues --  -11.35018 -11.29623 -11.29558 -11.28627 -11.27133
 Alpha  occ. eigenvalues --  -11.23727 -11.23207 -11.22691 -11.22089  -1.57118
 Alpha  occ. eigenvalues --   -1.36710  -1.30977  -1.23067  -1.14703  -1.09818
 Alpha  occ. eigenvalues --   -1.02805  -1.01307  -0.94481  -0.89685  -0.85565
 Alpha  occ. eigenvalues --   -0.82448  -0.78609  -0.77412  -0.75201  -0.72020
 Alpha  occ. eigenvalues --   -0.69771  -0.69439  -0.67821  -0.64892  -0.63779
 Alpha  occ. eigenvalues --   -0.62368  -0.60280  -0.57700  -0.57001  -0.55077
 Alpha  occ. eigenvalues --   -0.54582  -0.50761  -0.50110  -0.48656  -0.48103
 Alpha  occ. eigenvalues --   -0.47372  -0.46146  -0.46044  -0.43678  -0.41695
 Alpha  occ. eigenvalues --   -0.39847  -0.33829
 Alpha virt. eigenvalues --    0.07466   0.11800   0.17307   0.21848   0.24112
 Alpha virt. eigenvalues --    0.25664   0.27134   0.28693   0.29044   0.29636
 Alpha virt. eigenvalues --    0.30683   0.31799   0.32036   0.32767   0.33951
 Alpha virt. eigenvalues --    0.34387   0.35851   0.37313   0.38581   0.40292
 Alpha virt. eigenvalues --    0.41385   0.42445   0.45027   0.46117   0.46730
 Alpha virt. eigenvalues --    0.47078   0.49002   0.53995   0.57579   0.59406
 Alpha virt. eigenvalues --    0.63914   0.69544   0.69908   0.72863   0.74243
 Alpha virt. eigenvalues --    0.74870   0.75781   0.76677   0.78661   0.79441
 Alpha virt. eigenvalues --    0.81386   0.84695   0.85720   0.85806   0.88529
 Alpha virt. eigenvalues --    0.89424   0.91051   0.92111   0.92853   0.94526
 Alpha virt. eigenvalues --    0.95645   0.98041   0.99638   1.01676   1.02471
 Alpha virt. eigenvalues --    1.03153   1.05873   1.06970   1.07900   1.09012
 Alpha virt. eigenvalues --    1.10282   1.11425   1.11856   1.12443   1.13916
 Alpha virt. eigenvalues --    1.14765   1.14990   1.15833   1.16903   1.18725
 Alpha virt. eigenvalues --    1.19138   1.21340   1.22576   1.23913   1.24537
 Alpha virt. eigenvalues --    1.24832   1.26039   1.26908   1.27487   1.29560
 Alpha virt. eigenvalues --    1.30007   1.33125   1.36072   1.37183   1.40862
 Alpha virt. eigenvalues --    1.41842   1.46480   1.48741   1.51702   1.54282
 Alpha virt. eigenvalues --    1.56381   1.58774   1.59554   1.63470   1.65638
 Alpha virt. eigenvalues --    1.68035   1.68635   1.72989   1.75225   1.77366
 Alpha virt. eigenvalues --    1.81579   1.84598   1.87688   1.90656   1.93497
 Alpha virt. eigenvalues --    1.95813   1.96958   1.99721   2.01571   2.02519
 Alpha virt. eigenvalues --    2.05104   2.05602   2.08497   2.09564   2.12397
 Alpha virt. eigenvalues --    2.13265   2.15299   2.18820   2.20014   2.22451
 Alpha virt. eigenvalues --    2.22635   2.24494   2.25494   2.28216   2.29553
 Alpha virt. eigenvalues --    2.31997   2.33728   2.34699   2.36400   2.38473
 Alpha virt. eigenvalues --    2.40482   2.41925   2.43869   2.45141   2.47366
 Alpha virt. eigenvalues --    2.50719   2.51949   2.53117   2.55570   2.61515
 Alpha virt. eigenvalues --    2.62311   2.65193   2.67629   2.70324   2.70497
 Alpha virt. eigenvalues --    2.72272   2.72654   2.76985   2.78446   2.83809
 Alpha virt. eigenvalues --    2.88559   2.88954   2.92945   2.93138   2.96060
 Alpha virt. eigenvalues --    2.99439   3.01345   3.04316   3.05727   3.07679
 Alpha virt. eigenvalues --    3.09417   3.15050   3.21211   3.25217   3.27456
 Alpha virt. eigenvalues --    3.33456   3.37790   3.38793   3.52160   3.65797
 Alpha virt. eigenvalues --    4.13677   4.28071   4.34713   4.38912   4.46304
 Alpha virt. eigenvalues --    4.56310   4.61875   4.62355   4.73465   4.79745
 Alpha virt. eigenvalues --    4.99412   5.00901   5.05020   5.11171
          Condensed to atoms (all electrons):
               1          2          3          4          5          6
     1  O    8.316108   0.306958  -0.082553  -0.085459   0.004640  -0.000016
     2  N    0.306958   5.722351   0.301247   0.264160  -0.053616   0.000970
     3  O   -0.082553   0.301247   8.353603  -0.092625   0.003647   0.000784
     4  C   -0.085459   0.264160  -0.092625   5.225659   0.560276  -0.047275
     5  C    0.004640  -0.053616   0.003647   0.560276   4.709953   0.317430
     6  N   -0.000016   0.000970   0.000784  -0.047275   0.317430   7.195573
     7  C    0.000004  -0.000140   0.000002   0.004633  -0.030200   0.169283
     8  H   -0.000000   0.000002  -0.000000  -0.000262   0.003096  -0.050651
     9  C   -0.000000  -0.000004  -0.000000   0.000856   0.000623  -0.061672
    10  C    0.000000   0.000000   0.000000  -0.000038  -0.000052   0.003749
    11  C   -0.000000  -0.000000  -0.000000  -0.000028   0.000025  -0.000190
    12  C   -0.000000   0.000002  -0.000000  -0.000127  -0.000176   0.003874
    13  C   -0.000025  -0.000039  -0.000004  -0.011559  -0.000578  -0.047707
    14  H   -0.000004  -0.000105   0.000001   0.002647   0.006076  -0.006961
    15  N    0.000382   0.002361  -0.000016  -0.063540  -0.006384   0.001594
    16  C    0.000814  -0.027273   0.002548   0.328491  -0.050335  -0.001865
    17  H    0.000220  -0.007229   0.017386  -0.023160   0.374522  -0.034184
    18  H    0.000001  -0.000050   0.000012   0.001507  -0.031445   0.338677
    19  H    0.000001  -0.000004   0.000000  -0.001227   0.001233  -0.000353
    20  H    0.000000  -0.000000   0.000000  -0.000079   0.000153  -0.000428
    21  H   -0.000000   0.000000   0.000000   0.000001   0.000001  -0.000077
    22  H   -0.000000   0.000000  -0.000000  -0.000000  -0.000003  -0.000117
    23  H    0.000000  -0.000000   0.000000   0.000041  -0.000000  -0.000031
    24  H    0.000000   0.000000   0.000000   0.000000  -0.000000   0.000006
    25  H    0.000000  -0.000000   0.000000   0.000024   0.000000  -0.000090
    26  H    0.000000  -0.000000   0.000000   0.000006  -0.000002  -0.000060
    27  H    0.006136  -0.000882   0.000019  -0.063406   0.002214   0.000017
               7          8          9         10         11         12
     1  O    0.000004  -0.000000  -0.000000   0.000000  -0.000000  -0.000000
     2  N   -0.000140   0.000002  -0.000004   0.000000  -0.000000   0.000002
     3  O    0.000002  -0.000000  -0.000000   0.000000  -0.000000  -0.000000
     4  C    0.004633  -0.000262   0.000856  -0.000038  -0.000028  -0.000127
     5  C   -0.030200   0.003096   0.000623  -0.000052   0.000025  -0.000176
     6  N    0.169283  -0.050651  -0.061672   0.003749  -0.000190   0.003874
     7  C    5.017636   0.418395   0.350542  -0.054687  -0.009032  -0.061082
     8  H    0.418395   0.538053  -0.055036   0.000776  -0.000325  -0.002228
     9  C    0.350542  -0.055036   5.158236   0.324776  -0.050410  -0.005344
    10  C   -0.054687   0.000776   0.324776   5.119321   0.337005  -0.060993
    11  C   -0.009032  -0.000325  -0.050410   0.337005   5.119929   0.335976
    12  C   -0.061082  -0.002228  -0.005344  -0.060993   0.335976   5.118647
    13  C    0.338611  -0.037925  -0.060252  -0.000282  -0.050694   0.371993
    14  H   -0.046597  -0.000744   0.004423  -0.000405   0.004196  -0.036331
    15  N   -0.057967   0.003901  -0.014630   0.001561  -0.013064  -0.082069
    16  C   -0.001782   0.000010  -0.001275  -0.000029   0.000029   0.002610
    17  H    0.001616  -0.000045  -0.000070   0.000001   0.000000   0.000000
    18  H   -0.021216  -0.004473   0.001329  -0.000083   0.000004  -0.000114
    19  H   -0.036849   0.004361   0.390230  -0.032070  -0.002212   0.000689
    20  H   -0.042417  -0.002077   0.399487  -0.035302   0.003931  -0.000415
    21  H    0.004600  -0.000076  -0.036360   0.402433  -0.034894   0.004349
    22  H   -0.004848   0.003558  -0.046956   0.397754  -0.045403  -0.001020
    23  H    0.000578   0.000035  -0.001958  -0.039016   0.399178  -0.037864
    24  H   -0.000130  -0.000102   0.004388  -0.038436   0.402340  -0.038692
    25  H    0.005153  -0.000025  -0.000423   0.004190  -0.033400   0.398273
    26  H   -0.003908   0.001686   0.000969  -0.002232  -0.041478   0.396734
    27  H   -0.000407   0.000009  -0.000058   0.000007   0.000012  -0.000036
              13         14         15         16         17         18
     1  O   -0.000025  -0.000004   0.000382   0.000814   0.000220   0.000001
     2  N   -0.000039  -0.000105   0.002361  -0.027273  -0.007229  -0.000050
     3  O   -0.000004   0.000001  -0.000016   0.002548   0.017386   0.000012
     4  C   -0.011559   0.002647  -0.063540   0.328491  -0.023160   0.001507
     5  C   -0.000578   0.006076  -0.006384  -0.050335   0.374522  -0.031445
     6  N   -0.047707  -0.006961   0.001594  -0.001865  -0.034184   0.338677
     7  C    0.338611  -0.046597  -0.057967  -0.001782   0.001616  -0.021216
     8  H   -0.037925  -0.000744   0.003901   0.000010  -0.000045  -0.004473
     9  C   -0.060252   0.004423  -0.014630  -0.001275  -0.000070   0.001329
    10  C   -0.000282  -0.000405   0.001561  -0.000029   0.000001  -0.000083
    11  C   -0.050694   0.004196  -0.013064   0.000029   0.000000   0.000004
    12  C    0.371993  -0.036331  -0.082069   0.002610   0.000000  -0.000114
    13  C    5.040220   0.403082   0.244794  -0.071098  -0.000009   0.002970
    14  H    0.403082   0.526784  -0.037360  -0.004539   0.000093  -0.000109
    15  N    0.244794  -0.037360   6.965105   0.585210  -0.000080  -0.000132
    16  C   -0.071098  -0.004539   0.585210   4.710071   0.002015  -0.000197
    17  H   -0.000009   0.000093  -0.000080   0.002015   0.376534  -0.002819
    18  H    0.002970  -0.000109  -0.000132  -0.000197  -0.002819   0.310610
    19  H   -0.007546   0.000106   0.007695   0.003005   0.000016  -0.000149
    20  H    0.004340  -0.000066   0.000126  -0.000036   0.000002   0.000806
    21  H   -0.000433   0.000010  -0.000041   0.000004  -0.000000   0.000001
    22  H    0.000045  -0.000055   0.000019  -0.000002   0.000000   0.000001
    23  H   -0.007527   0.000003   0.008592   0.000105   0.000000   0.000000
    24  H    0.004700  -0.000057   0.000136   0.000007   0.000000  -0.000000
    25  H   -0.035565  -0.002818   0.000409  -0.000022  -0.000000   0.000002
    26  H   -0.047421  -0.001046   0.004901  -0.000061   0.000000  -0.000000
    27  H    0.005059  -0.000174  -0.040311   0.403665  -0.000079   0.000001
              19         20         21         22         23         24
     1  O    0.000001   0.000000  -0.000000  -0.000000   0.000000   0.000000
     2  N   -0.000004  -0.000000   0.000000   0.000000  -0.000000   0.000000
     3  O    0.000000   0.000000   0.000000  -0.000000   0.000000   0.000000
     4  C   -0.001227  -0.000079   0.000001  -0.000000   0.000041   0.000000
     5  C    0.001233   0.000153   0.000001  -0.000003  -0.000000  -0.000000
     6  N   -0.000353  -0.000428  -0.000077  -0.000117  -0.000031   0.000006
     7  C   -0.036849  -0.042417   0.004600  -0.004848   0.000578  -0.000130
     8  H    0.004361  -0.002077  -0.000076   0.003558   0.000035  -0.000102
     9  C    0.390230   0.399487  -0.036360  -0.046956  -0.001958   0.004388
    10  C   -0.032070  -0.035302   0.402433   0.397754  -0.039016  -0.038436
    11  C   -0.002212   0.003931  -0.034894  -0.045403   0.399178   0.402340
    12  C    0.000689  -0.000415   0.004349  -0.001020  -0.037864  -0.038692
    13  C   -0.007546   0.004340  -0.000433   0.000045  -0.007527   0.004700
    14  H    0.000106  -0.000066   0.000010  -0.000055   0.000003  -0.000057
    15  N    0.007695   0.000126  -0.000041   0.000019   0.008592   0.000136
    16  C    0.003005  -0.000036   0.000004  -0.000002   0.000105   0.000007
    17  H    0.000016   0.000002  -0.000000   0.000000   0.000000   0.000000
    18  H   -0.000149   0.000806   0.000001   0.000001   0.000000  -0.000000
    19  H    0.504918  -0.024735  -0.002788   0.003959   0.001513  -0.000066
    20  H   -0.024735   0.541153  -0.002692  -0.002991  -0.000045  -0.000083
    21  H   -0.002788  -0.002692   0.524028  -0.027403  -0.002898  -0.002242
    22  H    0.003959  -0.002991  -0.027403   0.571320   0.004137  -0.003656
    23  H    0.001513  -0.000045  -0.002898   0.004137   0.498945  -0.025450
    24  H   -0.000066  -0.000083  -0.002242  -0.003656  -0.025450   0.538123
    25  H   -0.000029   0.000012  -0.000087  -0.000080  -0.002317  -0.002292
    26  H    0.000019  -0.000030  -0.000081   0.002380   0.004067  -0.003034
    27  H    0.000083   0.000000  -0.000000   0.000000  -0.000035  -0.000000
              25         26         27
     1  O    0.000000   0.000000   0.006136
     2  N   -0.000000  -0.000000  -0.000882
     3  O    0.000000   0.000000   0.000019
     4  C    0.000024   0.000006  -0.063406
     5  C    0.000000  -0.000002   0.002214
     6  N   -0.000090  -0.000060   0.000017
     7  C    0.005153  -0.003908  -0.000407
     8  H   -0.000025   0.001686   0.000009
     9  C   -0.000423   0.000969  -0.000058
    10  C    0.004190  -0.002232   0.000007
    11  C   -0.033400  -0.041478   0.000012
    12  C    0.398273   0.396734  -0.000036
    13  C   -0.035565  -0.047421   0.005059
    14  H   -0.002818  -0.001046  -0.000174
    15  N    0.000409   0.004901  -0.040311
    16  C   -0.000022  -0.000061   0.403665
    17  H   -0.000000   0.000000  -0.000079
    18  H    0.000002  -0.000000   0.000001
    19  H   -0.000029   0.000019   0.000083
    20  H    0.000012  -0.000030   0.000000
    21  H   -0.000087  -0.000081  -0.000000
    22  H   -0.000080   0.002380   0.000000
    23  H   -0.002317   0.004067  -0.000035
    24  H   -0.002292  -0.003034  -0.000000
    25  H    0.506118  -0.024078  -0.000013
    26  H   -0.024078   0.562326   0.000001
    27  H   -0.000013   0.000001   0.439242
 Mulliken charges:
               1
     1  O   -0.467208
     2  N    0.491290
     3  O   -0.504051
     4  C    0.000484
     5  C    0.188903
     6  N   -0.780279
     7  C    0.060208
     8  H    0.180087
     9  C   -0.301413
    10  C   -0.327950
    11  C   -0.321495
    12  C   -0.306655
    13  C   -0.037154
    14  H    0.189949
    15  N   -0.511195
    16  C    0.119931
    17  H    0.295268
    18  H    0.404867
    19  H    0.190200
    20  H    0.161385
    21  H    0.174645
    22  H    0.149360
    23  H    0.199947
    24  H    0.164540
    25  H    0.187056
    26  H    0.150342
    27  H    0.248938
 Sum of Mulliken charges =  -0.00000
 Mulliken charges with hydrogens summed into heavy atoms:
               1
     1  O   -0.467208
     2  N    0.491290
     3  O   -0.504051
     4  C    0.000484
     5  C    0.484170
     6  N   -0.375412
     7  C    0.240295
     9  C    0.050173
    10  C   -0.003945
    11  C    0.042992
    12  C    0.030743
    13  C    0.152795
    15  N   -0.511195
    16  C    0.368868
 Electronic spatial extent (au):  <R**2>=           3005.2977
 Charge=             -0.0000 electrons
 Dipole moment (field-independent basis, Debye):
    X=              5.4156    Y=              4.7971    Z=              1.2781  Tot=              7.3467
 Quadrupole moment (field-independent basis, Debye-Ang):
   XX=           -106.1397   YY=            -79.2229   ZZ=            -81.5021
   XY=             -1.7675   XZ=             -0.1224   YZ=              1.8562
 Traceless Quadrupole moment (field-independent basis, Debye-Ang):
   XX=            -17.1848   YY=              9.7320   ZZ=              7.4528
   XY=             -1.7675   XZ=             -0.1224   YZ=              1.8562
 Octapole moment (field-independent basis, Debye-Ang**2):
  XXX=             92.3872  YYY=             36.2954  ZZZ=             -1.5309  XYY=             -4.5812
  XXY=              9.5465  XXZ=              4.8670  XZZ=             -9.7606  YZZ=             -0.3916
  YYZ=              7.9729  XYZ=              0.2571
 Hexadecapole moment (field-independent basis, Debye-Ang**3):
 XXXX=          -3382.0322 YYYY=           -600.9783 ZZZZ=           -303.8558 XXXY=            -20.9782
 XXXZ=            -12.9853 YYYX=             -9.0191 YYYZ=             25.0620 ZZZX=              2.1697
 ZZZY=              7.1341 XXYY=           -627.7288 XXZZ=           -523.8019 YYZZ=           -157.3280
 XXYZ=             -4.2676 YYXZ=              1.7990 ZZXY=              4.6732
 N-N= 9.312435485809D+02 E-N=-3.409204010602D+03  KE= 6.596293745558D+02
 Unable to Open any file for archive entry.
 1\1\GINC-LOTUS\FOpt\RMP2-FC\6-31G(d)\C9H13N3O2\ALEXEY\01-Jul-2023\0\\#
 MP2/6-31G* SCF=Tight Opt=(ModRedun, MaxCycle=20 ) NoSymm\\MolName:\\0,
 1\O,-3.5064989717,-1.3908318733,-0.3699037024\N,-3.1211099205,-0.23265
 90145,-0.1174019188\O,-3.8956939708,0.7280638055,0.0570771182\C,-1.686
 6194532,-0.023877906,-0.0087656438\C,-1.3013997693,1.2608121884,0.2752
 297631\N,-0.0571509931,1.750347964,0.3857564643\C,1.2057708442,1.02417
 04965,0.3588049326\H,1.8537207932,1.5535479286,1.0736887228\C,1.908731
 1386,1.0346084647,-0.9972910139\C,3.3071711674,0.4280671241,-0.8333743
 532\C,3.2594222302,-0.9677230308,-0.2060453202\C,2.4648631714,-0.97765
 51523,1.1016753158\C,1.0550739827,-0.4241788224,0.8653343634\H,0.47883
 36487,-0.4023826016,1.8039403328\N,0.4083921519,-1.3178077386,-0.09038
 0808\C,-0.838972787,-1.1380975572,-0.3855989185\H,-2.0961872582,1.9876
 990551,0.418808839\H,0.0018512749,2.7355077361,0.6149521684\H,1.314300
 5319,0.4567846169,-1.713002401\H,1.9745643754,2.0623630624,-1.37551537
 23\H,3.8107707579,0.3894756994,-1.8060601091\H,3.9071664533,1.09471053
 37,-0.1976807765\H,2.7815078985,-1.6648742518,-0.9013596884\H,4.278648
 796,-1.3311214375,-0.0290605785\H,2.3795758627,-1.9993587273,1.4861220
 77\H,2.9749520669,-0.3793118775,1.8692290112\H,-1.3006840221,-1.893288
 6846,-1.0211785038\\Version=ES64L-G16RevC.02\HF=-661.3003666\MP2=-663.
 3346493\RMSD=9.593e-09\RMSF=2.834e-05\Dipole=1.9791372,1.6922543,0.470
 2178\PG=C01 [X(C9H13N3O2)]\\@
 The archive entry for this job was punched.


 OLD AGE AND TREACHERY WILL ALWAYS PREVAIL OVER YOUTH AND SKILL.
 Job cpu time:       0 days  1 hours  9 minutes 55.0 seconds.
 Elapsed time:       0 days  0 hours 21 minutes  3.1 seconds.
 File lengths (MBytes):  RWF=     31 Int=      0 D2E=      0 Chk=      7 Scr=      1
 Normal termination of Gaussian 16 at Sat Jul  1 06:21:35 2023.
