 Entering Gaussian System, Link 0=g16
 Initial command:
 /home/alexey/programs//g16/l1.exe "/home/alexey/tmp/Gau-1278390.inp" -scrdir="/home/alexey/tmp/"
 Entering Link 1 = /home/alexey/programs//g16/l1.exe PID=   1278392.
  
 Copyright (c) 1988-2021, Gaussian, Inc.  All Rights Reserved.
  
 This is part of the Gaussian(R) 16 program.  It is based on
 the Gaussian(R) 09 system (copyright 2009, Gaussian, Inc.),
 the Gaussian(R) 03 system (copyright 2003, Gaussian, Inc.),
 the Gaussian(R) 98 system (copyright 1998, Gaussian, Inc.),
 the Gaussian(R) 94 system (copyright 1995, Gaussian, Inc.),
 the Gaussian 92(TM) system (copyright 1992, Gaussian, Inc.),
 the Gaussian 90(TM) system (copyright 1990, Gaussian, Inc.),
 the Gaussian 88(TM) system (copyright 1988, Gaussian, Inc.),
 the Gaussian 86(TM) system (copyright 1986, Carnegie Mellon
 University), and the Gaussian 82(TM) system (copyright 1983,
 Carnegie Mellon University). Gaussian is a federally registered
 trademark of Gaussian, Inc.
  
 This software contains proprietary and confidential information,
 including trade secrets, belonging to Gaussian, Inc.
  
 This software is provided under written license and may be
 used, copied, transmitted, or stored only in accord with that
 written license.
  
 The following legend is applicable only to US Government
 contracts under FAR:
  
                    RESTRICTED RIGHTS LEGEND
  
 Use, reproduction and disclosure by the US Government is
 subject to restrictions as set forth in subparagraphs (a)
 and (c) of the Commercial Computer Software - Restricted
 Rights clause in FAR 52.227-19.
  
 Gaussian, Inc.
 340 Quinnipiac St., Bldg. 40, Wallingford CT 06492
  
  
 ---------------------------------------------------------------
 Warning -- This program may not be used in any manner that
 competes with the business of Gaussian, Inc. or will provide
 assistance to any competitor of Gaussian, Inc.  The licensee
 of this program is prohibited from giving any competitor of
 Gaussian, Inc. access to this program.  By using this program,
 the user acknowledges that Gaussian, Inc. is engaged in the
 business of creating and licensing software in the field of
 computational chemistry and represents and warrants to the
 licensee that it is not a competitor of Gaussian, Inc. and that
 it will not use this program in any manner prohibited above.
 ---------------------------------------------------------------
  

 Cite this work as:
 Gaussian 16, Revision C.02,
 M. J. Frisch, G. W. Trucks, H. B. Schlegel, G. E. Scuseria, 
 M. A. Robb, J. R. Cheeseman, G. Scalmani, V. Barone, 
 G. A. Petersson, H. Nakatsuji, X. Li, M. Caricato, A. V. Marenich, 
 J. Bloino, B. G. Janesko, R. Gomperts, B. Mennucci, H. P. Hratchian, 
 J. V. Ortiz, A. F. Izmaylov, J. L. Sonnenberg, D. Williams-Young, 
 F. Ding, F. Lipparini, F. Egidi, J. Goings, B. Peng, A. Petrone, 
 T. Henderson, D. Ranasinghe, V. G. Zakrzewski, J. Gao, N. Rega, 
 G. Zheng, W. Liang, M. Hada, M. Ehara, K. Toyota, R. Fukuda, 
 J. Hasegawa, M. Ishida, T. Nakajima, Y. Honda, O. Kitao, H. Nakai, 
 T. Vreven, K. Throssell, J. A. Montgomery, Jr., J. E. Peralta, 
 F. Ogliaro, M. J. Bearpark, J. J. Heyd, E. N. Brothers, K. N. Kudin, 
 V. N. Staroverov, T. A. Keith, R. Kobayashi, J. Normand, 
 K. Raghavachari, A. P. Rendell, J. C. Burant, S. S. Iyengar, 
 J. Tomasi, M. Cossi, J. M. Millam, M. Klene, C. Adamo, R. Cammi, 
 J. W. Ochterski, R. L. Martin, K. Morokuma, O. Farkas, 
 J. B. Foresman, and D. J. Fox, Gaussian, Inc., Wallingford CT, 2019.
 
 ******************************************
 Gaussian 16:  ES64L-G16RevC.02  7-Dec-2021
                 1-Jul-2023 
 ******************************************
 %mem=8GB
 %NPROCS=4
 Will use up to    4 processors via shared memory.
 %NoSave
 ---------------------------------------------------------
 #MP2/6-31G* SCF=Tight Opt=(ModRedun, MaxCycle=20 ) NoSymm
 ---------------------------------------------------------
 1/6=20,18=120,19=15,38=1/1,3;
 2/9=110,12=2,15=1,17=6,18=5,40=1/2;
 3/5=1,6=6,7=1,11=9,25=1,30=1,71=1/1,2,3;
 4//1;
 5/5=2,32=2,38=5/2;
 8/6=4,10=2/1;
 9/15=2,16=-3/6;
 10/5=1,31=1/2;
 6/7=2,8=2,9=2,10=2/1;
 7/12=2,30=1/1,2,3,16;
 1/6=20,18=20,19=15/3(2);
 2/9=110,15=1/2;
 99//99;
 2/9=110,15=1/2;
 3/5=1,6=6,7=1,11=9,25=1,30=1,71=1/1,2,3;
 4/5=5,16=3,69=1/1;
 5/5=2,32=2,38=5/2;
 8/6=4,10=2/1;
 9/15=2,16=-3/6;
 10/5=1,31=1/2;
 7/12=2,30=1/1,2,3,16;
 1/6=20,18=20,19=15/3(-8);
 2/9=110,15=1/2;
 6/7=2,8=2,9=2,10=2/1;
 99/9=10/99;
 --------
 MolName:
 --------
 Symbolic Z-matrix:
 Charge =  0 Multiplicity = 1
 8                    0    -3.59002  -1.44912  -0.16367 
 7                    0    -3.2297   -0.28336  -0.00447 
 8                    0    -4.01791   0.65069   0.15382 
 6                    0    -1.76764   0.00602  -0.04096 
 6                    0    -1.37374   1.31319   0.27704 
 7                    0    -0.08465   1.76981   0.37617 
 6                    0     1.19389   0.9964    0.35399 
 1                    0     1.85364   1.49336   1.11198 
 6                    0     1.96675   1.04774  -0.98756 
 6                    0     3.3767    0.45904  -0.79003 
 6                    0     3.30888  -0.9574   -0.19749 
 6                    0     2.45252  -0.99104   1.08683 
 6                    0     1.01803  -0.45208   0.83278 
 1                    0     0.46403  -0.49132   1.79996 
 7                    0     0.36622  -1.318    -0.15199 
 6                    0    -0.87314  -1.11043  -0.45563 
 1                    0    -2.15696   2.05196   0.51523 
 1                    0     0.14639   2.75028   0.19859 
 1                    0     1.42128   0.47281  -1.76588 
 1                    0     2.0569    2.09797  -1.33763 
 1                    0     3.91741   0.43524  -1.76144 
 1                    0     3.95046   1.11129  -0.09431 
 1                    0     2.86504  -1.64516  -0.95232 
 1                    0     4.33486  -1.32323   0.02549 
 1                    0     2.38984  -2.03773   1.45732 
 1                    0     2.94315  -0.38195   1.87474 
 1                    0    -1.36921  -1.851    -1.10156 
 
 The following ModRedundant input section has been read:
 B       2       4 F                                                           
 D       1       2       4      16 F                                           
 D       7      13      15      16 F                                           
 D       7       9      10      11 F                                           
 D       9      10      11      12 F                                           
 D       6       7      13      15 F                                           
 

 GradGradGradGradGradGradGradGradGradGradGradGradGradGradGradGradGradGrad
 Berny optimization.
 Initialization pass.
                           ----------------------------
                           !    Initial Parameters    !
                           ! (Angstroms and Degrees)  !
 --------------------------                            --------------------------
 ! Name  Definition              Value          Derivative Info.                !
 --------------------------------------------------------------------------------
 ! R1    R(1,2)                  1.2305         estimate D2E/DX2                !
 ! R2    R(2,3)                  1.2324         estimate D2E/DX2                !
 ! R3    R(2,4)                  1.4909         Frozen                          !
 ! R4    R(4,5)                  1.4018         estimate D2E/DX2                !
 ! R5    R(4,16)                 1.4895         estimate D2E/DX2                !
 ! R6    R(5,6)                  1.3712         estimate D2E/DX2                !
 ! R7    R(5,17)                 1.1027         estimate D2E/DX2                !
 ! R8    R(6,7)                  1.4944         estimate D2E/DX2                !
 ! R9    R(6,18)                 1.0229         estimate D2E/DX2                !
 ! R10   R(7,8)                  1.1211         estimate D2E/DX2                !
 ! R11   R(7,9)                  1.5491         estimate D2E/DX2                !
 ! R12   R(7,13)                 1.5357         estimate D2E/DX2                !
 ! R13   R(9,10)                 1.5406         estimate D2E/DX2                !
 ! R14   R(9,19)                 1.1108         estimate D2E/DX2                !
 ! R15   R(9,20)                 1.1107         estimate D2E/DX2                !
 ! R16   R(10,11)                1.5369         estimate D2E/DX2                !
 ! R17   R(10,21)                1.112          estimate D2E/DX2                !
 ! R18   R(10,22)                1.1129         estimate D2E/DX2                !
 ! R19   R(11,12)                1.544          estimate D2E/DX2                !
 ! R20   R(11,23)                1.1135         estimate D2E/DX2                !
 ! R21   R(11,24)                1.1118         estimate D2E/DX2                !
 ! R22   R(12,13)                1.5533         estimate D2E/DX2                !
 ! R23   R(12,25)                1.1121         estimate D2E/DX2                !
 ! R24   R(12,26)                1.1102         estimate D2E/DX2                !
 ! R25   R(13,14)                1.1153         estimate D2E/DX2                !
 ! R26   R(13,15)                1.4644         estimate D2E/DX2                !
 ! R27   R(15,16)                1.2928         estimate D2E/DX2                !
 ! R28   R(16,27)                1.1008         estimate D2E/DX2                !
 ! A1    A(1,2,3)              123.1867         estimate D2E/DX2                !
 ! A2    A(1,2,4)              117.8969         estimate D2E/DX2                !
 ! A3    A(3,2,4)              118.8979         estimate D2E/DX2                !
 ! A4    A(2,4,5)              116.8091         estimate D2E/DX2                !
 ! A5    A(2,4,16)             116.7607         estimate D2E/DX2                !
 ! A6    A(5,4,16)             126.3968         estimate D2E/DX2                !
 ! A7    A(4,5,6)              126.2368         estimate D2E/DX2                !
 ! A8    A(4,5,17)             118.3049         estimate D2E/DX2                !
 ! A9    A(6,5,17)             115.4063         estimate D2E/DX2                !
 ! A10   A(5,6,7)              129.1173         estimate D2E/DX2                !
 ! A11   A(5,6,18)             121.2667         estimate D2E/DX2                !
 ! A12   A(7,6,18)             107.4732         estimate D2E/DX2                !
 ! A13   A(6,7,8)              105.3096         estimate D2E/DX2                !
 ! A14   A(6,7,9)              114.9949         estimate D2E/DX2                !
 ! A15   A(6,7,13)             112.6776         estimate D2E/DX2                !
 ! A16   A(8,7,9)              106.0958         estimate D2E/DX2                !
 ! A17   A(8,7,13)             105.945          estimate D2E/DX2                !
 ! A18   A(9,7,13)             111.0021         estimate D2E/DX2                !
 ! A19   A(7,9,10)             109.4443         estimate D2E/DX2                !
 ! A20   A(7,9,19)             110.161          estimate D2E/DX2                !
 ! A21   A(7,9,20)             110.1685         estimate D2E/DX2                !
 ! A22   A(10,9,19)            109.9664         estimate D2E/DX2                !
 ! A23   A(10,9,20)            109.1136         estimate D2E/DX2                !
 ! A24   A(19,9,20)            107.964          estimate D2E/DX2                !
 ! A25   A(9,10,11)            111.175          estimate D2E/DX2                !
 ! A26   A(9,10,21)            109.9485         estimate D2E/DX2                !
 ! A27   A(9,10,22)            109.148          estimate D2E/DX2                !
 ! A28   A(11,10,21)           109.7874         estimate D2E/DX2                !
 ! A29   A(11,10,22)           108.7758         estimate D2E/DX2                !
 ! A30   A(21,10,22)           107.9353         estimate D2E/DX2                !
 ! A31   A(10,11,12)           111.4234         estimate D2E/DX2                !
 ! A32   A(10,11,23)           108.9957         estimate D2E/DX2                !
 ! A33   A(10,11,24)           109.8676         estimate D2E/DX2                !
 ! A34   A(12,11,23)           109.2296         estimate D2E/DX2                !
 ! A35   A(12,11,24)           109.7438         estimate D2E/DX2                !
 ! A36   A(23,11,24)           107.4909         estimate D2E/DX2                !
 ! A37   A(11,12,13)           111.6294         estimate D2E/DX2                !
 ! A38   A(11,12,25)           109.2009         estimate D2E/DX2                !
 ! A39   A(11,12,26)           109.4678         estimate D2E/DX2                !
 ! A40   A(13,12,25)           109.2084         estimate D2E/DX2                !
 ! A41   A(13,12,26)           109.5021         estimate D2E/DX2                !
 ! A42   A(25,12,26)           107.7487         estimate D2E/DX2                !
 ! A43   A(7,13,12)            105.8138         estimate D2E/DX2                !
 ! A44   A(7,13,14)            111.1275         estimate D2E/DX2                !
 ! A45   A(7,13,15)            113.519          estimate D2E/DX2                !
 ! A46   A(12,13,14)           107.7395         estimate D2E/DX2                !
 ! A47   A(12,13,15)           108.4134         estimate D2E/DX2                !
 ! A48   A(14,13,15)           109.954          estimate D2E/DX2                !
 ! A49   A(13,15,16)           119.3219         estimate D2E/DX2                !
 ! A50   A(4,16,15)            129.101          estimate D2E/DX2                !
 ! A51   A(4,16,27)            113.3906         estimate D2E/DX2                !
 ! A52   A(15,16,27)           117.5049         estimate D2E/DX2                !
 ! D1    D(1,2,4,5)           -173.7082         estimate D2E/DX2                !
 ! D2    D(1,2,4,16)             8.2584         Frozen                          !
 ! D3    D(3,2,4,5)              7.8066         estimate D2E/DX2                !
 ! D4    D(3,2,4,16)          -170.2267         estimate D2E/DX2                !
 ! D5    D(2,4,5,6)            176.1251         estimate D2E/DX2                !
 ! D6    D(2,4,5,17)            -1.1221         estimate D2E/DX2                !
 ! D7    D(16,4,5,6)            -6.0566         estimate D2E/DX2                !
 ! D8    D(16,4,5,17)          176.6963         estimate D2E/DX2                !
 ! D9    D(2,4,16,15)         -153.3413         estimate D2E/DX2                !
 ! D10   D(2,4,16,27)           25.9462         estimate D2E/DX2                !
 ! D11   D(5,4,16,15)           28.8394         estimate D2E/DX2                !
 ! D12   D(5,4,16,27)         -151.8731         estimate D2E/DX2                !
 ! D13   D(4,5,6,7)             -8.7498         estimate D2E/DX2                !
 ! D14   D(4,5,6,18)           152.4304         estimate D2E/DX2                !
 ! D15   D(17,5,6,7)           168.567          estimate D2E/DX2                !
 ! D16   D(17,5,6,18)          -30.2527         estimate D2E/DX2                !
 ! D17   D(5,6,7,8)           -141.2006         estimate D2E/DX2                !
 ! D18   D(5,6,7,9)            102.3909         estimate D2E/DX2                !
 ! D19   D(5,6,7,13)           -26.1719         estimate D2E/DX2                !
 ! D20   D(18,6,7,8)            55.6021         estimate D2E/DX2                !
 ! D21   D(18,6,7,9)           -60.8064         estimate D2E/DX2                !
 ! D22   D(18,6,7,13)          170.6309         estimate D2E/DX2                !
 ! D23   D(6,7,9,10)           168.7265         estimate D2E/DX2                !
 ! D24   D(6,7,9,19)           -70.251          estimate D2E/DX2                !
 ! D25   D(6,7,9,20)            48.7531         estimate D2E/DX2                !
 ! D26   D(8,7,9,10)            52.7675         estimate D2E/DX2                !
 ! D27   D(8,7,9,19)           173.7901         estimate D2E/DX2                !
 ! D28   D(8,7,9,20)           -67.2059         estimate D2E/DX2                !
 ! D29   D(13,7,9,10)          -61.8808         estimate D2E/DX2                !
 ! D30   D(13,7,9,19)           59.1418         estimate D2E/DX2                !
 ! D31   D(13,7,9,20)          178.1458         estimate D2E/DX2                !
 ! D32   D(6,7,13,12)         -166.2072         estimate D2E/DX2                !
 ! D33   D(6,7,13,14)          -49.5314         estimate D2E/DX2                !
 ! D34   D(6,7,13,15)           75.0222         Frozen                          !
 ! D35   D(8,7,13,12)          -51.5625         estimate D2E/DX2                !
 ! D36   D(8,7,13,14)           65.1133         estimate D2E/DX2                !
 ! D37   D(8,7,13,15)         -170.3331         estimate D2E/DX2                !
 ! D38   D(9,7,13,12)           63.18           estimate D2E/DX2                !
 ! D39   D(9,7,13,14)          179.8558         estimate D2E/DX2                !
 ! D40   D(9,7,13,15)          -55.5906         estimate D2E/DX2                !
 ! D41   D(7,9,10,11)           54.8126         Frozen                          !
 ! D42   D(7,9,10,21)          176.603          estimate D2E/DX2                !
 ! D43   D(7,9,10,22)          -65.1802         estimate D2E/DX2                !
 ! D44   D(19,9,10,11)         -66.3279         estimate D2E/DX2                !
 ! D45   D(19,9,10,21)          55.4625         estimate D2E/DX2                !
 ! D46   D(19,9,10,22)         173.6794         estimate D2E/DX2                !
 ! D47   D(20,9,10,11)         175.4304         estimate D2E/DX2                !
 ! D48   D(20,9,10,21)         -62.7792         estimate D2E/DX2                !
 ! D49   D(20,9,10,22)          55.4377         estimate D2E/DX2                !
 ! D50   D(9,10,11,12)         -52.8227         Frozen                          !
 ! D51   D(9,10,11,23)          67.791          estimate D2E/DX2                !
 ! D52   D(9,10,11,24)        -174.6686         estimate D2E/DX2                !
 ! D53   D(21,10,11,12)       -174.7069         estimate D2E/DX2                !
 ! D54   D(21,10,11,23)        -54.0932         estimate D2E/DX2                !
 ! D55   D(21,10,11,24)         63.4472         estimate D2E/DX2                !
 ! D56   D(22,10,11,12)         67.3906         estimate D2E/DX2                !
 ! D57   D(22,10,11,23)       -171.9958         estimate D2E/DX2                !
 ! D58   D(22,10,11,24)        -54.4554         estimate D2E/DX2                !
 ! D59   D(10,11,12,13)         56.5716         estimate D2E/DX2                !
 ! D60   D(10,11,12,25)        177.4264         estimate D2E/DX2                !
 ! D61   D(10,11,12,26)        -64.8325         estimate D2E/DX2                !
 ! D62   D(23,11,12,13)        -63.9047         estimate D2E/DX2                !
 ! D63   D(23,11,12,25)         56.9501         estimate D2E/DX2                !
 ! D64   D(23,11,12,26)        174.6912         estimate D2E/DX2                !
 ! D65   D(24,11,12,13)        178.4892         estimate D2E/DX2                !
 ! D66   D(24,11,12,25)        -60.656          estimate D2E/DX2                !
 ! D67   D(24,11,12,26)         57.0851         estimate D2E/DX2                !
 ! D68   D(11,12,13,7)         -60.2472         estimate D2E/DX2                !
 ! D69   D(11,12,13,14)       -179.1896         estimate D2E/DX2                !
 ! D70   D(11,12,13,15)         61.8544         estimate D2E/DX2                !
 ! D71   D(25,12,13,7)         178.9024         estimate D2E/DX2                !
 ! D72   D(25,12,13,14)         59.96           estimate D2E/DX2                !
 ! D73   D(25,12,13,15)        -58.996          estimate D2E/DX2                !
 ! D74   D(26,12,13,7)          61.137          estimate D2E/DX2                !
 ! D75   D(26,12,13,14)        -57.8054         estimate D2E/DX2                !
 ! D76   D(26,12,13,15)       -176.7613         estimate D2E/DX2                !
 ! D77   D(7,13,15,16)         -67.1602         Frozen                          !
 ! D78   D(12,13,15,16)        175.5735         estimate D2E/DX2                !
 ! D79   D(14,13,15,16)         58.0244         estimate D2E/DX2                !
 ! D80   D(13,15,16,4)           6.6968         estimate D2E/DX2                !
 ! D81   D(13,15,16,27)       -172.5659         estimate D2E/DX2                !
 --------------------------------------------------------------------------------
 Trust Radius=3.00D-01 FncErr=1.00D-07 GrdErr=1.00D-07 EigMax=2.50D+02 EigMin=1.00D-04
 Number of steps in this run=     20 maximum allowed number of steps=    162.
 GradGradGradGradGradGradGradGradGradGradGradGradGradGradGradGradGradGrad

                          Input orientation:                          
 ---------------------------------------------------------------------
 Center     Atomic      Atomic             Coordinates (Angstroms)
 Number     Number       Type             X           Y           Z
 ---------------------------------------------------------------------
      1          8           0       -3.590020   -1.449120   -0.163670
      2          7           0       -3.229700   -0.283360   -0.004470
      3          8           0       -4.017910    0.650690    0.153820
      4          6           0       -1.767640    0.006020   -0.040960
      5          6           0       -1.373740    1.313190    0.277040
      6          7           0       -0.084650    1.769810    0.376170
      7          6           0        1.193890    0.996400    0.353990
      8          1           0        1.853640    1.493360    1.111980
      9          6           0        1.966750    1.047740   -0.987560
     10          6           0        3.376700    0.459040   -0.790030
     11          6           0        3.308880   -0.957400   -0.197490
     12          6           0        2.452520   -0.991040    1.086830
     13          6           0        1.018030   -0.452080    0.832780
     14          1           0        0.464030   -0.491320    1.799960
     15          7           0        0.366220   -1.318000   -0.151990
     16          6           0       -0.873140   -1.110430   -0.455630
     17          1           0       -2.156960    2.051960    0.515230
     18          1           0        0.146390    2.750280    0.198590
     19          1           0        1.421280    0.472810   -1.765880
     20          1           0        2.056900    2.097970   -1.337630
     21          1           0        3.917410    0.435240   -1.761440
     22          1           0        3.950460    1.111290   -0.094310
     23          1           0        2.865040   -1.645160   -0.952320
     24          1           0        4.334860   -1.323230    0.025490
     25          1           0        2.389840   -2.037730    1.457320
     26          1           0        2.943150   -0.381950    1.874740
     27          1           0       -1.369210   -1.851000   -1.101560
 ---------------------------------------------------------------------
                    Distance matrix (angstroms):
                    1          2          3          4          5
     1  O    0.000000
     2  N    1.230517   0.000000
     3  O    2.166354   1.232388   0.000000
     4  C    2.335286   1.490869   2.348884   0.000000
     5  C    3.568820   2.464307   2.728685   1.401776   0.000000
     6  N    4.789630   3.775147   4.095412   2.473339   1.371161
     7  C    5.397623   4.618921   5.227087   3.147618   2.588243
     8  H    6.318141   5.499413   6.008599   4.081068   3.338498
     9  C    6.147422   5.453566   6.105453   3.990852   3.581697
    10  C    7.250420   6.694235   7.457066   5.218292   4.943166
    11  C    6.916484   6.576064   7.509409   5.169500   5.225676
    12  C    6.187558   5.829183   6.740345   4.480601   4.539328
    13  C    4.818830   4.332743   5.199787   2.955205   3.024167
    14  H    4.605274   4.116170   4.909353   2.935419   2.992146
    15  N    3.958429   3.744714   4.815585   2.513705   3.183503
    16  C    2.753432   2.537906   3.655482   1.489477   2.580957
    17  H    3.843453   2.621942   2.357395   2.155641   1.102701
    18  H    5.632668   4.543368   4.663869   3.354379   2.093365
    19  H    5.601252   5.030504   5.770761   3.655469   3.562569
    20  H    6.771096   5.949470   6.420464   4.548045   3.871993
    21  H    7.903492   7.394898   8.166024   5.955172   5.737810
    22  H    7.963627   7.314904   7.985527   5.824185   5.340952
    23  H    6.506013   6.316548   7.339583   5.001869   5.313230
    24  H    7.928137   7.635758   8.583798   6.245945   6.293020
    25  H    6.223568   6.065795   7.070076   4.868922   5.175544
    26  H    6.926491   6.453311   7.244603   5.100193   4.905271
    27  H    2.444001   2.668806   3.853575   2.175349   3.451472
                    6          7          8          9         10
     6  N    0.000000
     7  C    1.494429   0.000000
     8  H    2.091604   1.121066   0.000000
     9  C    2.566980   1.549098   2.149288   0.000000
    10  C    3.880604   2.522340   2.647106   1.540631   0.000000
    11  C    4.391219   2.931663   3.136664   2.538919   1.536882
    12  C    3.816355   2.463965   2.555686   2.948846   2.545475
    13  C    2.522140   1.535663   2.135634   2.542276   3.004493
    14  H    2.727808   2.199281   2.518588   3.520957   4.011842
    15  N    3.164934   2.509482   3.422540   2.976004   3.553584
    16  C    3.099902   3.060528   4.083191   3.606331   4.542708
    17  H    2.096047   3.516874   4.093050   4.502424   5.904447
    18  H    1.022857   2.048780   2.308426   2.760309   4.081918
    19  H    2.922056   2.195382   3.083916   1.110794   2.185438
    20  H    2.762433   2.195409   2.531296   1.110702   2.174357
    21  H    4.729370   3.493924   3.692602   2.186120   1.112012
    22  H    4.115472   2.795148   2.449034   2.176474   1.112950
    23  H    4.703996   3.387776   3.890318   2.838992   2.171587
    24  H    5.405732   3.918455   3.907697   3.500816   2.181658
    25  H    4.667906   3.442903   3.588226   3.959365   3.501191
    26  H    4.005416   2.696746   2.299048   3.345165   2.827760
    27  H    4.116315   4.098267   5.145023   4.420896   5.287438
                   11         12         13         14         15
    11  C    0.000000
    12  C    1.544008   0.000000
    13  C    2.562186   1.553313   0.000000
    14  H    3.507165   2.170799   1.115299   0.000000
    15  N    2.965021   2.448311   1.464393   2.122045   0.000000
    16  C    4.192773   3.667895   2.381165   2.694254   1.292786
    17  H    6.280097   5.552826   4.056059   3.871485   4.262423
    18  H    4.889286   4.483824   3.378914   3.629497   4.089271
    19  H    2.840490   3.368125   2.787663   3.815900   2.631500
    20  H    3.493230   3.946708   3.506093   4.368767   3.991615
    21  H    2.180755   3.506112   3.990453   5.046575   4.274942
    22  H    2.168352   2.838786   3.450039   4.279230   4.330306
    23  H    1.113452   2.180866   2.832220   3.830306   2.644175
    24  H    1.111839   2.186320   3.523064   4.338680   3.972610
    25  H    2.179482   1.112093   2.187738   2.493498   2.683827
    26  H    2.181522   1.110185   2.190134   2.482658   3.409456
    27  H    4.847720   4.487115   3.376028   3.691655   2.048778
                   16         17         18         19         20
    16  C    0.000000
    17  H    3.548447   0.000000
    18  H    4.046298   2.427619   0.000000
    19  H    3.080222   4.527801   3.266704   0.000000
    20  H    4.433609   4.603458   2.536834   1.796818   0.000000
    21  H    5.200347   6.685430   4.839599   2.496417   2.530965
    22  H    5.322942   6.209427   4.152472   3.098153   2.470820
    23  H    3.808757   6.406472   5.294860   2.689260   3.848711
    24  H    5.234503   7.333177   5.845231   3.863122   4.330336
    25  H    3.894394   6.187608   5.435302   4.198802   5.002660
    26  H    4.530494   5.812341   4.521306   4.037427   4.153885
    27  H    1.100797   4.297401   5.015896   3.691646   5.233385
                   21         22         23         24         25
    21  H    0.000000
    22  H    1.799294   0.000000
    23  H    2.467838   3.084207   0.000000
    24  H    2.541574   2.467591   1.794470   0.000000
    25  H    4.336988   3.841799   2.487226   2.518680   0.000000
    26  H    3.852115   2.668632   3.097429   2.498518   1.794993
    27  H    5.797472   6.171597   4.241876   5.838253   4.551175
                   26         27
    26  H    0.000000
    27  H    5.441775   0.000000
 Symmetry turned off by external request.
 Stoichiometry    C9H13N3O2
 Framework group  C1[X(C9H13N3O2)]
 Deg. of freedom    75
 Full point group                 C1      NOp   1
 Rotational constants (GHZ):           1.6792172           0.4028628           0.3573128
 Standard basis: 6-31G(d) (6D, 7F)
   236 basis functions,   444 primitive gaussians,   236 cartesian basis functions
    52 alpha electrons       52 beta electrons
       nuclear repulsion energy       919.2115023254 Hartrees.
 NAtoms=   27 NActive=   27 NUniq=   27 SFac= 1.00D+00 NAtFMM=   60 NAOKFM=F Big=F
 Integral buffers will be    131072 words long.
 Raffenetti 1 integral format.
 Two-electron integral symmetry is turned off.
 One-electron integrals computed using PRISM.
 NBasis=   236 RedAO= T EigKep=  1.24D-03  NBF=   236
 NBsUse=   236 1.00D-06 EigRej= -1.00D+00 NBFU=   236
 ExpMin= 1.61D-01 ExpMax= 5.48D+03 ExpMxC= 8.25D+02 IAcc=3 IRadAn=         5 AccDes= 0.00D+00
 Harris functional with IExCor=  205 and IRadAn=       5 diagonalized for initial guess.
 HarFok:  IExCor=  205 AccDes= 0.00D+00 IRadAn=         5 IDoV= 1 UseB2=F ITyADJ=14
 ICtDFT=  3500011 ScaDFX=  1.000000  1.000000  1.000000  1.000000
 FoFCou: FMM=F IPFlag=           0 FMFlag=      100000 FMFlg1=           0
         NFxFlg=           0 DoJE=T BraDBF=F KetDBF=T FulRan=T
         wScrn=  0.000000 ICntrl=       500 IOpCl=  0 I1Cent=   200000004 NGrid=           0
         NMat0=    1 NMatS0=      1 NMatT0=    0 NMatD0=    1 NMtDS0=    0 NMtDT0=    0
 Symmetry not used in FoFCou.
 Keep R1 ints in memory in canonical form, NReq=397720213.
 Requested convergence on RMS density matrix=1.00D-08 within 128 cycles.
 Requested convergence on MAX density matrix=1.00D-06.
 Requested convergence on             energy=1.00D-06.
 No special actions if energy rises.
 SCF Done:  E(RHF) =  -661.283359905     A.U. after   16 cycles
            NFock= 16  Conv=0.90D-08     -V/T= 2.0036
 ExpMin= 1.61D-01 ExpMax= 5.48D+03 ExpMxC= 8.25D+02 IAcc=3 IRadAn=         5 AccDes= 0.00D+00
 HarFok:  IExCor=  205 AccDes= 0.00D+00 IRadAn=         5 IDoV=-2 UseB2=F ITyADJ=14
 ICtDFT= 12500011 ScaDFX=  1.000000  1.000000  1.000000  1.000000
 Range of M.O.s used for correlation:    15   236
 NBasis=   236 NAE=    52 NBE=    52 NFC=    14 NFV=     0
 NROrb=    222 NOA=    38 NOB=    38 NVA=   184 NVB=   184
 Fully direct method using O(ONN) memory.
 JobTyp=1 Pass  1:  I=  15 to  52 NPSUse=  4 ParTrn=T ParDer=T DoDerP=T.
 Spin components of T(2) and E(2):
     alpha-alpha T2 =       0.9183912177D-01 E2=     -0.2717182549D+00
     alpha-beta  T2 =       0.4987075137D+00 E2=     -0.1492808631D+01
     beta-beta   T2 =       0.9183912177D-01 E2=     -0.2717182549D+00
 ANorm=    0.1297068139D+01
 E2 =    -0.2036245141D+01 EUMP2 =    -0.66331960504550D+03
          IDoAtm=111111111111111111111111111
          Differentiating once with respect to electric field.
                with respect to dipole field.
          Differentiating once with respect to nuclear coordinates.
 Keep R1 ints in memory in canonical form, NReq=397723379.
          There are     1 degrees of freedom in the 1st order CPHF.  IDoFFX=0 NUNeed=     1.
 LinEq1:  Iter=  0 NonCon=     1 RMS=4.59D-03 Max=9.21D-02 NDo=     1
 AX will form     1 AO Fock derivatives at one time.
 LinEq1:  Iter=  1 NonCon=     1 RMS=1.55D-03 Max=2.71D-02 NDo=     1
 LinEq1:  Iter=  2 NonCon=     1 RMS=6.38D-04 Max=1.50D-02 NDo=     1
 LinEq1:  Iter=  3 NonCon=     1 RMS=2.94D-04 Max=9.74D-03 NDo=     1
 LinEq1:  Iter=  4 NonCon=     1 RMS=9.09D-05 Max=2.12D-03 NDo=     1
 LinEq1:  Iter=  5 NonCon=     1 RMS=3.84D-05 Max=1.98D-03 NDo=     1
 LinEq1:  Iter=  6 NonCon=     1 RMS=1.55D-05 Max=5.60D-04 NDo=     1
 LinEq1:  Iter=  7 NonCon=     1 RMS=5.92D-06 Max=9.36D-05 NDo=     1
 LinEq1:  Iter=  8 NonCon=     1 RMS=2.33D-06 Max=5.83D-05 NDo=     1
 LinEq1:  Iter=  9 NonCon=     1 RMS=8.58D-07 Max=2.52D-05 NDo=     1
 LinEq1:  Iter= 10 NonCon=     1 RMS=4.27D-07 Max=1.57D-05 NDo=     1
 LinEq1:  Iter= 11 NonCon=     1 RMS=1.53D-07 Max=5.76D-06 NDo=     1
 LinEq1:  Iter= 12 NonCon=     1 RMS=5.37D-08 Max=7.99D-07 NDo=     1
 LinEq1:  Iter= 13 NonCon=     1 RMS=1.70D-08 Max=3.50D-07 NDo=     1
 LinEq1:  Iter= 14 NonCon=     1 RMS=5.54D-09 Max=1.56D-07 NDo=     1
 LinEq1:  Iter= 15 NonCon=     1 RMS=2.10D-09 Max=4.98D-08 NDo=     1
 LinEq1:  Iter= 16 NonCon=     1 RMS=8.23D-10 Max=1.48D-08 NDo=     1
 LinEq1:  Iter= 17 NonCon=     1 RMS=2.71D-10 Max=4.41D-09 NDo=     1
 LinEq1:  Iter= 18 NonCon=     1 RMS=9.18D-11 Max=1.14D-09 NDo=     1
 LinEq1:  Iter= 19 NonCon=     0 RMS=2.96D-11 Max=4.35D-10 NDo=     1
 Linear equations converged to 1.000D-10 1.000D-09 after    19 iterations.
 End of Minotr F.D. properties file   721 does not exist.
 End of Minotr F.D. properties file   722 does not exist.
 End of Minotr F.D. properties file   788 does not exist.

 **********************************************************************

            Population analysis using the SCF Density.

 **********************************************************************

 Alpha  occ. eigenvalues --  -20.59580 -20.59089 -15.85125 -15.63451 -15.56888
 Alpha  occ. eigenvalues --  -11.36003 -11.30455 -11.30131 -11.29867 -11.27719
 Alpha  occ. eigenvalues --  -11.24672 -11.23910 -11.23430 -11.22878  -1.58527
 Alpha  occ. eigenvalues --   -1.37777  -1.28671  -1.22768  -1.13516  -1.08895
 Alpha  occ. eigenvalues --   -1.01854  -1.00896  -0.93786  -0.89018  -0.84978
 Alpha  occ. eigenvalues --   -0.81567  -0.78057  -0.77003  -0.74379  -0.71184
 Alpha  occ. eigenvalues --   -0.70322  -0.69796  -0.67417  -0.64379  -0.63291
 Alpha  occ. eigenvalues --   -0.61665  -0.60372  -0.57464  -0.56497  -0.54919
 Alpha  occ. eigenvalues --   -0.53587  -0.50766  -0.49324  -0.48580  -0.47784
 Alpha  occ. eigenvalues --   -0.47567  -0.46107  -0.45744  -0.43881  -0.42103
 Alpha  occ. eigenvalues --   -0.40027  -0.33853
 Alpha virt. eigenvalues --    0.07096   0.11825   0.18227   0.21435   0.23483
 Alpha virt. eigenvalues --    0.24282   0.26317   0.27767   0.28558   0.28842
 Alpha virt. eigenvalues --    0.30033   0.31086   0.31835   0.32241   0.33338
 Alpha virt. eigenvalues --    0.33748   0.34776   0.36201   0.37610   0.38671
 Alpha virt. eigenvalues --    0.40697   0.41708   0.44391   0.45235   0.45726
 Alpha virt. eigenvalues --    0.45954   0.49652   0.53202   0.57369   0.59014
 Alpha virt. eigenvalues --    0.63398   0.69124   0.69261   0.72201   0.74019
 Alpha virt. eigenvalues --    0.74946   0.75819   0.75955   0.77724   0.79295
 Alpha virt. eigenvalues --    0.80699   0.83779   0.85060   0.85365   0.88038
 Alpha virt. eigenvalues --    0.89070   0.90199   0.90746   0.91854   0.94112
 Alpha virt. eigenvalues --    0.95217   0.97161   0.98755   1.00337   1.02005
 Alpha virt. eigenvalues --    1.02792   1.05124   1.06321   1.07038   1.08498
 Alpha virt. eigenvalues --    1.09617   1.10447   1.11192   1.11955   1.13235
 Alpha virt. eigenvalues --    1.13821   1.14168   1.15349   1.16354   1.17290
 Alpha virt. eigenvalues --    1.17889   1.19916   1.21155   1.22352   1.23048
 Alpha virt. eigenvalues --    1.23546   1.24433   1.25933   1.27260   1.27570
 Alpha virt. eigenvalues --    1.29458   1.31244   1.33018   1.35660   1.40024
 Alpha virt. eigenvalues --    1.42887   1.46246   1.47392   1.49049   1.52887
 Alpha virt. eigenvalues --    1.54454   1.55096   1.60703   1.61349   1.65781
 Alpha virt. eigenvalues --    1.68819   1.70746   1.72911   1.73627   1.77520
 Alpha virt. eigenvalues --    1.77736   1.80521   1.84479   1.89386   1.92737
 Alpha virt. eigenvalues --    1.93903   1.96889   1.97938   1.99303   2.01411
 Alpha virt. eigenvalues --    2.03252   2.04729   2.06123   2.08924   2.12229
 Alpha virt. eigenvalues --    2.12892   2.13824   2.17669   2.18931   2.19508
 Alpha virt. eigenvalues --    2.20825   2.22161   2.24495   2.25617   2.26656
 Alpha virt. eigenvalues --    2.29093   2.32273   2.33446   2.35643   2.35930
 Alpha virt. eigenvalues --    2.38397   2.40115   2.41312   2.43485   2.46458
 Alpha virt. eigenvalues --    2.48708   2.50469   2.50937   2.56708   2.57321
 Alpha virt. eigenvalues --    2.60775   2.62865   2.65938   2.68461   2.69046
 Alpha virt. eigenvalues --    2.69743   2.70249   2.74561   2.76671   2.82338
 Alpha virt. eigenvalues --    2.84485   2.86620   2.90125   2.91449   2.95193
 Alpha virt. eigenvalues --    2.97620   2.98611   3.02056   3.03729   3.05679
 Alpha virt. eigenvalues --    3.06945   3.12640   3.19817   3.23371   3.27129
 Alpha virt. eigenvalues --    3.30639   3.34134   3.37472   3.46098   3.59988
 Alpha virt. eigenvalues --    4.10959   4.25034   4.32014   4.36930   4.43182
 Alpha virt. eigenvalues --    4.52805   4.59731   4.60154   4.70836   4.77650
 Alpha virt. eigenvalues --    4.96802   4.99214   5.02824   5.10048
          Condensed to atoms (all electrons):
               1          2          3          4          5          6
     1  O    8.306210   0.315722  -0.091294  -0.081745   0.003697  -0.000014
     2  N    0.315722   5.684823   0.310187   0.262921  -0.046671   0.000932
     3  O   -0.091294   0.310187   8.339610  -0.090009   0.007775   0.000512
     4  C   -0.081745   0.262921  -0.090009   5.250693   0.563653  -0.047859
     5  C    0.003697  -0.046671   0.007775   0.563653   4.671832   0.307561
     6  N   -0.000014   0.000932   0.000512  -0.047859   0.307561   7.191840
     7  C    0.000003  -0.000098   0.000002   0.004064  -0.029108   0.196794
     8  H   -0.000000   0.000002  -0.000000  -0.000174   0.002216  -0.050206
     9  C   -0.000000  -0.000003   0.000000   0.000443   0.001701  -0.055792
    10  C   -0.000000   0.000000  -0.000000  -0.000018  -0.000063   0.003320
    11  C   -0.000000  -0.000000  -0.000000  -0.000015   0.000015  -0.000154
    12  C   -0.000000   0.000002  -0.000000  -0.000092  -0.000126   0.003605
    13  C   -0.000021  -0.000042  -0.000003  -0.010677   0.000439  -0.044092
    14  H   -0.000003  -0.000064   0.000000   0.002992   0.004900  -0.005586
    15  N    0.000171   0.001821  -0.000015  -0.061156  -0.003673   0.001809
    16  C    0.003147  -0.027748   0.002022   0.317788  -0.040554  -0.001402
    17  H    0.000121  -0.003979   0.011970  -0.027252   0.377400  -0.034255
    18  H    0.000000  -0.000036   0.000008   0.000901  -0.024201   0.328102
    19  H    0.000000   0.000000   0.000000  -0.000734   0.000631   0.000654
    20  H    0.000000  -0.000000   0.000000  -0.000025   0.000030  -0.001781
    21  H   -0.000000  -0.000000   0.000000   0.000000   0.000001  -0.000058
    22  H   -0.000000   0.000000  -0.000000  -0.000000  -0.000002  -0.000098
    23  H    0.000000  -0.000000   0.000000   0.000025  -0.000000  -0.000024
    24  H    0.000000   0.000000   0.000000   0.000000  -0.000000   0.000004
    25  H    0.000000  -0.000000   0.000000   0.000019  -0.000001  -0.000071
    26  H    0.000000  -0.000000   0.000000   0.000006  -0.000001  -0.000067
    27  H    0.005267  -0.000286  -0.000006  -0.065937   0.002172   0.000051
               7          8          9         10         11         12
     1  O    0.000003  -0.000000  -0.000000  -0.000000  -0.000000  -0.000000
     2  N   -0.000098   0.000002  -0.000003   0.000000  -0.000000   0.000002
     3  O    0.000002  -0.000000   0.000000  -0.000000  -0.000000  -0.000000
     4  C    0.004064  -0.000174   0.000443  -0.000018  -0.000015  -0.000092
     5  C   -0.029108   0.002216   0.001701  -0.000063   0.000015  -0.000126
     6  N    0.196794  -0.050206  -0.055792   0.003320  -0.000154   0.003605
     7  C    5.003142   0.417033   0.340427  -0.049282  -0.007719  -0.064027
     8  H    0.417033   0.547312  -0.060580   0.001510  -0.000341  -0.002815
     9  C    0.340427  -0.060580   5.181438   0.317904  -0.053035  -0.006276
    10  C   -0.049282   0.001510   0.317904   5.126652   0.332740  -0.060123
    11  C   -0.007719  -0.000341  -0.053035   0.332740   5.123914   0.330679
    12  C   -0.064027  -0.002815  -0.006276  -0.060123   0.330679   5.136678
    13  C    0.332914  -0.040662  -0.050012  -0.001795  -0.047878   0.368290
    14  H   -0.040218  -0.000946   0.003870  -0.000392   0.003953  -0.040699
    15  N   -0.058009   0.004059  -0.012918   0.001453  -0.007720  -0.074124
    16  C   -0.002419   0.000032  -0.000947  -0.000023   0.000004   0.002505
    17  H    0.001435  -0.000017  -0.000065   0.000001   0.000000   0.000001
    18  H   -0.028354  -0.002627   0.000861  -0.000122   0.000011  -0.000136
    19  H   -0.034974   0.004101   0.385886  -0.032489  -0.002269   0.000633
    20  H   -0.041669  -0.001867   0.397256  -0.037363   0.004139  -0.000361
    21  H    0.004041  -0.000080  -0.035836   0.400179  -0.035827   0.004208
    22  H   -0.004206   0.003506  -0.045702   0.395990  -0.045621  -0.001225
    23  H    0.000426   0.000033  -0.002006  -0.040086   0.396701  -0.036625
    24  H   -0.000140  -0.000098   0.004396  -0.038474   0.400312  -0.037856
    25  H    0.004974  -0.000005  -0.000368   0.004095  -0.033922   0.395481
    26  H   -0.004451   0.001620   0.001037  -0.002399  -0.042326   0.394705
    27  H   -0.000405   0.000009  -0.000060   0.000005   0.000005  -0.000019
              13         14         15         16         17         18
     1  O   -0.000021  -0.000003   0.000171   0.003147   0.000121   0.000000
     2  N   -0.000042  -0.000064   0.001821  -0.027748  -0.003979  -0.000036
     3  O   -0.000003   0.000000  -0.000015   0.002022   0.011970   0.000008
     4  C   -0.010677   0.002992  -0.061156   0.317788  -0.027252   0.000901
     5  C    0.000439   0.004900  -0.003673  -0.040554   0.377400  -0.024201
     6  N   -0.044092  -0.005586   0.001809  -0.001402  -0.034255   0.328102
     7  C    0.332914  -0.040218  -0.058009  -0.002419   0.001435  -0.028354
     8  H   -0.040662  -0.000946   0.004059   0.000032  -0.000017  -0.002627
     9  C   -0.050012   0.003870  -0.012918  -0.000947  -0.000065   0.000861
    10  C   -0.001795  -0.000392   0.001453  -0.000023   0.000001  -0.000122
    11  C   -0.047878   0.003953  -0.007720   0.000004   0.000000   0.000011
    12  C    0.368290  -0.040699  -0.074124   0.002505   0.000001  -0.000136
    13  C    5.025489   0.402037   0.238911  -0.069984  -0.000041   0.003672
    14  H    0.402037   0.519637  -0.035869  -0.004728   0.000068   0.000010
    15  N    0.238911  -0.035869   6.935600   0.587105  -0.000061  -0.000122
    16  C   -0.069984  -0.004728   0.587105   4.701132   0.001662  -0.000215
    17  H   -0.000041   0.000068  -0.000061   0.001662   0.385329  -0.001855
    18  H    0.003672   0.000010  -0.000122  -0.000215  -0.001855   0.323642
    19  H   -0.006310   0.000065   0.006981   0.002572   0.000011  -0.000130
    20  H    0.003859  -0.000049   0.000079  -0.000031  -0.000001   0.002910
    21  H   -0.000374   0.000009  -0.000028   0.000002  -0.000000  -0.000000
    22  H    0.000318  -0.000044   0.000002  -0.000001   0.000000   0.000002
    23  H   -0.005853   0.000008   0.006757   0.000062   0.000000   0.000000
    24  H    0.004139  -0.000058   0.000045   0.000005   0.000000  -0.000000
    25  H   -0.034467  -0.002654   0.000730  -0.000061  -0.000000   0.000002
    26  H   -0.044844  -0.000909   0.004190  -0.000056   0.000000  -0.000001
    27  H    0.004913  -0.000176  -0.039931   0.402327  -0.000058   0.000002
              19         20         21         22         23         24
     1  O    0.000000   0.000000  -0.000000  -0.000000   0.000000   0.000000
     2  N    0.000000  -0.000000  -0.000000   0.000000  -0.000000   0.000000
     3  O    0.000000   0.000000   0.000000  -0.000000   0.000000   0.000000
     4  C   -0.000734  -0.000025   0.000000  -0.000000   0.000025   0.000000
     5  C    0.000631   0.000030   0.000001  -0.000002  -0.000000  -0.000000
     6  N    0.000654  -0.001781  -0.000058  -0.000098  -0.000024   0.000004
     7  C   -0.034974  -0.041669   0.004041  -0.004206   0.000426  -0.000140
     8  H    0.004101  -0.001867  -0.000080   0.003506   0.000033  -0.000098
     9  C    0.385886   0.397256  -0.035836  -0.045702  -0.002006   0.004396
    10  C   -0.032489  -0.037363   0.400179   0.395990  -0.040086  -0.038474
    11  C   -0.002269   0.004139  -0.035827  -0.045621   0.396701   0.400312
    12  C    0.000633  -0.000361   0.004208  -0.001225  -0.036625  -0.037856
    13  C   -0.006310   0.003859  -0.000374   0.000318  -0.005853   0.004139
    14  H    0.000065  -0.000049   0.000009  -0.000044   0.000008  -0.000058
    15  N    0.006981   0.000079  -0.000028   0.000002   0.006757   0.000045
    16  C    0.002572  -0.000031   0.000002  -0.000001   0.000062   0.000005
    17  H    0.000011  -0.000001  -0.000000   0.000000   0.000000   0.000000
    18  H   -0.000130   0.002910  -0.000000   0.000002   0.000000  -0.000000
    19  H    0.506475  -0.024039  -0.002591   0.003752   0.001638  -0.000069
    20  H   -0.024039   0.550207  -0.002610  -0.002969  -0.000049  -0.000090
    21  H   -0.002591  -0.002610   0.525836  -0.024674  -0.002812  -0.002056
    22  H    0.003752  -0.002969  -0.024674   0.568705   0.004060  -0.003596
    23  H    0.001638  -0.000049  -0.002812   0.004060   0.509510  -0.024975
    24  H   -0.000069  -0.000090  -0.002056  -0.003596  -0.024975   0.540830
    25  H   -0.000027   0.000011  -0.000086  -0.000082  -0.002095  -0.002376
    26  H    0.000023  -0.000035  -0.000074   0.002466   0.003821  -0.002770
    27  H    0.000076  -0.000000  -0.000000   0.000000  -0.000022  -0.000000
              25         26         27
     1  O    0.000000   0.000000   0.005267
     2  N   -0.000000  -0.000000  -0.000286
     3  O    0.000000   0.000000  -0.000006
     4  C    0.000019   0.000006  -0.065937
     5  C   -0.000001  -0.000001   0.002172
     6  N   -0.000071  -0.000067   0.000051
     7  C    0.004974  -0.004451  -0.000405
     8  H   -0.000005   0.001620   0.000009
     9  C   -0.000368   0.001037  -0.000060
    10  C    0.004095  -0.002399   0.000005
    11  C   -0.033922  -0.042326   0.000005
    12  C    0.395481   0.394705  -0.000019
    13  C   -0.034467  -0.044844   0.004913
    14  H   -0.002654  -0.000909  -0.000176
    15  N    0.000730   0.004190  -0.039931
    16  C   -0.000061  -0.000056   0.402327
    17  H   -0.000000   0.000000  -0.000058
    18  H    0.000002  -0.000001   0.000002
    19  H   -0.000027   0.000023   0.000076
    20  H    0.000011  -0.000035  -0.000000
    21  H   -0.000086  -0.000074  -0.000000
    22  H   -0.000082   0.002466   0.000000
    23  H   -0.002095   0.003821  -0.000022
    24  H   -0.002376  -0.002770  -0.000000
    25  H    0.510193  -0.023076  -0.000010
    26  H   -0.023076   0.560880   0.000001
    27  H   -0.000010   0.000001   0.452578
 Mulliken charges:
               1
     1  O   -0.461261
     2  N    0.502516
     3  O   -0.490761
     4  C   -0.017812
     5  C    0.200379
     6  N   -0.793725
     7  C    0.059826
     8  H    0.178987
     9  C   -0.311619
    10  C   -0.321222
    11  C   -0.315645
    12  C   -0.312282
    13  C   -0.027927
    14  H    0.194846
    15  N   -0.496086
    16  C    0.127805
    17  H    0.289587
    18  H    0.397673
    19  H    0.190133
    20  H    0.154449
    21  H    0.172830
    22  H    0.149421
    23  H    0.191505
    24  H    0.162827
    25  H    0.183795
    26  H    0.152260
    27  H    0.239503
 Sum of Mulliken charges =  -0.00000
 Mulliken charges with hydrogens summed into heavy atoms:
               1
     1  O   -0.461261
     2  N    0.502516
     3  O   -0.490761
     4  C   -0.017812
     5  C    0.489966
     6  N   -0.396052
     7  C    0.238813
     9  C    0.032963
    10  C    0.001029
    11  C    0.038686
    12  C    0.023773
    13  C    0.166919
    15  N   -0.496086
    16  C    0.367308
 Electronic spatial extent (au):  <R**2>=           3109.7256
 Charge=             -0.0000 electrons
 Dipole moment (field-independent basis, Debye):
    X=              5.4382    Y=              4.5501    Z=              0.4821  Tot=              7.1071
 Quadrupole moment (field-independent basis, Debye-Ang):
   XX=           -105.6797   YY=            -80.2320   ZZ=            -82.1620
   XY=             -1.9944   XZ=              1.0101   YZ=              0.0442
 Traceless Quadrupole moment (field-independent basis, Debye-Ang):
   XX=            -16.3218   YY=              9.1259   ZZ=              7.1959
   XY=             -1.9944   XZ=              1.0101   YZ=              0.0442
 Octapole moment (field-independent basis, Debye-Ang**2):
  XXX=            101.5503  YYY=             37.0165  ZZZ=             -5.5509  XYY=             -1.4911
  XXY=             11.9639  XXZ=             -1.1742  XZZ=             -8.5859  YZZ=             -2.8556
  YYZ=              0.4945  XYZ=             -1.6475
 Hexadecapole moment (field-independent basis, Debye-Ang**3):
 XXXX=          -3541.3981 YYYY=           -618.8908 ZZZZ=           -298.5987 XXXY=            -42.0170
 XXXZ=             32.5440 YYYX=            -21.6437 YYYZ=             11.2092 ZZZX=             24.6974
 ZZZY=              9.3615 XXYY=           -653.4357 XXZZ=           -540.3698 YYZZ=           -164.1448
 XXYZ=              2.9228 YYXZ=             11.4805 ZZXY=              2.3673
 N-N= 9.192115023254D+02 E-N=-3.384472885195D+03  KE= 6.589135265002D+02
 Calling FoFJK, ICntrl=  10002127 FMM=F ISym2X=0 I1Cent= 0 IOpClX= 0 NMat=1 NMatS=1 NMatT=0.
 -------------------------------------------------------------------
 Center     Atomic                   Forces (Hartrees/Bohr)
 Number     Number              X              Y              Z
 -------------------------------------------------------------------
      1        8           0.002104178   -0.021443797   -0.002883091
      2        7           0.026940114    0.012247402   -0.003402402
      3        8          -0.006591338    0.017135373    0.004458243
      4        6           0.010673747    0.011653409    0.010180066
      5        6           0.003921711   -0.016071740   -0.005366659
      6        7           0.013959224   -0.011282744   -0.006664428
      7        6          -0.004309314    0.005035551    0.002892435
      8        1          -0.010023144   -0.001744054   -0.007687964
      9        6          -0.003993656    0.000190778   -0.002183116
     10        6           0.002852984   -0.000861419    0.001028034
     11        6          -0.001109776   -0.004633037   -0.002442556
     12        6           0.000867325   -0.008710538   -0.002788657
     13        6           0.009025589   -0.002196211    0.005168437
     14        1           0.000935652    0.004543856   -0.009776471
     15        7          -0.000712765    0.001896544    0.000408251
     16        6          -0.020153019    0.006600815    0.004087146
     17        1           0.006960945   -0.006104199   -0.006861310
     18        1          -0.017604480   -0.001476370    0.006674608
     19        1           0.003089862    0.005903652    0.007721225
     20        1          -0.003254355   -0.007317768    0.002585214
     21        1          -0.004418743    0.002415898    0.009602378
     22        1          -0.003955326   -0.003978456   -0.007427909
     23        1           0.003969868    0.006138280    0.009307617
     24        1          -0.009373655    0.002637916   -0.002167552
     25        1          -0.000751528    0.010598698   -0.002408728
     26        1          -0.004762319   -0.004811351   -0.004382014
     27        1           0.005712219    0.003633512    0.002329204
 -------------------------------------------------------------------
 Cartesian Forces:  Max     0.026940114 RMS     0.007967379

 GradGradGradGradGradGradGradGradGradGradGradGradGradGradGradGradGradGrad
 Berny optimization.
 FormGI is forming the generalized inverse of G from B-inverse, IUseBI=4.
 Internal  Forces:  Max     0.035072746 RMS     0.006575385
 Search for a local minimum.
 Step number   1 out of a maximum of   20
 All quantities printed in internal units (Hartrees-Bohrs-Radians)
 Mixed Optimization -- RFO/linear search
 Second derivative matrix not updated -- first step.
 ITU=  0
     Eigenvalues ---    0.00492   0.00770   0.01076   0.01160   0.01203
     Eigenvalues ---    0.01487   0.01528   0.01596   0.01956   0.02012
     Eigenvalues ---    0.02071   0.02691   0.03663   0.04506   0.04694
     Eigenvalues ---    0.04838   0.05083   0.05138   0.05305   0.05897
     Eigenvalues ---    0.06265   0.07217   0.07701   0.07727   0.07875
     Eigenvalues ---    0.07993   0.08050   0.08060   0.10459   0.11739
     Eigenvalues ---    0.12268   0.13501   0.15266   0.15754   0.15991
     Eigenvalues ---    0.16000   0.20084   0.21925   0.23121   0.24985
     Eigenvalues ---    0.25000   0.25000   0.25377   0.26211   0.26651
     Eigenvalues ---    0.27978   0.28084   0.28479   0.31456   0.31554
     Eigenvalues ---    0.32045   0.32237   0.32290   0.32379   0.32388
     Eigenvalues ---    0.32406   0.32516   0.32526   0.32580   0.33149
     Eigenvalues ---    0.33385   0.33594   0.35392   0.43885   0.43911
     Eigenvalues ---    0.49082   0.66927   0.90099   0.908711000.00000
     Eigenvalues --- 1000.000001000.000001000.000001000.000001000.00000
     Eigenvalues --- 1000.000001000.000001000.000001000.000001000.00000
     Eigenvalues --- 1000.000001000.000001000.000001000.000001000.00000
     Eigenvalues --- 1000.000001000.000001000.000001000.000001000.00000
     Eigenvalues --- 1000.000001000.000001000.000001000.000001000.00000
     Eigenvalues --- 1000.000001000.000001000.000001000.000001000.00000
     Eigenvalues --- 1000.000001000.000001000.000001000.000001000.00000
     Eigenvalues --- 1000.000001000.000001000.000001000.000001000.00000
     Eigenvalues --- 1000.000001000.000001000.000001000.000001000.00000
     Eigenvalues --- 1000.000001000.000001000.000001000.000001000.00000
     Eigenvalues --- 1000.000001000.000001000.000001000.000001000.00000
     Eigenvalues --- 1000.000001000.000001000.000001000.000001000.00000
     Eigenvalues --- 1000.000001000.000001000.000001000.000001000.00000
     Eigenvalues --- 1000.000001000.000001000.000001000.000001000.00000
     Eigenvalues --- 1000.000001000.000001000.000001000.000001000.00000
     Eigenvalues --- 1000.000001000.000001000.000001000.000001000.00000
     Eigenvalues --- 1000.000001000.000001000.000001000.000001000.00000
     Eigenvalues --- 1000.000001000.000001000.000001000.000001000.00000
     Eigenvalues --- 1000.00000
 RFO step:  Lambda=-2.02694221D-02 EMin= 4.92191940D-03
 Linear search not attempted -- first point.
 Iteration  1 RMS(Cart)=  0.04742545 RMS(Int)=  0.00117088
 Iteration  2 RMS(Cart)=  0.00124236 RMS(Int)=  0.00025607
 Iteration  3 RMS(Cart)=  0.00000138 RMS(Int)=  0.00025606
 Iteration  4 RMS(Cart)=  0.00000000 RMS(Int)=  0.00025606
 Iteration  1 RMS(Cart)=  0.00002916 RMS(Int)=  0.00002155
 Iteration  2 RMS(Cart)=  0.00001451 RMS(Int)=  0.00002395
 Iteration  3 RMS(Cart)=  0.00000774 RMS(Int)=  0.00002661
 Iteration  4 RMS(Cart)=  0.00000455 RMS(Int)=  0.00002829
 Iteration  5 RMS(Cart)=  0.00000301 RMS(Int)=  0.00002932
 Iteration  6 RMS(Cart)=  0.00000223 RMS(Int)=  0.00003000
 Iteration  7 RMS(Cart)=  0.00000178 RMS(Int)=  0.00003048
 Iteration  8 RMS(Cart)=  0.00000147 RMS(Int)=  0.00003083
 Iteration  9 RMS(Cart)=  0.00000125 RMS(Int)=  0.00003112
 Iteration 10 RMS(Cart)=  0.00000106 RMS(Int)=  0.00003135
 Iteration 11 RMS(Cart)=  0.00000091 RMS(Int)=  0.00003155
 Variable       Old X    -DE/DX   Delta X   Delta X   Delta X     New X
                                 (Linear)    (Quad)   (Total)
    R1        2.32534   0.02007   0.00000   0.02161   0.02161   2.34695
    R2        2.32888   0.01778   0.00000   0.01929   0.01929   2.34817
    R3        2.81733  -0.02360   0.00000   0.00000   0.00000   2.81733
    R4        2.64897  -0.03507   0.00000  -0.07695  -0.07671   2.57227
    R5        2.81470  -0.02158   0.00000  -0.06289  -0.06265   2.75205
    R6        2.59112  -0.02517   0.00000  -0.04926  -0.04916   2.54195
    R7        2.08380  -0.01052   0.00000  -0.02970  -0.02970   2.05411
    R8        2.82406  -0.01926   0.00000  -0.05406  -0.05417   2.76989
    R9        1.93292  -0.00655   0.00000  -0.01427  -0.01427   1.91865
   R10        2.11851  -0.01187   0.00000  -0.03545  -0.03545   2.08306
   R11        2.92737  -0.01304   0.00000  -0.04503  -0.04506   2.88231
   R12        2.90198  -0.00473   0.00000  -0.00956  -0.00959   2.89240
   R13        2.91137  -0.00465   0.00000  -0.01449  -0.01451   2.89686
   R14        2.09910  -0.00998   0.00000  -0.02890  -0.02890   2.07020
   R15        2.09892  -0.00800   0.00000  -0.02315  -0.02315   2.07577
   R16        2.90429  -0.00181   0.00000  -0.00720  -0.00725   2.89704
   R17        2.10140  -0.01059   0.00000  -0.03077  -0.03077   2.07063
   R18        2.10317  -0.00901   0.00000  -0.02627  -0.02627   2.07690
   R19        2.91775  -0.00905   0.00000  -0.02892  -0.02889   2.88886
   R20        2.10412  -0.01168   0.00000  -0.03410  -0.03410   2.07002
   R21        2.10107  -0.00995   0.00000  -0.02890  -0.02890   2.07217
   R22        2.93534  -0.01056   0.00000  -0.03688  -0.03686   2.89847
   R23        2.10155  -0.01074   0.00000  -0.03120  -0.03120   2.07035
   R24        2.09795  -0.00785   0.00000  -0.02270  -0.02270   2.07525
   R25        2.10761  -0.00910   0.00000  -0.02672  -0.02672   2.08089
   R26        2.76730  -0.00518   0.00000  -0.01083  -0.01117   2.75613
   R27        2.44301  -0.00653   0.00000  -0.00889  -0.00894   2.43408
   R28        2.08021  -0.00639   0.00000  -0.01793  -0.01793   2.06228
    A1        2.15001   0.01122   0.00000   0.04189   0.04139   2.19140
    A2        2.05769  -0.00816   0.00000  -0.02980  -0.03031   2.02738
    A3        2.07516  -0.00300   0.00000  -0.01071  -0.01122   2.06394
    A4        2.03870  -0.00686   0.00000  -0.02316  -0.02352   2.01518
    A5        2.03786  -0.00336   0.00000  -0.01020  -0.01059   2.02727
    A6        2.20604   0.01017   0.00000   0.03227   0.03253   2.23857
    A7        2.20325   0.00601   0.00000   0.01888   0.01916   2.22241
    A8        2.06481  -0.00349   0.00000  -0.01182  -0.01208   2.05273
    A9        2.01422  -0.00248   0.00000  -0.00612  -0.00639   2.00783
   A10        2.25352  -0.00513   0.00000  -0.01750  -0.01760   2.23593
   A11        2.11650  -0.01276   0.00000  -0.07405  -0.07446   2.04204
   A12        1.87576   0.01811   0.00000   0.09968   0.09984   1.97560
   A13        1.83800  -0.00146   0.00000  -0.01870  -0.01849   1.81951
   A14        2.00704  -0.00123   0.00000  -0.01290  -0.01291   1.99413
   A15        1.96660   0.00094   0.00000   0.00170   0.00121   1.96780
   A16        1.85172   0.00264   0.00000   0.02485   0.02466   1.87638
   A17        1.84909   0.00077   0.00000   0.01836   0.01817   1.86726
   A18        1.93735  -0.00133   0.00000  -0.00904  -0.00870   1.92865
   A19        1.91016   0.00007   0.00000  -0.00532  -0.00548   1.90468
   A20        1.92267  -0.00073   0.00000  -0.01338  -0.01334   1.90933
   A21        1.92280  -0.00160   0.00000  -0.00710  -0.00708   1.91572
   A22        1.91928  -0.00037   0.00000   0.00643   0.00638   1.92566
   A23        1.90439   0.00307   0.00000   0.02494   0.02495   1.92934
   A24        1.88433  -0.00040   0.00000  -0.00511  -0.00539   1.87894
   A25        1.94037  -0.00089   0.00000   0.00618   0.00606   1.94643
   A26        1.91896  -0.00072   0.00000  -0.00710  -0.00712   1.91185
   A27        1.90499   0.00034   0.00000  -0.00316  -0.00323   1.90176
   A28        1.91615   0.00082   0.00000   0.00749   0.00754   1.92369
   A29        1.89850   0.00170   0.00000   0.01139   0.01142   1.90992
   A30        1.88383  -0.00123   0.00000  -0.01531  -0.01541   1.86842
   A31        1.94470   0.00064   0.00000   0.00518   0.00532   1.95002
   A32        1.90233   0.00061   0.00000   0.00599   0.00594   1.90828
   A33        1.91755   0.00039   0.00000   0.00556   0.00552   1.92307
   A34        1.90642  -0.00109   0.00000  -0.01452  -0.01457   1.89185
   A35        1.91539  -0.00050   0.00000   0.00019   0.00010   1.91549
   A36        1.87607  -0.00007   0.00000  -0.00279  -0.00283   1.87324
   A37        1.94830  -0.00298   0.00000  -0.01847  -0.01849   1.92981
   A38        1.90591   0.00254   0.00000   0.01736   0.01720   1.92312
   A39        1.91057   0.00139   0.00000   0.01366   0.01363   1.92421
   A40        1.90605   0.00020   0.00000  -0.00316  -0.00300   1.90305
   A41        1.91117  -0.00021   0.00000  -0.00493  -0.00487   1.90630
   A42        1.88057  -0.00088   0.00000  -0.00396  -0.00416   1.87641
   A43        1.84680   0.00452   0.00000   0.02453   0.02457   1.87137
   A44        1.93954  -0.00425   0.00000  -0.03238  -0.03285   1.90669
   A45        1.98128   0.00057   0.00000   0.01005   0.01025   1.99153
   A46        1.88041   0.00219   0.00000   0.03164   0.03197   1.91238
   A47        1.89217  -0.00362   0.00000  -0.02846  -0.02849   1.86368
   A48        1.91906   0.00081   0.00000  -0.00288  -0.00277   1.91629
   A49        2.08256  -0.00612   0.00000  -0.01362  -0.01401   2.06855
   A50        2.25324  -0.00475   0.00000  -0.01974  -0.01982   2.23342
   A51        1.97904   0.00532   0.00000   0.02638   0.02586   2.00490
   A52        2.05085  -0.00055   0.00000  -0.00612  -0.00663   2.04422
    D1       -3.03178  -0.00022   0.00000  -0.03107  -0.03048  -3.06226
    D2        0.14414   0.00102   0.00000   0.00000  -0.00000   0.14414
    D3        0.13625  -0.00245   0.00000  -0.08825  -0.08795   0.04830
    D4       -2.97102  -0.00121   0.00000  -0.05718  -0.05747  -3.02849
    D5        3.07396   0.00049   0.00000   0.01260   0.01259   3.08656
    D6       -0.01958  -0.00058   0.00000  -0.01196  -0.01202  -0.03161
    D7       -0.10571  -0.00123   0.00000  -0.02298  -0.02343  -0.12913
    D8        3.08393  -0.00230   0.00000  -0.04754  -0.04804   3.03589
    D9       -2.67631  -0.00204   0.00000  -0.04671  -0.04728  -2.72359
   D10        0.45285   0.00044   0.00000   0.00563   0.00539   0.45823
   D11        0.50334  -0.00025   0.00000  -0.01090  -0.01081   0.49254
   D12       -2.65069   0.00223   0.00000   0.04144   0.04186  -2.60883
   D13       -0.15271  -0.00000   0.00000   0.02865   0.02892  -0.12379
   D14        2.66041   0.00396   0.00000   0.07982   0.07870   2.73911
   D15        2.94205   0.00101   0.00000   0.05242   0.05284   2.99489
   D16       -0.52801   0.00498   0.00000   0.10360   0.10261  -0.42540
   D17       -2.46442  -0.00074   0.00000  -0.02341  -0.02296  -2.48737
   D18        1.78706  -0.00237   0.00000  -0.03469  -0.03429   1.75277
   D19       -0.45679  -0.00023   0.00000  -0.01168  -0.01163  -0.46841
   D20        0.97044  -0.00020   0.00000  -0.04570  -0.04629   0.92415
   D21       -1.06127  -0.00182   0.00000  -0.05699  -0.05762  -1.11890
   D22        2.97807   0.00032   0.00000  -0.03398  -0.03496   2.94311
   D23        2.94483   0.00239   0.00000   0.02586   0.02575   2.97059
   D24       -1.22611   0.00151   0.00000   0.02195   0.02186  -1.20425
   D25        0.85090  -0.00043   0.00000   0.00287   0.00286   0.85377
   D26        0.92097   0.00313   0.00000   0.03959   0.03959   0.96056
   D27        3.03321   0.00225   0.00000   0.03568   0.03570   3.06891
   D28       -1.17296   0.00030   0.00000   0.01661   0.01670  -1.15626
   D29       -1.08002   0.00141   0.00000   0.00862   0.00859  -1.07143
   D30        1.03222   0.00053   0.00000   0.00471   0.00470   1.03692
   D31        3.10923  -0.00141   0.00000  -0.01437  -0.01430   3.09493
   D32       -2.90086  -0.00112   0.00000  -0.01327  -0.01304  -2.91390
   D33       -0.86449   0.00191   0.00000   0.02185   0.02166  -0.84282
   D34        1.30938   0.00005   0.00000   0.00000  -0.00001   1.30938
   D35       -0.89993  -0.00194   0.00000  -0.02394  -0.02383  -0.92377
   D36        1.13644   0.00108   0.00000   0.01119   0.01087   1.14731
   D37       -2.97287  -0.00077   0.00000  -0.01066  -0.01080  -2.98367
   D38        1.10270   0.00095   0.00000   0.01108   0.01119   1.11389
   D39        3.13908   0.00397   0.00000   0.04621   0.04589  -3.09822
   D40       -0.97024   0.00212   0.00000   0.02436   0.02422  -0.94602
   D41        0.95666   0.00062   0.00000   0.00000   0.00001   0.95667
   D42        3.08230   0.00057   0.00000   0.00875   0.00870   3.09101
   D43       -1.13761  -0.00115   0.00000  -0.01594  -0.01591  -1.15352
   D44       -1.15764   0.00171   0.00000   0.01589   0.01597  -1.14167
   D45        0.96800   0.00166   0.00000   0.02464   0.02466   0.99267
   D46        3.03128  -0.00005   0.00000  -0.00006   0.00005   3.03133
   D47        3.06184   0.00058   0.00000   0.00339   0.00335   3.06519
   D48       -1.09570   0.00053   0.00000   0.01214   0.01204  -1.08366
   D49        0.96757  -0.00119   0.00000  -0.01255  -0.01257   0.95500
   D50       -0.92193  -0.00085   0.00000   0.00000   0.00001  -0.92192
   D51        1.18318  -0.00141   0.00000  -0.01086  -0.01087   1.17230
   D52       -3.04854  -0.00091   0.00000  -0.00752  -0.00756  -3.05610
   D53       -3.04921   0.00010   0.00000  -0.00024  -0.00022  -3.04943
   D54       -0.94411  -0.00047   0.00000  -0.01111  -0.01111  -0.95521
   D55        1.10736   0.00004   0.00000  -0.00777  -0.00779   1.09957
   D56        1.17619   0.00011   0.00000   0.00727   0.00731   1.18349
   D57       -3.00189  -0.00045   0.00000  -0.00359  -0.00358  -3.00547
   D58       -0.95043   0.00005   0.00000  -0.00025  -0.00026  -0.95068
   D59        0.98736  -0.00083   0.00000  -0.01291  -0.01295   0.97441
   D60        3.09667  -0.00079   0.00000  -0.01711  -0.01727   3.07940
   D61       -1.13154   0.00044   0.00000  -0.00387  -0.00384  -1.13538
   D62       -1.11535  -0.00127   0.00000  -0.01410  -0.01409  -1.12943
   D63        0.99397  -0.00123   0.00000  -0.01830  -0.01840   0.97556
   D64        3.04894  -0.00000   0.00000  -0.00506  -0.00498   3.04396
   D65        3.11522  -0.00025   0.00000  -0.00230  -0.00230   3.11293
   D66       -1.05865  -0.00022   0.00000  -0.00650  -0.00661  -1.06526
   D67        0.99632   0.00101   0.00000   0.00674   0.00682   1.00314
   D68       -1.05151   0.00012   0.00000   0.00070   0.00080  -1.05071
   D69       -3.12745   0.00161   0.00000   0.00972   0.00933  -3.11812
   D70        1.07956   0.00142   0.00000   0.01116   0.01106   1.09063
   D71        3.12244  -0.00128   0.00000  -0.00706  -0.00689   3.11555
   D72        1.04650   0.00020   0.00000   0.00196   0.00165   1.04815
   D73       -1.02967   0.00001   0.00000   0.00340   0.00338  -1.02629
   D74        1.06704  -0.00022   0.00000   0.00244   0.00265   1.06969
   D75       -1.00889   0.00127   0.00000   0.01146   0.01118  -0.99771
   D76       -3.08507   0.00108   0.00000   0.01289   0.01291  -3.07215
   D77       -1.17217   0.00362   0.00000   0.00000  -0.00001  -1.17217
   D78        3.06434   0.00004   0.00000  -0.01772  -0.01762   3.04672
   D79        1.01272  -0.00094   0.00000  -0.03761  -0.03790   0.97482
   D80        0.11688   0.00224   0.00000   0.02333   0.02303   0.13991
   D81       -3.01184  -0.00035   0.00000  -0.03102  -0.03085  -3.04269
         Item               Value     Threshold  Converged?
 Maximum Force            0.034758     0.000450     NO 
 RMS     Force            0.006396     0.000300     NO 
 Maximum Displacement     0.187688     0.001800     NO 
 RMS     Displacement     0.047585     0.001200     NO 
 Predicted change in Energy=-1.139120D-02
 GradGradGradGradGradGradGradGradGradGradGradGradGradGradGradGradGradGrad

                          Input orientation:                          
 ---------------------------------------------------------------------
 Center     Atomic      Atomic             Coordinates (Angstroms)
 Number     Number       Type             X           Y           Z
 ---------------------------------------------------------------------
      1          8           0       -3.503322   -1.437721   -0.209740
      2          7           0       -3.153972   -0.259678   -0.029150
      3          8           0       -3.918590    0.695879    0.186071
      4          6           0       -1.685687   -0.001233   -0.035097
      5          6           0       -1.314940    1.274922    0.259519
      6          7           0       -0.063677    1.754110    0.378403
      7          6           0        1.196755    1.006091    0.362776
      8          1           0        1.826402    1.519813    1.107567
      9          6           0        1.935124    1.050336   -0.971110
     10          6           0        3.333823    0.449311   -0.791251
     11          6           0        3.267179   -0.962684   -0.197906
     12          6           0        2.439308   -0.998226    1.086756
     13          6           0        1.032726   -0.439894    0.837042
     14          1           0        0.459311   -0.450731    1.777061
     15          7           0        0.398042   -1.318522   -0.138849
     16          6           0       -0.839162   -1.116741   -0.434993
     17          1           0       -2.104363    1.999401    0.442496
     18          1           0        0.062221    2.752600    0.244185
     19          1           0        1.370190    0.482780   -1.718674
     20          1           0        2.004065    2.088542   -1.323211
     21          1           0        3.851489    0.430301   -1.756800
     22          1           0        3.918599    1.098730   -0.124765
     23          1           0        2.806425   -1.640237   -0.924918
     24          1           0        4.278202   -1.337037    0.002347
     25          1           0        2.355408   -2.026969    1.454109
     26          1           0        2.929326   -0.406183    1.871202
     27          1           0       -1.317862   -1.842980   -1.094071
 ---------------------------------------------------------------------
                    Distance matrix (angstroms):
                    1          2          3          4          5
     1  O    0.000000
     2  N    1.241950   0.000000
     3  O    2.209381   1.242598   0.000000
     4  C    2.323315   1.490869   2.349625   0.000000
     5  C    3.516767   2.412544   2.668273   1.361184   0.000000
     6  N    4.729149   3.710979   4.002149   2.425515   1.345144
     7  C    5.328294   4.548034   5.127788   3.079201   2.528150
     8  H    6.236045   5.409514   5.876475   3.994250   3.263003
     9  C    6.028831   5.338757   5.977514   3.884867   3.482499
    10  C    7.116571   6.570765   7.322120   5.096100   4.837018
    11  C    6.787155   6.461724   7.384683   5.047947   5.119759
    12  C    6.098271   5.751129   6.641091   4.389548   4.466083
    13  C    4.761002   4.279160   5.121452   2.888394   2.964062
    14  H    4.541364   4.044097   4.797081   2.843762   2.903236
    15  N    3.903828   3.708098   4.774589   2.467376   3.133521
    16  C    2.692863   2.501522   3.626870   1.456324   2.535501
    17  H    3.767798   2.535265   2.248631   2.099028   1.086987
    18  H    5.520682   4.415023   4.481108   3.273648   2.019984
    19  H    5.451268   4.886081   5.625359   3.522369   3.427923
    20  H    6.633675   5.813268   6.268595   4.431779   3.766006
    21  H    7.744427   7.248265   8.013701   5.814706   5.609895
    22  H    7.843832   7.202477   7.853689   5.711915   5.250585
    23  H    6.353377   6.183420   7.205385   4.863866   5.185238
    24  H    7.785064   7.509921   8.447124   6.111771   6.178325
    25  H    6.118850   5.972993   6.955924   4.759390   5.079467
    26  H    6.839105   6.374898   7.137798   5.009621   4.841222
    27  H    2.392177   2.648057   3.853357   2.156097   3.399048
                    6          7          8          9         10
     6  N    0.000000
     7  C    1.465764   0.000000
     8  H    2.039357   1.102306   0.000000
     9  C    2.512307   1.525253   2.133806   0.000000
    10  C    3.822773   2.491755   2.650246   1.532951   0.000000
    11  C    4.336785   2.911545   3.153235   2.534653   1.533046
    12  C    3.787090   2.466854   2.591641   2.947137   2.534251
    13  C    2.495216   1.530591   2.131562   2.510881   2.955853
    14  H    2.662909   2.160175   2.490020   3.461744   3.958424
    15  N    3.149889   2.508664   3.413196   2.943937   3.488505
    16  C    3.082982   3.047592   4.054151   3.560942   4.471381
    17  H    2.056374   3.448246   4.015376   4.383658   5.787813
    18  H    1.015307   2.086031   2.318950   2.807563   4.132874
    19  H    2.840772   2.153223   3.044865   1.095501   2.171886
    20  H    2.698683   2.160093   2.502738   1.098453   2.176767
    21  H    4.651891   3.445541   3.673230   2.161992   1.095731
    22  H    4.067090   2.766715   2.464395   2.157038   1.099050
    23  H    4.632248   3.354437   3.882957   2.828513   2.159219
    24  H    5.343081   3.887862   3.923573   3.483846   2.170873
    25  H    4.615807   3.425337   3.602721   3.940575   3.482944
    26  H    3.981631   2.696603   2.347134   3.344940   2.825623
    27  H    4.084142   4.069756   5.103135   4.355263   5.194658
                   11         12         13         14         15
    11  C    0.000000
    12  C    1.528721   0.000000
    13  C    2.517380   1.533807   0.000000
    14  H    3.470837   2.167178   1.101162   0.000000
    15  N    2.891721   2.402387   1.458483   2.104169   0.000000
    16  C    4.116064   3.616370   2.362237   2.650054   1.288057
    17  H    6.167457   5.481404   3.993389   3.789016   4.196261
    18  H    4.926514   4.519863   3.389009   3.573335   4.102868
    19  H    2.828545   3.347660   2.738046   3.731127   2.585654
    20  H    3.488803   3.940242   3.464560   4.294864   3.948430
    21  H    2.170710   3.481488   3.928191   4.977074   4.195527
    22  H    2.163129   2.837835   3.408914   4.240807   4.270553
    23  H    1.095408   2.143312   2.773326   3.771546   2.553765
    24  H    1.096544   2.161542   3.469106   4.303379   3.882772
    25  H    2.166374   1.095582   2.156169   2.486766   2.621201
    26  H    2.169111   1.098175   2.160490   2.472210   3.358581
    27  H    4.754012   4.425601   3.350092   3.652411   2.032691
                   16         17         18         19         20
    16  C    0.000000
    17  H    3.475782   0.000000
    18  H    4.030580   2.302330   0.000000
    19  H    3.014555   4.363865   3.273481   0.000000
    20  H    4.375695   4.472678   2.582336   1.771061   0.000000
    21  H    5.112996   6.539966   4.873969   2.482147   2.520067
    22  H    5.257456   6.116295   4.212252   3.068277   2.466058
    23  H    3.715425   6.263596   5.309847   2.683286   3.834868
    24  H    5.140740   7.215448   5.878615   3.837991   4.320115
    25  H    3.821322   6.092994   5.437546   4.163657   4.977386
    26  H    4.474923   5.758999   4.565675   4.013523   4.157407
    27  H    1.091311   4.212305   4.981457   3.609005   5.152142
                   21         22         23         24         25
    21  H    0.000000
    22  H    1.764891   0.000000
    23  H    2.464004   3.062534   0.000000
    24  H    2.529855   2.465448   1.765751   0.000000
    25  H    4.311191   3.834892   2.452090   2.506143   0.000000
    26  H    3.835687   2.688365   3.058804   2.485674   1.769264
    27  H    5.685878   6.083891   4.132731   5.724862   4.474370
                   26         27
    26  H    0.000000
    27  H    5.375485   0.000000
 Symmetry turned off by external request.
 Stoichiometry    C9H13N3O2
 Framework group  C1[X(C9H13N3O2)]
 Deg. of freedom    75
 Full point group                 C1      NOp   1
 Rotational constants (GHZ):           1.6889491           0.4180146           0.3694035
 Standard basis: 6-31G(d) (6D, 7F)
   236 basis functions,   444 primitive gaussians,   236 cartesian basis functions
    52 alpha electrons       52 beta electrons
       nuclear repulsion energy       930.1396996500 Hartrees.
 NAtoms=   27 NActive=   27 NUniq=   27 SFac= 1.00D+00 NAtFMM=   60 NAOKFM=F Big=F
 Integral buffers will be    131072 words long.
 Raffenetti 1 integral format.
 Two-electron integral symmetry is turned off.
 One-electron integrals computed using PRISM.
 NBasis=   236 RedAO= T EigKep=  1.05D-03  NBF=   236
 NBsUse=   236 1.00D-06 EigRej= -1.00D+00 NBFU=   236
 Initial guess from the checkpoint file:  "/home/alexey/tmp/Gau-1278392.chk"
 B after Tr=     0.043439    0.003497    0.000646
         Rot=    0.999999   -0.001313    0.000447    0.000979 Ang=  -0.19 deg.
 ExpMin= 1.61D-01 ExpMax= 5.48D+03 ExpMxC= 8.25D+02 IAcc=3 IRadAn=         5 AccDes= 0.00D+00
 Harris functional with IExCor=  205 and IRadAn=       5 diagonalized for initial guess.
 HarFok:  IExCor=  205 AccDes= 0.00D+00 IRadAn=         5 IDoV= 1 UseB2=F ITyADJ=14
 ICtDFT=  3500011 ScaDFX=  1.000000  1.000000  1.000000  1.000000
 FoFCou: FMM=F IPFlag=           0 FMFlag=      100000 FMFlg1=           0
         NFxFlg=           0 DoJE=T BraDBF=F KetDBF=T FulRan=T
         wScrn=  0.000000 ICntrl=       500 IOpCl=  0 I1Cent=   200000004 NGrid=           0
         NMat0=    1 NMatS0=      1 NMatT0=    0 NMatD0=    1 NMtDS0=    0 NMtDT0=    0
 Symmetry not used in FoFCou.
 Keep R1 ints in memory in canonical form, NReq=397720213.
 Requested convergence on RMS density matrix=1.00D-08 within 128 cycles.
 Requested convergence on MAX density matrix=1.00D-06.
 Requested convergence on             energy=1.00D-06.
 No special actions if energy rises.
 SCF Done:  E(RHF) =  -661.296545245     A.U. after   15 cycles
            NFock= 15  Conv=0.50D-08     -V/T= 2.0026
 ExpMin= 1.61D-01 ExpMax= 5.48D+03 ExpMxC= 8.25D+02 IAcc=3 IRadAn=         5 AccDes= 0.00D+00
 HarFok:  IExCor=  205 AccDes= 0.00D+00 IRadAn=         5 IDoV=-2 UseB2=F ITyADJ=14
 ICtDFT= 12500011 ScaDFX=  1.000000  1.000000  1.000000  1.000000
 Range of M.O.s used for correlation:    15   236
 NBasis=   236 NAE=    52 NBE=    52 NFC=    14 NFV=     0
 NROrb=    222 NOA=    38 NOB=    38 NVA=   184 NVB=   184
 Fully direct method using O(ONN) memory.
 JobTyp=1 Pass  1:  I=  15 to  52 NPSUse=  4 ParTrn=T ParDer=T DoDerP=T.
 Spin components of T(2) and E(2):
     alpha-alpha T2 =       0.9140542158D-01 E2=     -0.2723864539D+00
     alpha-beta  T2 =       0.4925427608D+00 E2=     -0.1489259951D+01
     beta-beta   T2 =       0.9140542158D-01 E2=     -0.2723864539D+00
 ANorm=    0.1294354512D+01
 E2 =    -0.2034032858D+01 EUMP2 =    -0.66333057810326D+03
          IDoAtm=111111111111111111111111111
          Differentiating once with respect to electric field.
                with respect to dipole field.
          Differentiating once with respect to nuclear coordinates.
 Keep R1 ints in memory in canonical form, NReq=397723379.
          There are     1 degrees of freedom in the 1st order CPHF.  IDoFFX=0 NUNeed=     1.
 LinEq1:  Iter=  0 NonCon=     1 RMS=4.59D-03 Max=1.25D-01 NDo=     1
 AX will form     1 AO Fock derivatives at one time.
 LinEq1:  Iter=  1 NonCon=     1 RMS=1.55D-03 Max=2.62D-02 NDo=     1
 LinEq1:  Iter=  2 NonCon=     1 RMS=6.49D-04 Max=2.13D-02 NDo=     1
 LinEq1:  Iter=  3 NonCon=     1 RMS=2.83D-04 Max=7.87D-03 NDo=     1
 LinEq1:  Iter=  4 NonCon=     1 RMS=8.76D-05 Max=1.87D-03 NDo=     1
 LinEq1:  Iter=  5 NonCon=     1 RMS=3.62D-05 Max=1.76D-03 NDo=     1
 LinEq1:  Iter=  6 NonCon=     1 RMS=1.41D-05 Max=5.42D-04 NDo=     1
 LinEq1:  Iter=  7 NonCon=     1 RMS=5.43D-06 Max=1.06D-04 NDo=     1
[...]
    26  H    2.175693   1.098790   2.167367   2.498018   3.362672
    27  H    4.727756   4.419859   3.357182   3.653402   2.031181
                   16         17         18         19         20
    16  C    0.000000
    17  H    3.464544   0.000000
    18  H    4.095124   2.240249   0.000000
    19  H    2.994169   4.298719   3.516087   0.000000
    20  H    4.379692   4.447144   2.886617   1.768532   0.000000
    21  H    5.098777   6.509094   5.089971   2.499297   2.521097
    22  H    5.251269   6.101610   4.315157   3.070215   2.461696
    23  H    3.694007   6.232609   5.423145   2.703866   3.842853
    24  H    5.133453   7.201082   5.938013   3.849375   4.317193
    25  H    3.820615   6.090526   5.369114   4.171638   4.985050
    26  H    4.495060   5.783672   4.482396   4.034537   4.180739
    27  H    1.089848   4.214752   5.088356   3.593412   5.157897
                   21         22         23         24         25
    21  H    0.000000
    22  H    1.758882   0.000000
    23  H    2.469669   3.062332   0.000000
    24  H    2.517309   2.459924   1.764606   0.000000
    25  H    4.311949   3.838864   2.444456   2.519278   0.000000
    26  H    3.845926   2.703120   3.060424   2.492372   1.768050
    27  H    5.661036   6.067071   4.093786   5.697514   4.453832
                   26         27
    26  H    0.000000
    27  H    5.379359   0.000000
 Symmetry turned off by external request.
 Stoichiometry    C9H13N3O2
 Framework group  C1[X(C9H13N3O2)]
 Deg. of freedom    75
 Full point group                 C1      NOp   1
 Rotational constants (GHZ):           1.6764722           0.4168713           0.3701453

 **********************************************************************

            Population analysis using the SCF Density.

 **********************************************************************

 Alpha  occ. eigenvalues --  -20.59585 -20.59284 -15.84954 -15.63916 -15.56083
 Alpha  occ. eigenvalues --  -11.34860 -11.29584 -11.29531 -11.28867 -11.27081
 Alpha  occ. eigenvalues --  -11.23648 -11.23149 -11.22641 -11.22041  -1.57242
 Alpha  occ. eigenvalues --   -1.37087  -1.30797  -1.23003  -1.14354  -1.09329
 Alpha  occ. eigenvalues --   -1.02696  -1.01079  -0.94258  -0.89597  -0.85479
 Alpha  occ. eigenvalues --   -0.82401  -0.78557  -0.77393  -0.75119  -0.71955
 Alpha  occ. eigenvalues --   -0.69863  -0.69442  -0.67810  -0.64875  -0.63748
 Alpha  occ. eigenvalues --   -0.62304  -0.60303  -0.57620  -0.56943  -0.55047
 Alpha  occ. eigenvalues --   -0.54531  -0.50705  -0.50107  -0.48562  -0.48064
 Alpha  occ. eigenvalues --   -0.47599  -0.46157  -0.46016  -0.43862  -0.41656
 Alpha  occ. eigenvalues --   -0.39806  -0.33754
 Alpha virt. eigenvalues --    0.07726   0.11713   0.17339   0.21865   0.24097
 Alpha virt. eigenvalues --    0.25608   0.27124   0.28615   0.29079   0.29622
 Alpha virt. eigenvalues --    0.30629   0.31825   0.32082   0.32807   0.33977
 Alpha virt. eigenvalues --    0.34425   0.35528   0.37019   0.38567   0.39835
 Alpha virt. eigenvalues --    0.41101   0.42507   0.45124   0.46167   0.46794
 Alpha virt. eigenvalues --    0.47199   0.49095   0.54006   0.57937   0.59421
 Alpha virt. eigenvalues --    0.63844   0.69585   0.69929   0.72889   0.74285
 Alpha virt. eigenvalues --    0.74859   0.75848   0.76288   0.78616   0.79478
 Alpha virt. eigenvalues --    0.81178   0.84569   0.85678   0.85748   0.88502
 Alpha virt. eigenvalues --    0.89468   0.91065   0.92184   0.92848   0.94351
 Alpha virt. eigenvalues --    0.95609   0.98091   0.99707   1.01677   1.02413
 Alpha virt. eigenvalues --    1.03097   1.05846   1.07065   1.07842   1.09163
 Alpha virt. eigenvalues --    1.10158   1.11521   1.11908   1.12461   1.13961
 Alpha virt. eigenvalues --    1.14775   1.15059   1.15855   1.16918   1.18766
 Alpha virt. eigenvalues --    1.19135   1.21365   1.22641   1.23830   1.24488
 Alpha virt. eigenvalues --    1.24791   1.26020   1.26679   1.27349   1.29463
 Alpha virt. eigenvalues --    1.29860   1.33214   1.36017   1.37415   1.40602
 Alpha virt. eigenvalues --    1.41633   1.46314   1.48659   1.51630   1.54110
 Alpha virt. eigenvalues --    1.56892   1.58563   1.59508   1.63386   1.65622
 Alpha virt. eigenvalues --    1.67944   1.68534   1.72700   1.75115   1.77153
 Alpha virt. eigenvalues --    1.81074   1.84489   1.87355   1.90583   1.93396
 Alpha virt. eigenvalues --    1.95505   1.96827   1.99578   2.00451   2.02091
 Alpha virt. eigenvalues --    2.04603   2.04921   2.08084   2.09245   2.12004
 Alpha virt. eigenvalues --    2.13225   2.15312   2.18951   2.20018   2.22220
 Alpha virt. eigenvalues --    2.22379   2.23940   2.25199   2.28168   2.29560
 Alpha virt. eigenvalues --    2.31978   2.33543   2.34790   2.36422   2.38489
 Alpha virt. eigenvalues --    2.40966   2.41734   2.43639   2.45133   2.47307
 Alpha virt. eigenvalues --    2.50493   2.51908   2.53150   2.55666   2.61184
 Alpha virt. eigenvalues --    2.62376   2.65198   2.67725   2.70277   2.70563
 Alpha virt. eigenvalues --    2.72315   2.72635   2.77359   2.78574   2.82122
 Alpha virt. eigenvalues --    2.88626   2.89276   2.92936   2.93139   2.96217
 Alpha virt. eigenvalues --    2.99482   3.01229   3.04325   3.05517   3.07779
 Alpha virt. eigenvalues --    3.09460   3.15038   3.20815   3.24409   3.27454
 Alpha virt. eigenvalues --    3.33263   3.37597   3.38551   3.49102   3.65670
 Alpha virt. eigenvalues --    4.12757   4.25890   4.34695   4.38525   4.46066
 Alpha virt. eigenvalues --    4.55984   4.61828   4.62385   4.73493   4.79599
 Alpha virt. eigenvalues --    4.99128   5.00914   5.04876   5.11106
          Condensed to atoms (all electrons):
               1          2          3          4          5          6
     1  O    8.307931   0.305679  -0.081627  -0.082844   0.004428  -0.000015
     2  N    0.305679   5.715581   0.300789   0.267302  -0.053472   0.000916
     3  O   -0.081627   0.300789   8.343727  -0.089826   0.003976   0.000711
     4  C   -0.082844   0.267302  -0.089826   5.217275   0.565320  -0.047649
     5  C    0.004428  -0.053472   0.003976   0.565320   4.707739   0.317228
     6  N   -0.000015   0.000916   0.000711  -0.047649   0.317228   7.195392
     7  C    0.000003  -0.000134   0.000002   0.004620  -0.030560   0.171339
     8  H   -0.000000   0.000002  -0.000000  -0.000256   0.003125  -0.050569
     9  C   -0.000000  -0.000003  -0.000000   0.000880   0.000646  -0.062102
    10  C    0.000000   0.000000   0.000000  -0.000039  -0.000053   0.003760
    11  C   -0.000000  -0.000000  -0.000000  -0.000029   0.000025  -0.000189
    12  C   -0.000000   0.000002  -0.000000  -0.000124  -0.000176   0.003861
    13  C   -0.000022  -0.000022  -0.000004  -0.011644  -0.000561  -0.047738
    14  H   -0.000003  -0.000091   0.000001   0.002674   0.006111  -0.006954
    15  N    0.000359   0.002128  -0.000015  -0.063512  -0.006517   0.001708
    16  C    0.001479  -0.026692   0.002440   0.330082  -0.050829  -0.001721
    17  H    0.000224  -0.007272   0.017153  -0.023439   0.374937  -0.033950
    18  H    0.000001  -0.000050   0.000012   0.001538  -0.031295   0.338753
    19  H    0.000001  -0.000004   0.000000  -0.001250   0.001228  -0.000325
    20  H    0.000000  -0.000000   0.000000  -0.000083   0.000157  -0.000375
    21  H   -0.000000   0.000000   0.000000   0.000001   0.000001  -0.000077
    22  H   -0.000000   0.000000  -0.000000  -0.000000  -0.000003  -0.000117
    23  H    0.000000  -0.000000   0.000000   0.000041   0.000000  -0.000031
    24  H    0.000000   0.000000   0.000000   0.000000  -0.000000   0.000006
    25  H    0.000000  -0.000000   0.000000   0.000024   0.000000  -0.000090
    26  H    0.000000  -0.000000   0.000000   0.000006  -0.000002  -0.000058
    27  H    0.006149  -0.000861   0.000023  -0.063186   0.002166   0.000013
               7          8          9         10         11         12
     1  O    0.000003  -0.000000  -0.000000   0.000000  -0.000000  -0.000000
     2  N   -0.000134   0.000002  -0.000003   0.000000  -0.000000   0.000002
     3  O    0.000002  -0.000000  -0.000000   0.000000  -0.000000  -0.000000
     4  C    0.004620  -0.000256   0.000880  -0.000039  -0.000029  -0.000124
     5  C   -0.030560   0.003125   0.000646  -0.000053   0.000025  -0.000176
     6  N    0.171339  -0.050569  -0.062102   0.003760  -0.000189   0.003861
     7  C    5.015980   0.418270   0.350886  -0.054658  -0.009004  -0.061060
     8  H    0.418270   0.538596  -0.055110   0.000748  -0.000318  -0.002281
     9  C    0.350886  -0.055110   5.158082   0.324805  -0.050428  -0.005287
    10  C   -0.054658   0.000748   0.324805   5.119310   0.337010  -0.061044
    11  C   -0.009004  -0.000318  -0.050428   0.337010   5.119991   0.336029
    12  C   -0.061060  -0.002281  -0.005287  -0.061044   0.336029   5.118846
    13  C    0.338240  -0.037746  -0.060694  -0.000224  -0.050762   0.371795
    14  H   -0.046699  -0.000729   0.004428  -0.000404   0.004197  -0.036294
    15  N   -0.057965   0.003867  -0.014427   0.001580  -0.013143  -0.082176
    16  C   -0.001845   0.000002  -0.001196  -0.000031   0.000031   0.002669
    17  H    0.001628  -0.000047  -0.000069   0.000001   0.000000   0.000000
    18  H   -0.021263  -0.004494   0.001357  -0.000084   0.000004  -0.000114
    19  H   -0.036911   0.004368   0.390257  -0.032183  -0.002219   0.000686
    20  H   -0.042347  -0.002047   0.399412  -0.035312   0.003933  -0.000415
    21  H    0.004596  -0.000077  -0.036347   0.402391  -0.034935   0.004356
    22  H   -0.004853   0.003565  -0.046940   0.397726  -0.045402  -0.001043
    23  H    0.000578   0.000035  -0.001960  -0.039022   0.399202  -0.037911
    24  H   -0.000132  -0.000102   0.004387  -0.038441   0.402308  -0.038699
    25  H    0.005149  -0.000023  -0.000427   0.004197  -0.033426   0.398267
    26  H   -0.003919   0.001677   0.000973  -0.002249  -0.041466   0.396695
    27  H   -0.000402   0.000009  -0.000056   0.000006   0.000012  -0.000036
              13         14         15         16         17         18
     1  O   -0.000022  -0.000003   0.000359   0.001479   0.000224   0.000001
     2  N   -0.000022  -0.000091   0.002128  -0.026692  -0.007272  -0.000050
     3  O   -0.000004   0.000001  -0.000015   0.002440   0.017153   0.000012
     4  C   -0.011644   0.002674  -0.063512   0.330082  -0.023439   0.001538
     5  C   -0.000561   0.006111  -0.006517  -0.050829   0.374937  -0.031295
     6  N   -0.047738  -0.006954   0.001708  -0.001721  -0.033950   0.338753
     7  C    0.338240  -0.046699  -0.057965  -0.001845   0.001628  -0.021263
     8  H   -0.037746  -0.000729   0.003867   0.000002  -0.000047  -0.004494
     9  C   -0.060694   0.004428  -0.014427  -0.001196  -0.000069   0.001357
    10  C   -0.000224  -0.000404   0.001580  -0.000031   0.000001  -0.000084
    11  C   -0.050762   0.004197  -0.013143   0.000031   0.000000   0.000004
    12  C    0.371795  -0.036294  -0.082176   0.002669   0.000000  -0.000114
    13  C    5.040066   0.403177   0.245995  -0.070929  -0.000009   0.002940
    14  H    0.403177   0.527086  -0.037496  -0.004746   0.000090  -0.000112
    15  N    0.245995  -0.037496   6.965042   0.584970  -0.000078  -0.000130
    16  C   -0.070929  -0.004746   0.584970   4.709872   0.001979  -0.000195
    17  H   -0.000009   0.000090  -0.000078   0.001979   0.377843  -0.002780
    18  H    0.002940  -0.000112  -0.000130  -0.000195  -0.002780   0.311171
    19  H   -0.007534   0.000108   0.007662   0.002954   0.000016  -0.000149
    20  H    0.004351  -0.000066   0.000126  -0.000037   0.000002   0.000785
    21  H   -0.000436   0.000010  -0.000042   0.000004  -0.000000   0.000001
    22  H    0.000052  -0.000055   0.000019  -0.000002   0.000000   0.000001
    23  H   -0.007537   0.000004   0.008607   0.000102   0.000000   0.000000
    24  H    0.004704  -0.000057   0.000134   0.000007   0.000000  -0.000000
    25  H   -0.035583  -0.002826   0.000430  -0.000022  -0.000000   0.000002
    26  H   -0.047360  -0.001042   0.004896  -0.000063   0.000000  -0.000000
    27  H    0.005029  -0.000172  -0.040063   0.403472  -0.000079   0.000001
              19         20         21         22         23         24
     1  O    0.000001   0.000000  -0.000000  -0.000000   0.000000   0.000000
     2  N   -0.000004  -0.000000   0.000000   0.000000  -0.000000   0.000000
     3  O    0.000000   0.000000   0.000000  -0.000000   0.000000   0.000000
     4  C   -0.001250  -0.000083   0.000001  -0.000000   0.000041   0.000000
     5  C    0.001228   0.000157   0.000001  -0.000003   0.000000  -0.000000
     6  N   -0.000325  -0.000375  -0.000077  -0.000117  -0.000031   0.000006
     7  C   -0.036911  -0.042347   0.004596  -0.004853   0.000578  -0.000132
     8  H    0.004368  -0.002047  -0.000077   0.003565   0.000035  -0.000102
     9  C    0.390257   0.399412  -0.036347  -0.046940  -0.001960   0.004387
    10  C   -0.032183  -0.035312   0.402391   0.397726  -0.039022  -0.038441
    11  C   -0.002219   0.003933  -0.034935  -0.045402   0.399202   0.402308
    12  C    0.000686  -0.000415   0.004356  -0.001043  -0.037911  -0.038699
    13  C   -0.007534   0.004351  -0.000436   0.000052  -0.007537   0.004704
    14  H    0.000108  -0.000066   0.000010  -0.000055   0.000004  -0.000057
    15  N    0.007662   0.000126  -0.000042   0.000019   0.008607   0.000134
    16  C    0.002954  -0.000037   0.000004  -0.000002   0.000102   0.000007
    17  H    0.000016   0.000002  -0.000000   0.000000   0.000000   0.000000
    18  H   -0.000149   0.000785   0.000001   0.000001   0.000000  -0.000000
    19  H    0.505674  -0.024737  -0.002788   0.003967   0.001519  -0.000067
    20  H   -0.024737   0.541196  -0.002699  -0.002987  -0.000045  -0.000083
    21  H   -0.002788  -0.002699   0.524480  -0.027443  -0.002898  -0.002246
    22  H    0.003967  -0.002987  -0.027443   0.571534   0.004139  -0.003654
    23  H    0.001519  -0.000045  -0.002898   0.004139   0.499144  -0.025477
    24  H   -0.000067  -0.000083  -0.002246  -0.003654  -0.025477   0.538459
    25  H   -0.000029   0.000012  -0.000087  -0.000080  -0.002312  -0.002301
    26  H    0.000019  -0.000030  -0.000081   0.002383   0.004069  -0.003027
    27  H    0.000082   0.000000  -0.000000   0.000000  -0.000035  -0.000000
              25         26         27
     1  O    0.000000   0.000000   0.006149
     2  N   -0.000000  -0.000000  -0.000861
     3  O    0.000000   0.000000   0.000023
     4  C    0.000024   0.000006  -0.063186
     5  C    0.000000  -0.000002   0.002166
     6  N   -0.000090  -0.000058   0.000013
     7  C    0.005149  -0.003919  -0.000402
     8  H   -0.000023   0.001677   0.000009
     9  C   -0.000427   0.000973  -0.000056
    10  C    0.004197  -0.002249   0.000006
    11  C   -0.033426  -0.041466   0.000012
    12  C    0.398267   0.396695  -0.000036
    13  C   -0.035583  -0.047360   0.005029
    14  H   -0.002826  -0.001042  -0.000172
    15  N    0.000430   0.004896  -0.040063
    16  C   -0.000022  -0.000063   0.403472
    17  H   -0.000000   0.000000  -0.000079
    18  H    0.000002  -0.000000   0.000001
    19  H   -0.000029   0.000019   0.000082
    20  H    0.000012  -0.000030   0.000000
    21  H   -0.000087  -0.000081  -0.000000
    22  H   -0.000080   0.002383   0.000000
    23  H   -0.002312   0.004069  -0.000035
    24  H   -0.002301  -0.003027  -0.000000
    25  H    0.506488  -0.024113  -0.000013
    26  H   -0.024113   0.562472   0.000001
    27  H   -0.000013   0.000001   0.439030
 Mulliken charges:
               1
     1  O   -0.461741
     2  N    0.496203
     3  O   -0.497363
     4  C   -0.005882
     5  C    0.186380
     6  N   -0.781725
     7  C    0.060460
     8  H    0.179532
     9  C   -0.301069
    10  C   -0.327792
    11  C   -0.321420
    12  C   -0.306547
    13  C   -0.037542
    14  H    0.189860
    15  N   -0.511958
    16  C    0.118245
    17  H    0.293852
    18  H    0.404099
    19  H    0.189653
    20  H    0.161290
    21  H    0.174316
    22  H    0.149191
    23  H    0.199790
    24  H    0.164280
    25  H    0.186761
    26  H    0.150218
    27  H    0.248910
 Sum of Mulliken charges =  -0.00000
 Mulliken charges with hydrogens summed into heavy atoms:
               1
     1  O   -0.461741
     2  N    0.496203
     3  O   -0.497363
     4  C   -0.005882
     5  C    0.480232
     6  N   -0.377627
     7  C    0.239992
     9  C    0.049874
    10  C   -0.004284
    11  C    0.042649
    12  C    0.030431
    13  C    0.152318
    15  N   -0.511958
    16  C    0.367155
 Electronic spatial extent (au):  <R**2>=           3019.0540
 Charge=              0.0000 electrons
 Dipole moment (field-independent basis, Debye):
    X=              5.2624    Y=              4.7194    Z=              1.3001  Tot=              7.1872
 Quadrupole moment (field-independent basis, Debye-Ang):
   XX=           -105.7117   YY=            -79.3074   ZZ=            -81.5860
   XY=             -1.6102   XZ=             -0.2289   YZ=              1.8918
 Traceless Quadrupole moment (field-independent basis, Debye-Ang):
   XX=            -16.8434   YY=              9.5610   ZZ=              7.2824
   XY=             -1.6102   XZ=             -0.2289   YZ=              1.8918
 Octapole moment (field-independent basis, Debye-Ang**2):
  XXX=             90.8892  YYY=             35.8509  ZZZ=             -1.2354  XYY=             -4.6370
  XXY=              9.2223  XXZ=              5.5514  XZZ=             -9.6086  YZZ=             -0.3563
  YYZ=              8.1679  XYZ=              0.3233
 Hexadecapole moment (field-independent basis, Debye-Ang**3):
 XXXX=          -3393.5374 YYYY=           -602.5537 ZZZZ=           -304.5748 XXXY=            -19.9927
 XXXZ=            -18.0354 YYYX=             -8.1983 YYYZ=             25.2008 ZZZX=             -0.4356
 ZZZY=              6.9254 XXYY=           -630.5008 XXZZ=           -526.5645 YYZZ=           -157.6174
 XXYZ=             -4.4755 YYXZ=              0.7226 ZZXY=              4.5761
 N-N= 9.295993431711D+02 E-N=-3.405875434630D+03  KE= 6.595661329696D+02
 Unable to Open any file for archive entry.
 1\1\GINC-LOTUS\FOpt\RMP2-FC\6-31G(d)\C9H13N3O2\ALEXEY\01-Jul-2023\0\\#
 MP2/6-31G* SCF=Tight Opt=(ModRedun, MaxCycle=20 ) NoSymm\\MolName:\\0,
 1\O,-3.5304822181,-1.3864496042,-0.3868754813\N,-3.1462294043,-0.23123
 1106,-0.1300134228\O,-3.9103086931,0.7356511916,0.0407582712\C,-1.6749
 473962,-0.0250285363,-0.0055083981\C,-1.2976117121,1.2602073106,0.2768
 670639\N,-0.0535901003,1.7526840773,0.38933866\C,1.2083135484,1.025176
 8485,0.361181406\H,1.8580480709,1.5533278011,1.0753290952\C,1.90919676
 96,1.0349834978,-0.9961385678\C,3.3080429327,0.4286671449,-0.835123095
 5\C,3.2617302007,-0.9669333625,-0.2074020736\C,2.4699624427,-0.9762582
 652,1.1019244542\C,1.0590197052,-0.4246870318,0.8670639865\H,0.4838356
 646,-0.40301634,1.8063234271\N,0.412044863,-1.3223587398,-0.0850968928
 \C,-0.837141767,-1.1442156305,-0.37687715\H,-2.0955301985,1.9846434664
 ,0.416702015\H,0.004579743,2.7362253546,0.6249823692\H,1.3132730609,0.
 4566280015,-1.7103171362\H,1.9739196467,2.0625206806,-1.3751130729\H,3
 .8097367074,0.3899188883,-1.8088273302\H,3.909284115,1.0954817833,-0.2
 007428687\H,2.7822527992,-1.6643686266,-0.9013883768\H,4.2813671212,-1
 .3303149684,-0.0325382944\H,2.3865452395,-1.9976267096,1.4876948801\H,
 2.9809572414,-0.3764358114,1.8677165761\H,-1.3032483825,-1.9032113145,
 -1.0049200432\\Version=ES64L-G16RevC.02\HF=-661.2987661\MP2=-663.33399
 31\RMSD=2.802e-09\RMSF=2.816e-03\Dipole=1.9135355,1.6688518,0.4774035\
 PG=C01 [X(C9H13N3O2)]\\@
 The archive entry for this job was punched.


 The lyf so short, the craft so long to lerne.
                             -- Chaucer
 Job cpu time:       0 days  1 hours 27 minutes 22.4 seconds.
 Elapsed time:       0 days  0 hours 26 minutes  4.3 seconds.
 File lengths (MBytes):  RWF=     36 Int=      0 D2E=      0 Chk=      7 Scr=      1
 Normal termination of Gaussian 16 at Sat Jul  1 06:48:06 2023.
