 Entering Gaussian System, Link 0=g16
 Initial command:
 /home/alexey/programs//g16/l1.exe "/home/alexey/tmp/Gau-1281389.inp" -scrdir="/home/alexey/tmp/"
 Entering Link 1 = /home/alexey/programs//g16/l1.exe PID=   1281391.
  
 Copyright (c) 1988-2021, Gaussian, Inc.  All Rights Reserved.
  
 This is part of the Gaussian(R) 16 program.  It is based on
 the Gaussian(R) 09 system (copyright 2009, Gaussian, Inc.),
 the Gaussian(R) 03 system (copyright 2003, Gaussian, Inc.),
 the Gaussian(R) 98 system (copyright 1998, Gaussian, Inc.),
 the Gaussian(R) 94 system (copyright 1995, Gaussian, Inc.),
 the Gaussian 92(TM) system (copyright 1992, Gaussian, Inc.),
 the Gaussian 90(TM) system (copyright 1990, Gaussian, Inc.),
 the Gaussian 88(TM) system (copyright 1988, Gaussian, Inc.),
 the Gaussian 86(TM) system (copyright 1986, Carnegie Mellon
 University), and the Gaussian 82(TM) system (copyright 1983,
 Carnegie Mellon University). Gaussian is a federally registered
 trademark of Gaussian, Inc.
  
 This software contains proprietary and confidential information,
 including trade secrets, belonging to Gaussian, Inc.
  
 This software is provided under written license and may be
 used, copied, transmitted, or stored only in accord with that
 written license.
  
 The following legend is applicable only to US Government
 contracts under FAR:
  
                    RESTRICTED RIGHTS LEGEND
  
 Use, reproduction and disclosure by the US Government is
 subject to restrictions as set forth in subparagraphs (a)
 and (c) of the Commercial Computer Software - Restricted
 Rights clause in FAR 52.227-19.
  
 Gaussian, Inc.
 340 Quinnipiac St., Bldg. 40, Wallingford CT 06492
  
  
 ---------------------------------------------------------------
 Warning -- This program may not be used in any manner that
 competes with the business of Gaussian, Inc. or will provide
 assistance to any competitor of Gaussian, Inc.  The licensee
 of this program is prohibited from giving any competitor of
 Gaussian, Inc. access to this program.  By using this program,
 the user acknowledges that Gaussian, Inc. is engaged in the
 business of creating and licensing software in the field of
 computational chemistry and represents and warrants to the
 licensee that it is not a competitor of Gaussian, Inc. and that
 it will not use this program in any manner prohibited above.
 ---------------------------------------------------------------
  

 Cite this work as:
 Gaussian 16, Revision C.02,
 M. J. Frisch, G. W. Trucks, H. B. Schlegel, G. E. Scuseria, 
 M. A. Robb, J. R. Cheeseman, G. Scalmani, V. Barone, 
 G. A. Petersson, H. Nakatsuji, X. Li, M. Caricato, A. V. Marenich, 
 J. Bloino, B. G. Janesko, R. Gomperts, B. Mennucci, H. P. Hratchian, 
 J. V. Ortiz, A. F. Izmaylov, J. L. Sonnenberg, D. Williams-Young, 
 F. Ding, F. Lipparini, F. Egidi, J. Goings, B. Peng, A. Petrone, 
 T. Henderson, D. Ranasinghe, V. G. Zakrzewski, J. Gao, N. Rega, 
 G. Zheng, W. Liang, M. Hada, M. Ehara, K. Toyota, R. Fukuda, 
 J. Hasegawa, M. Ishida, T. Nakajima, Y. Honda, O. Kitao, H. Nakai, 
 T. Vreven, K. Throssell, J. A. Montgomery, Jr., J. E. Peralta, 
 F. Ogliaro, M. J. Bearpark, J. J. Heyd, E. N. Brothers, K. N. Kudin, 
 V. N. Staroverov, T. A. Keith, R. Kobayashi, J. Normand, 
 K. Raghavachari, A. P. Rendell, J. C. Burant, S. S. Iyengar, 
 J. Tomasi, M. Cossi, J. M. Millam, M. Klene, C. Adamo, R. Cammi, 
 J. W. Ochterski, R. L. Martin, K. Morokuma, O. Farkas, 
 J. B. Foresman, and D. J. Fox, Gaussian, Inc., Wallingford CT, 2019.
 
 ******************************************
 Gaussian 16:  ES64L-G16RevC.02  7-Dec-2021
                 1-Jul-2023 
 ******************************************
 %mem=8GB
 %NPROCS=4
 Will use up to    4 processors via shared memory.
 %NoSave
 ---------------------------------------------------------
 #MP2/6-31G* SCF=Tight Opt=(ModRedun, MaxCycle=20 ) NoSymm
 ---------------------------------------------------------
 1/6=20,18=120,19=15,38=1/1,3;
 2/9=110,12=2,15=1,17=6,18=5,40=1/2;
 3/5=1,6=6,7=1,11=9,25=1,30=1,71=1/1,2,3;
 4//1;
 5/5=2,32=2,38=5/2;
 8/6=4,10=2/1;
 9/15=2,16=-3/6;
 10/5=1,31=1/2;
 6/7=2,8=2,9=2,10=2/1;
 7/12=2,30=1/1,2,3,16;
 1/6=20,18=20,19=15/3(2);
 2/9=110,15=1/2;
 99//99;
 2/9=110,15=1/2;
 3/5=1,6=6,7=1,11=9,25=1,30=1,71=1/1,2,3;
 4/5=5,16=3,69=1/1;
 5/5=2,32=2,38=5/2;
 8/6=4,10=2/1;
 9/15=2,16=-3/6;
 10/5=1,31=1/2;
 7/12=2,30=1/1,2,3,16;
 1/6=20,18=20,19=15/3(-8);
 2/9=110,15=1/2;
 6/7=2,8=2,9=2,10=2/1;
 99/9=10/99;
 --------
 MolName:
 --------
 Symbolic Z-matrix:
 Charge =  0 Multiplicity = 1
 8                    0    -3.61819  -1.44568  -0.18497 
 7                    0    -3.25816  -0.28095  -0.02304 
 8                    0    -4.03784   0.65898   0.13642 
 6                    0    -1.75761   0.00714  -0.04229 
 6                    0    -1.36949   1.3145    0.27273 
 7                    0    -0.08119   1.7693    0.38627 
 6                    0     1.19762   0.99605   0.35945 
 1                    0     1.85991   1.49295   1.1152 
 6                    0     1.96541   1.04795  -0.98501 
 6                    0     3.37645   0.46009  -0.79279 
 6                    0     3.3118   -0.95644  -0.20008 
 6                    0     2.46031  -0.99069   1.08742 
 6                    0     1.02446  -0.4532    0.83803 
 1                    0     0.47358  -0.49262   1.80697 
 7                    0     0.36987  -1.321    -0.14381 
 6                    0    -0.87074  -1.11656  -0.44379 
 1                    0    -2.15683   2.05329   0.49661 
 1                    0     0.15101   2.75128   0.2187 
 1                    0     1.41735   0.47265  -1.76124 
 1                    0     2.05354   2.09824  -1.3354 
 1                    0     3.91352   0.43668  -1.76622 
 1                    0     3.95242   1.11267  -0.09921 
 1                    0     2.86574  -1.64451  -0.95332 
 1                    0     4.33889  -1.32149   0.01908 
 1                    0     2.39998  -2.03737   1.45832 
 1                    0     2.95318  -0.38097   1.87344 
 1                    0    -1.372    -1.86326  -1.07847 
 
 The following ModRedundant input section has been read:
 B       2       4 F                                                           
 D       1       2       4      16 F                                           
 D       7      13      15      16 F                                           
 D       7       9      10      11 F                                           
 D       9      10      11      12 F                                           
 D       6       7      13      15 F                                           
 

 GradGradGradGradGradGradGradGradGradGradGradGradGradGradGradGradGradGrad
 Berny optimization.
 Initialization pass.
                           ----------------------------
                           !    Initial Parameters    !
                           ! (Angstroms and Degrees)  !
 --------------------------                            --------------------------
 ! Name  Definition              Value          Derivative Info.                !
 --------------------------------------------------------------------------------
 ! R1    R(1,2)                  1.2298         estimate D2E/DX2                !
 ! R2    R(2,3)                  1.2316         estimate D2E/DX2                !
 ! R3    R(2,4)                  1.5281         Frozen                          !
 ! R4    R(4,5)                  1.3997         estimate D2E/DX2                !
 ! R5    R(4,16)                 1.4868         estimate D2E/DX2                !
 ! R6    R(5,6)                  1.3709         estimate D2E/DX2                !
 ! R7    R(5,17)                 1.1027         estimate D2E/DX2                !
 ! R8    R(6,7)                  1.4947         estimate D2E/DX2                !
 ! R9    R(6,18)                 1.0229         estimate D2E/DX2                !
 ! R10   R(7,8)                  1.121          estimate D2E/DX2                !
 ! R11   R(7,9)                  1.5491         estimate D2E/DX2                !
 ! R12   R(7,13)                 1.536          estimate D2E/DX2                !
 ! R13   R(9,10)                 1.5406         estimate D2E/DX2                !
 ! R14   R(9,19)                 1.1108         estimate D2E/DX2                !
 ! R15   R(9,20)                 1.1107         estimate D2E/DX2                !
 ! R16   R(10,11)                1.5369         estimate D2E/DX2                !
 ! R17   R(10,21)                1.112          estimate D2E/DX2                !
 ! R18   R(10,22)                1.1129         estimate D2E/DX2                !
 ! R19   R(11,12)                1.544          estimate D2E/DX2                !
 ! R20   R(11,23)                1.1135         estimate D2E/DX2                !
 ! R21   R(11,24)                1.1118         estimate D2E/DX2                !
 ! R22   R(12,13)                1.5533         estimate D2E/DX2                !
 ! R23   R(12,25)                1.1121         estimate D2E/DX2                !
 ! R24   R(12,26)                1.1102         estimate D2E/DX2                !
 ! R25   R(13,14)                1.1153         estimate D2E/DX2                !
 ! R26   R(13,15)                1.4648         estimate D2E/DX2                !
 ! R27   R(15,16)                1.2926         estimate D2E/DX2                !
 ! R28   R(16,27)                1.1007         estimate D2E/DX2                !
 ! A1    A(1,2,3)              123.6773         estimate D2E/DX2                !
 ! A2    A(1,2,4)              117.6697         estimate D2E/DX2                !
 ! A3    A(3,2,4)              118.6471         estimate D2E/DX2                !
 ! A4    A(2,4,5)              116.4593         estimate D2E/DX2                !
 ! A5    A(2,4,16)             116.5307         estimate D2E/DX2                !
 ! A6    A(5,4,16)             126.9654         estimate D2E/DX2                !
 ! A7    A(4,5,6)              126.0924         estimate D2E/DX2                !
 ! A8    A(4,5,17)             118.2633         estimate D2E/DX2                !
 ! A9    A(6,5,17)             115.5892         estimate D2E/DX2                !
 ! A10   A(5,6,7)              129.1171         estimate D2E/DX2                !
 ! A11   A(5,6,18)             121.2141         estimate D2E/DX2                !
 ! A12   A(7,6,18)             107.4272         estimate D2E/DX2                !
 ! A13   A(6,7,8)              105.3112         estimate D2E/DX2                !
 ! A14   A(6,7,9)              114.9797         estimate D2E/DX2                !
 ! A15   A(6,7,13)             112.7105         estimate D2E/DX2                !
 ! A16   A(8,7,9)              106.107          estimate D2E/DX2                !
 ! A17   A(8,7,13)             105.9482         estimate D2E/DX2                !
 ! A18   A(9,7,13)             110.9709         estimate D2E/DX2                !
 ! A19   A(7,9,10)             109.4431         estimate D2E/DX2                !
 ! A20   A(7,9,19)             110.1568         estimate D2E/DX2                !
 ! A21   A(7,9,20)             110.1695         estimate D2E/DX2                !
 ! A22   A(10,9,19)            109.9656         estimate D2E/DX2                !
 ! A23   A(10,9,20)            109.1174         estimate D2E/DX2                !
 ! A24   A(19,9,20)            107.9656         estimate D2E/DX2                !
 ! A25   A(9,10,11)            111.1786         estimate D2E/DX2                !
 ! A26   A(9,10,21)            109.9476         estimate D2E/DX2                !
 ! A27   A(9,10,22)            109.1476         estimate D2E/DX2                !
 ! A28   A(11,10,21)           109.786          estimate D2E/DX2                !
 ! A29   A(11,10,22)           108.7757         estimate D2E/DX2                !
 ! A30   A(21,10,22)           107.9343         estimate D2E/DX2                !
 ! A31   A(10,11,12)           111.4221         estimate D2E/DX2                !
 ! A32   A(10,11,23)           108.9973         estimate D2E/DX2                !
 ! A33   A(10,11,24)           109.863          estimate D2E/DX2                !
 ! A34   A(12,11,23)           109.2369         estimate D2E/DX2                !
 ! A35   A(12,11,24)           109.7427         estimate D2E/DX2                !
 ! A36   A(23,11,24)           107.489          estimate D2E/DX2                !
 ! A37   A(11,12,13)           111.6065         estimate D2E/DX2                !
 ! A38   A(11,12,25)           109.2027         estimate D2E/DX2                !
 ! A39   A(11,12,26)           109.474          estimate D2E/DX2                !
 ! A40   A(13,12,25)           109.2128         estimate D2E/DX2                !
 ! A41   A(13,12,26)           109.5127         estimate D2E/DX2                !
 ! A42   A(25,12,26)           107.7495         estimate D2E/DX2                !
 ! A43   A(7,13,12)            105.8011         estimate D2E/DX2                !
 ! A44   A(7,13,14)            111.0829         estimate D2E/DX2                !
 ! A45   A(7,13,15)            113.6101         estimate D2E/DX2                !
 ! A46   A(12,13,14)           107.7503         estimate D2E/DX2                !
 ! A47   A(12,13,15)           108.4037         estimate D2E/DX2                !
 ! A48   A(14,13,15)           109.9177         estimate D2E/DX2                !
 ! A49   A(13,15,16)           119.3904         estimate D2E/DX2                !
 ! A50   A(4,16,15)            129.0039         estimate D2E/DX2                !
 ! A51   A(4,16,27)            113.3767         estimate D2E/DX2                !
 ! A52   A(15,16,27)           117.6181         estimate D2E/DX2                !
 ! D1    D(1,2,4,5)           -174.0005         estimate D2E/DX2                !
 ! D2    D(1,2,4,16)             8.2581         Frozen                          !
 ! D3    D(3,2,4,5)              6.8468         estimate D2E/DX2                !
 ! D4    D(3,2,4,16)          -170.8946         estimate D2E/DX2                !
 ! D5    D(2,4,5,6)            176.1886         estimate D2E/DX2                !
 ! D6    D(2,4,5,17)            -0.9814         estimate D2E/DX2                !
 ! D7    D(16,4,5,6)            -6.3406         estimate D2E/DX2                !
 ! D8    D(16,4,5,17)          176.4894         estimate D2E/DX2                !
 ! D9    D(2,4,16,15)         -154.7032         estimate D2E/DX2                !
 ! D10   D(2,4,16,27)           24.8796         estimate D2E/DX2                !
 ! D11   D(5,4,16,15)           27.8276         estimate D2E/DX2                !
 ! D12   D(5,4,16,27)         -152.5896         estimate D2E/DX2                !
 ! D13   D(4,5,6,7)             -7.4357         estimate D2E/DX2                !
 ! D14   D(4,5,6,18)           153.3172         estimate D2E/DX2                !
 ! D15   D(17,5,6,7)           169.8007         estimate D2E/DX2                !
 ! D16   D(17,5,6,18)          -29.4464         estimate D2E/DX2                !
 ! D17   D(5,6,7,8)           -142.222          estimate D2E/DX2                !
 ! D18   D(5,6,7,9)            101.3629         estimate D2E/DX2                !
 ! D19   D(5,6,7,13)           -27.1721         estimate D2E/DX2                !
 ! D20   D(18,6,7,8)            54.9647         estimate D2E/DX2                !
 ! D21   D(18,6,7,9)           -61.4503         estimate D2E/DX2                !
 ! D22   D(18,6,7,13)          170.0147         estimate D2E/DX2                !
 ! D23   D(6,7,9,10)           168.7058         estimate D2E/DX2                !
 ! D24   D(6,7,9,19)           -70.2761         estimate D2E/DX2                !
 ! D25   D(6,7,9,20)            48.7278         estimate D2E/DX2                !
 ! D26   D(8,7,9,10)            52.7458         estimate D2E/DX2                !
 ! D27   D(8,7,9,19)           173.7639         estimate D2E/DX2                !
 ! D28   D(8,7,9,20)           -67.2321         estimate D2E/DX2                !
 ! D29   D(13,7,9,10)          -61.8971         estimate D2E/DX2                !
 ! D30   D(13,7,9,19)           59.121          estimate D2E/DX2                !
 ! D31   D(13,7,9,20)          178.125          estimate D2E/DX2                !
 ! D32   D(6,7,13,12)         -166.1764         estimate D2E/DX2                !
 ! D33   D(6,7,13,14)          -49.5178         estimate D2E/DX2                !
 ! D34   D(6,7,13,15)           75.022          Frozen                          !
 ! D35   D(8,7,13,12)          -51.5111         estimate D2E/DX2                !
 ! D36   D(8,7,13,14)           65.1474         estimate D2E/DX2                !
 ! D37   D(8,7,13,15)         -170.3128         estimate D2E/DX2                !
 ! D38   D(9,7,13,12)           63.2309         estimate D2E/DX2                !
 ! D39   D(9,7,13,14)          179.8895         estimate D2E/DX2                !
 ! D40   D(9,7,13,15)          -55.5708         estimate D2E/DX2                !
 ! D41   D(7,9,10,11)           54.8124         Frozen                          !
 ! D42   D(7,9,10,21)          176.6029         estimate D2E/DX2                !
 ! D43   D(7,9,10,22)          -65.1822         estimate D2E/DX2                !
 ! D44   D(19,9,10,11)         -66.3215         estimate D2E/DX2                !
 ! D45   D(19,9,10,21)          55.469          estimate D2E/DX2                !
 ! D46   D(19,9,10,22)         173.6839         estimate D2E/DX2                !
 ! D47   D(20,9,10,11)         175.4331         estimate D2E/DX2                !
 ! D48   D(20,9,10,21)         -62.7764         estimate D2E/DX2                !
 ! D49   D(20,9,10,22)          55.4385         estimate D2E/DX2                !
 ! D50   D(9,10,11,12)         -52.8224         Frozen                          !
 ! D51   D(9,10,11,23)          67.8006         estimate D2E/DX2                !
 ! D52   D(9,10,11,24)        -174.663          estimate D2E/DX2                !
 ! D53   D(21,10,11,12)       -174.7069         estimate D2E/DX2                !
 ! D54   D(21,10,11,23)        -54.084          estimate D2E/DX2                !
 ! D55   D(21,10,11,24)         63.4525         estimate D2E/DX2                !
 ! D56   D(22,10,11,12)         67.3927         estimate D2E/DX2                !
 ! D57   D(22,10,11,23)       -171.9844         estimate D2E/DX2                !
 ! D58   D(22,10,11,24)        -54.448          estimate D2E/DX2                !
 ! D59   D(10,11,12,13)         56.5991         estimate D2E/DX2                !
 ! D60   D(10,11,12,25)        177.4459         estimate D2E/DX2                !
 ! D61   D(10,11,12,26)        -64.8075         estimate D2E/DX2                !
 ! D62   D(23,11,12,13)        -63.8832         estimate D2E/DX2                !
 ! D63   D(23,11,12,25)         56.9636         estimate D2E/DX2                !
 ! D64   D(23,11,12,26)        174.7102         estimate D2E/DX2                !
 ! D65   D(24,11,12,13)        178.5094         estimate D2E/DX2                !
 ! D66   D(24,11,12,25)        -60.6438         estimate D2E/DX2                !
 ! D67   D(24,11,12,26)         57.1028         estimate D2E/DX2                !
 ! D68   D(11,12,13,7)         -60.3039         estimate D2E/DX2                !
 ! D69   D(11,12,13,14)       -179.1933         estimate D2E/DX2                !
 ! D70   D(11,12,13,15)         61.8932         estimate D2E/DX2                !
 ! D71   D(25,12,13,7)         178.8552         estimate D2E/DX2                !
 ! D72   D(25,12,13,14)         59.9658         estimate D2E/DX2                !
 ! D73   D(25,12,13,15)        -58.9476         estimate D2E/DX2                !
 ! D74   D(26,12,13,7)          61.0802         estimate D2E/DX2                !
 ! D75   D(26,12,13,14)        -57.8092         estimate D2E/DX2                !
 ! D76   D(26,12,13,15)       -176.7226         estimate D2E/DX2                !
 ! D77   D(7,13,15,16)         -67.1603         Frozen                          !
 ! D78   D(12,13,15,16)        175.5411         estimate D2E/DX2                !
 ! D79   D(14,13,15,16)         58.0051         estimate D2E/DX2                !
 ! D80   D(13,15,16,4)           7.6346         estimate D2E/DX2                !
 ! D81   D(13,15,16,27)       -171.9332         estimate D2E/DX2                !
 --------------------------------------------------------------------------------
 Trust Radius=3.00D-01 FncErr=1.00D-07 GrdErr=1.00D-07 EigMax=2.50D+02 EigMin=1.00D-04
 Number of steps in this run=     20 maximum allowed number of steps=    162.
 GradGradGradGradGradGradGradGradGradGradGradGradGradGradGradGradGradGrad

                          Input orientation:                          
 ---------------------------------------------------------------------
 Center     Atomic      Atomic             Coordinates (Angstroms)
 Number     Number       Type             X           Y           Z
 ---------------------------------------------------------------------
      1          8           0       -3.618190   -1.445680   -0.184970
      2          7           0       -3.258160   -0.280950   -0.023040
      3          8           0       -4.037840    0.658980    0.136420
      4          6           0       -1.757610    0.007140   -0.042290
      5          6           0       -1.369490    1.314500    0.272730
      6          7           0       -0.081190    1.769300    0.386270
      7          6           0        1.197620    0.996050    0.359450
      8          1           0        1.859910    1.492950    1.115200
      9          6           0        1.965410    1.047950   -0.985010
     10          6           0        3.376450    0.460090   -0.792790
     11          6           0        3.311800   -0.956440   -0.200080
     12          6           0        2.460310   -0.990690    1.087420
     13          6           0        1.024460   -0.453200    0.838030
     14          1           0        0.473580   -0.492620    1.806970
     15          7           0        0.369870   -1.321000   -0.143810
     16          6           0       -0.870740   -1.116560   -0.443790
     17          1           0       -2.156830    2.053290    0.496610
     18          1           0        0.151010    2.751280    0.218700
     19          1           0        1.417350    0.472650   -1.761240
     20          1           0        2.053540    2.098240   -1.335400
     21          1           0        3.913520    0.436680   -1.766220
     22          1           0        3.952420    1.112670   -0.099210
     23          1           0        2.865740   -1.644510   -0.953320
     24          1           0        4.338890   -1.321490    0.019080
     25          1           0        2.399980   -2.037370    1.458320
     26          1           0        2.953180   -0.380970    1.873440
     27          1           0       -1.372000   -1.863260   -1.078470
 ---------------------------------------------------------------------
                    Distance matrix (angstroms):
                    1          2          3          4          5
     1  O    0.000000
     2  N    1.229813   0.000000
     3  O    2.170021   1.231583   0.000000
     4  C    2.364910   1.528076   2.378294   0.000000
     5  C    3.589531   2.489983   2.751069   1.399666   0.000000
     6  N    4.813811   3.803183   4.117076   2.469667   1.370931
     7  C    5.426828   4.650914   5.251038   3.142089   2.588240
     8  H    6.351029   5.535066   6.036304   4.078464   3.342248
     9  C    6.167240   5.475130   6.119470   3.979056   3.574146
    10  C    7.275053   6.720097   7.474937   5.208357   4.938552
    11  C    6.947255   6.606966   7.532597   5.162587   5.224480
    12  C    6.226890   5.868369   6.771393   4.479147   4.543676
    13  C    4.856516   4.371721   5.230304   2.954114   3.029080
    14  H    4.649595   4.161685   4.946699   2.940703   3.002746
    15  N    3.990221   3.776095   4.840120   2.510066   3.185081
    16  C    2.779171   2.564186   3.676916   1.486756   2.583061
    17  H    3.852650   2.632801   2.368974   2.153258   1.102650
    18  H    5.655466   4.568949   4.683050   3.352797   2.092648
    19  H    5.614382   5.044764   5.778835   3.640310   3.551369
    20  H    6.786117   5.966321   6.429824   4.535383   3.862313
    21  H    7.922770   7.415299   8.178850   5.942908   5.730452
    22  H    7.991661   7.344416   8.006598   5.816346   5.338708
    23  H    6.532323   6.342465   7.358873   4.993324   5.310001
    24  H    7.960665   7.668094   8.608463   6.239899   6.292725
    25  H    6.266488   6.106880   7.103749   4.870052   5.181656
    26  H    6.968039   6.495182   7.278262   5.100215   4.911453
    27  H    2.453179   2.678663   3.865793   2.172731   3.453101
                    6          7          8          9         10
     6  N    0.000000
     7  C    1.494654   0.000000
     8  H    2.091788   1.121024   0.000000
     9  C    2.566968   1.549118   2.149427   0.000000
    10  C    3.880656   2.522342   2.647096   1.540637   0.000000
    11  C    4.391565   2.931731   3.136472   2.538988   1.536894
    12  C    3.816855   2.464034   2.555332   2.948889   2.545440
    13  C    2.523104   1.536017   2.135954   2.542108   3.004252
    14  H    2.728084   2.199019   2.518520   3.520521   4.011616
    15  N    3.167711   2.511406   3.423980   2.977464   3.554290
    16  C    3.104928   3.063728   4.086128   3.608569   4.543814
    17  H    2.097881   3.519788   4.102540   4.494304   5.900680
    18  H    1.022879   2.048423   2.303789   2.764471   4.083641
    19  H    2.922109   2.195348   3.083955   1.110798   2.185435
    20  H    2.762141   2.195436   2.531661   1.110698   2.174408
    21  H    4.729355   3.493921   3.692642   2.186109   1.112006
    22  H    4.115442   2.795155   2.449082   2.176474   1.112949
    23  H    4.704572   3.388000   3.890260   2.839179   2.171621
    24  H    5.406008   3.918472   3.907415   3.500836   2.181617
    25  H    4.668644   3.443083   3.587836   3.959534   3.501185
    26  H    4.005339   2.696357   2.298204   3.344882   2.827600
    27  H    4.123972   4.104414   5.149910   4.429693   5.294086
                   11         12         13         14         15
    11  C    0.000000
    12  C    1.543977   0.000000
    13  C    2.561805   1.553305   0.000000
    14  H    3.506975   2.170927   1.115288   0.000000
    15  N    2.964966   2.448463   1.464778   2.121912   0.000000
    16  C    4.192693   3.668289   2.382203   2.694887   1.292632
    17  H    6.280905   5.561731   4.064439   3.888156   4.263823
    18  H    4.890108   4.482174   3.378635   3.626229   4.094237
    19  H    2.840503   3.368085   2.787071   3.815045   2.632579
    20  H    3.493314   3.946772   3.506088   4.368446   3.993223
    21  H    2.180744   3.506061   3.990072   5.046233   4.275407
    22  H    2.168360   2.838768   3.450118   4.279346   4.331213
    23  H    1.113454   2.180934   2.831690   3.829945   2.643735
    24  H    1.111848   2.186285   3.522790   4.338686   3.972361
    25  H    2.179476   1.112091   2.187786   2.493757   2.683534
    26  H    2.181573   1.110183   2.190263   2.483002   3.409757
    27  H    4.850966   4.487656   3.377020   3.689252   2.049816
                   16         17         18         19         20
    16  C    0.000000
    17  H    3.547722   0.000000
    18  H    4.055003   2.427045   0.000000
    19  H    3.081658   4.513432   3.273520   0.000000
    20  H    4.436363   4.591895   2.541910   1.796836   0.000000
    21  H    5.201011   6.677048   4.842908   2.496434   2.530991
    22  H    5.324573   6.209888   4.151726   3.098153   2.470882
    23  H    3.807839   6.403298   5.297769   2.689412   3.848874
    24  H    5.234166   7.335636   5.845138   3.863143   4.330357
    25  H    3.894037   6.198621   5.433755   4.198968   5.002815
    26  H    4.531337   5.825245   4.516781   4.037120   4.153612
    27  H    1.100746   4.293740   5.029532   3.701773   5.243455
                   21         22         23         24         25
    21  H    0.000000
    22  H    1.799277   0.000000
    23  H    2.467793   3.084221   0.000000
    24  H    2.541534   2.467486   1.794457   0.000000
    25  H    4.336979   3.841708   2.487424   2.518585   0.000000
    26  H    3.852003   2.668481   3.097540   2.498684   1.794997
    27  H    5.805122   6.177747   4.245227   5.840582   4.549005
                   26         27
    26  H    0.000000
    27  H    5.442255   0.000000
 Symmetry turned off by external request.
 Stoichiometry    C9H13N3O2
 Framework group  C1[X(C9H13N3O2)]
 Deg. of freedom    75
 Full point group                 C1      NOp   1
 Rotational constants (GHZ):           1.6760424           0.4000647           0.3550824
 Standard basis: 6-31G(d) (6D, 7F)
   236 basis functions,   444 primitive gaussians,   236 cartesian basis functions
    52 alpha electrons       52 beta electrons
       nuclear repulsion energy       917.4203484917 Hartrees.
 NAtoms=   27 NActive=   27 NUniq=   27 SFac= 1.00D+00 NAtFMM=   60 NAOKFM=F Big=F
 Integral buffers will be    131072 words long.
 Raffenetti 1 integral format.
 Two-electron integral symmetry is turned off.
 One-electron integrals computed using PRISM.
 NBasis=   236 RedAO= T EigKep=  1.27D-03  NBF=   236
 NBsUse=   236 1.00D-06 EigRej= -1.00D+00 NBFU=   236
 ExpMin= 1.61D-01 ExpMax= 5.48D+03 ExpMxC= 8.25D+02 IAcc=3 IRadAn=         5 AccDes= 0.00D+00
 Harris functional with IExCor=  205 and IRadAn=       5 diagonalized for initial guess.
 HarFok:  IExCor=  205 AccDes= 0.00D+00 IRadAn=         5 IDoV= 1 UseB2=F ITyADJ=14
 ICtDFT=  3500011 ScaDFX=  1.000000  1.000000  1.000000  1.000000
 FoFCou: FMM=F IPFlag=           0 FMFlag=      100000 FMFlg1=           0
         NFxFlg=           0 DoJE=T BraDBF=F KetDBF=T FulRan=T
         wScrn=  0.000000 ICntrl=       500 IOpCl=  0 I1Cent=   200000004 NGrid=           0
         NMat0=    1 NMatS0=      1 NMatT0=    0 NMatD0=    1 NMtDS0=    0 NMtDT0=    0
 Symmetry not used in FoFCou.
 Keep R1 ints in memory in canonical form, NReq=397720213.
 Requested convergence on RMS density matrix=1.00D-08 within 128 cycles.
 Requested convergence on MAX density matrix=1.00D-06.
 Requested convergence on             energy=1.00D-06.
 No special actions if energy rises.
 SCF Done:  E(RHF) =  -661.280940023     A.U. after   16 cycles
            NFock= 16  Conv=0.80D-08     -V/T= 2.0037
 ExpMin= 1.61D-01 ExpMax= 5.48D+03 ExpMxC= 8.25D+02 IAcc=3 IRadAn=         5 AccDes= 0.00D+00
 HarFok:  IExCor=  205 AccDes= 0.00D+00 IRadAn=         5 IDoV=-2 UseB2=F ITyADJ=14
 ICtDFT= 12500011 ScaDFX=  1.000000  1.000000  1.000000  1.000000
 Range of M.O.s used for correlation:    15   236
 NBasis=   236 NAE=    52 NBE=    52 NFC=    14 NFV=     0
 NROrb=    222 NOA=    38 NOB=    38 NVA=   184 NVB=   184
 Fully direct method using O(ONN) memory.
 JobTyp=1 Pass  1:  I=  15 to  52 NPSUse=  4 ParTrn=T ParDer=T DoDerP=T.
 Spin components of T(2) and E(2):
     alpha-alpha T2 =       0.9197342564D-01 E2=     -0.2717605834D+00
     alpha-beta  T2 =       0.4997071227D+00 E2=     -0.1493774377D+01
     beta-beta   T2 =       0.9197342564D-01 E2=     -0.2717605834D+00
 ANorm=    0.1297556925D+01
 E2 =    -0.2037295544D+01 EUMP2 =    -0.66331823556637D+03
          IDoAtm=111111111111111111111111111
          Differentiating once with respect to electric field.
                with respect to dipole field.
          Differentiating once with respect to nuclear coordinates.
 Keep R1 ints in memory in canonical form, NReq=397723379.
          There are     1 degrees of freedom in the 1st order CPHF.  IDoFFX=0 NUNeed=     1.
 LinEq1:  Iter=  0 NonCon=     1 RMS=4.61D-03 Max=1.12D-01 NDo=     1
 AX will form     1 AO Fock derivatives at one time.
 LinEq1:  Iter=  1 NonCon=     1 RMS=1.56D-03 Max=2.96D-02 NDo=     1
 LinEq1:  Iter=  2 NonCon=     1 RMS=6.40D-04 Max=1.80D-02 NDo=     1
 LinEq1:  Iter=  3 NonCon=     1 RMS=2.94D-04 Max=9.09D-03 NDo=     1
 LinEq1:  Iter=  4 NonCon=     1 RMS=9.03D-05 Max=2.09D-03 NDo=     1
 LinEq1:  Iter=  5 NonCon=     1 RMS=3.75D-05 Max=1.88D-03 NDo=     1
 LinEq1:  Iter=  6 NonCon=     1 RMS=1.54D-05 Max=5.85D-04 NDo=     1
 LinEq1:  Iter=  7 NonCon=     1 RMS=5.93D-06 Max=1.02D-04 NDo=     1
 LinEq1:  Iter=  8 NonCon=     1 RMS=2.37D-06 Max=6.01D-05 NDo=     1
 LinEq1:  Iter=  9 NonCon=     1 RMS=8.84D-07 Max=2.53D-05 NDo=     1
 LinEq1:  Iter= 10 NonCon=     1 RMS=4.34D-07 Max=1.50D-05 NDo=     1
 LinEq1:  Iter= 11 NonCon=     1 RMS=1.54D-07 Max=5.73D-06 NDo=     1
 LinEq1:  Iter= 12 NonCon=     1 RMS=5.41D-08 Max=7.61D-07 NDo=     1
 LinEq1:  Iter= 13 NonCon=     1 RMS=1.71D-08 Max=3.40D-07 NDo=     1
 LinEq1:  Iter= 14 NonCon=     1 RMS=5.43D-09 Max=1.44D-07 NDo=     1
 LinEq1:  Iter= 15 NonCon=     1 RMS=2.01D-09 Max=4.81D-08 NDo=     1
 LinEq1:  Iter= 16 NonCon=     1 RMS=7.59D-10 Max=1.29D-08 NDo=     1
 LinEq1:  Iter= 17 NonCon=     1 RMS=2.54D-10 Max=3.72D-09 NDo=     1
 LinEq1:  Iter= 18 NonCon=     1 RMS=8.77D-11 Max=1.05D-09 NDo=     1
 LinEq1:  Iter= 19 NonCon=     0 RMS=2.93D-11 Max=3.82D-10 NDo=     1
 Linear equations converged to 1.000D-10 1.000D-09 after    19 iterations.
 End of Minotr F.D. properties file   721 does not exist.
 End of Minotr F.D. properties file   722 does not exist.
 End of Minotr F.D. properties file   788 does not exist.

 **********************************************************************

            Population analysis using the SCF Density.

 **********************************************************************

 Alpha  occ. eigenvalues --  -20.59838 -20.59400 -15.85287 -15.63335 -15.56847
 Alpha  occ. eigenvalues --  -11.35868 -11.30474 -11.30089 -11.30081 -11.27693
 Alpha  occ. eigenvalues --  -11.24629 -11.23880 -11.23403 -11.22854  -1.58489
 Alpha  occ. eigenvalues --   -1.37993  -1.28584  -1.22732  -1.13275  -1.08368
 Alpha  occ. eigenvalues --   -1.01812  -1.00669  -0.93589  -0.88965  -0.84935
 Alpha  occ. eigenvalues --   -0.81541  -0.78027  -0.76959  -0.74320  -0.71117
 Alpha  occ. eigenvalues --   -0.70334  -0.69782  -0.67403  -0.64367  -0.63265
 Alpha  occ. eigenvalues --   -0.61643  -0.60374  -0.57427  -0.56473  -0.54887
 Alpha  occ. eigenvalues --   -0.53595  -0.50728  -0.49362  -0.48483  -0.47787
 Alpha  occ. eigenvalues --   -0.47685  -0.46148  -0.45695  -0.44014  -0.42098
 Alpha  occ. eigenvalues --   -0.39962  -0.33779
 Alpha virt. eigenvalues --    0.07357   0.11781   0.18170   0.21388   0.23405
 Alpha virt. eigenvalues --    0.24246   0.26287   0.27794   0.28558   0.28871
 Alpha virt. eigenvalues --    0.29923   0.31080   0.31850   0.32275   0.33340
 Alpha virt. eigenvalues --    0.33783   0.34223   0.35467   0.37580   0.38580
 Alpha virt. eigenvalues --    0.40626   0.41744   0.44443   0.45265   0.45660
 Alpha virt. eigenvalues --    0.46065   0.49711   0.53178   0.57586   0.58989
 Alpha virt. eigenvalues --    0.63296   0.69135   0.69241   0.72200   0.74021
 Alpha virt. eigenvalues --    0.74927   0.75690   0.75855   0.77773   0.79275
 Alpha virt. eigenvalues --    0.80533   0.83633   0.85017   0.85355   0.87982
 Alpha virt. eigenvalues --    0.89074   0.90169   0.90790   0.91849   0.93899
 Alpha virt. eigenvalues --    0.95181   0.97201   0.98851   1.00376   1.01954
 Alpha virt. eigenvalues --    1.02752   1.05092   1.06478   1.07000   1.08674
 Alpha virt. eigenvalues --    1.09571   1.10467   1.11331   1.11953   1.13255
 Alpha virt. eigenvalues --    1.13830   1.14177   1.15407   1.16357   1.17263
 Alpha virt. eigenvalues --    1.17974   1.19986   1.21225   1.22333   1.22983
 Alpha virt. eigenvalues --    1.23712   1.24279   1.25653   1.27064   1.27513
 Alpha virt. eigenvalues --    1.29414   1.31230   1.33017   1.36014   1.39698
 Alpha virt. eigenvalues --    1.42852   1.46169   1.47255   1.49320   1.52665
 Alpha virt. eigenvalues --    1.54648   1.55399   1.60470   1.61458   1.65975
 Alpha virt. eigenvalues --    1.68636   1.70300   1.72802   1.73435   1.77023
 Alpha virt. eigenvalues --    1.77723   1.79963   1.84354   1.89124   1.92607
 Alpha virt. eigenvalues --    1.93690   1.96107   1.97508   1.99018   2.00832
 Alpha virt. eigenvalues --    2.02963   2.03803   2.05967   2.08863   2.11899
 Alpha virt. eigenvalues --    2.12894   2.13742   2.17740   2.18865   2.19406
 Alpha virt. eigenvalues --    2.20752   2.22063   2.24098   2.25110   2.26379
 Alpha virt. eigenvalues --    2.29189   2.32265   2.33449   2.35559   2.35965
 Alpha virt. eigenvalues --    2.38559   2.39840   2.41603   2.43199   2.46328
 Alpha virt. eigenvalues --    2.48660   2.50378   2.50769   2.56770   2.57192
 Alpha virt. eigenvalues --    2.60757   2.62853   2.65960   2.68537   2.68813
 Alpha virt. eigenvalues --    2.69705   2.70169   2.74717   2.77168   2.80923
 Alpha virt. eigenvalues --    2.84684   2.86743   2.89996   2.91383   2.95240
 Alpha virt. eigenvalues --    2.97604   2.98435   3.02212   3.03563   3.05681
 Alpha virt. eigenvalues --    3.07017   3.12707   3.19210   3.22692   3.27195
 Alpha virt. eigenvalues --    3.30689   3.33768   3.37229   3.43362   3.59839
 Alpha virt. eigenvalues --    4.09968   4.23246   4.32053   4.36355   4.43131
 Alpha virt. eigenvalues --    4.52641   4.59652   4.60152   4.70838   4.77582
 Alpha virt. eigenvalues --    4.96374   4.99234   5.02806   5.09938
          Condensed to atoms (all electrons):
               1          2          3          4          5          6
     1  O    8.299699   0.313168  -0.089659  -0.079211   0.003505  -0.000013
     2  N    0.313168   5.682685   0.309027   0.265372  -0.046112   0.000854
     3  O   -0.089659   0.309027   8.330827  -0.087423   0.008006   0.000463
     4  C   -0.079211   0.265372  -0.087423   5.244894   0.567356  -0.048011
     5  C    0.003505  -0.046112   0.008006   0.567356   4.670921   0.307605
     6  N   -0.000013   0.000854   0.000463  -0.048011   0.307605   7.189834
     7  C    0.000003  -0.000093   0.000002   0.004146  -0.029299   0.198410
     8  H   -0.000000   0.000002  -0.000000  -0.000180   0.002296  -0.049978
     9  C   -0.000000  -0.000003   0.000000   0.000472   0.001665  -0.056179
    10  C   -0.000000   0.000000  -0.000000  -0.000019  -0.000063   0.003334
    11  C   -0.000000  -0.000000  -0.000000  -0.000014   0.000015  -0.000154
    12  C   -0.000000   0.000002  -0.000000  -0.000100  -0.000127   0.003599
    13  C   -0.000019  -0.000025  -0.000003  -0.010501   0.000465  -0.044355
    14  H   -0.000003  -0.000055   0.000000   0.002968   0.004818  -0.005572
    15  N    0.000178   0.001638  -0.000013  -0.061319  -0.003708   0.001872
    16  C    0.003454  -0.026825   0.001943   0.318361  -0.041211  -0.001269
    17  H    0.000125  -0.004100   0.011945  -0.027161   0.377309  -0.033896
    18  H    0.000000  -0.000035   0.000008   0.000945  -0.024356   0.328361
    19  H    0.000000   0.000000   0.000000  -0.000766   0.000657   0.000641
    20  H    0.000000  -0.000000   0.000000  -0.000026   0.000029  -0.001710
    21  H   -0.000000  -0.000000   0.000000   0.000000   0.000001  -0.000059
    22  H   -0.000000   0.000000  -0.000000  -0.000000  -0.000002  -0.000098
    23  H    0.000000  -0.000000   0.000000   0.000025  -0.000000  -0.000024
    24  H    0.000000   0.000000   0.000000   0.000000  -0.000000   0.000004
    25  H    0.000000  -0.000000   0.000000   0.000019  -0.000001  -0.000071
    26  H    0.000000  -0.000000   0.000000   0.000006  -0.000001  -0.000067
    27  H    0.005324  -0.000246   0.000002  -0.066125   0.002141   0.000044
               7          8          9         10         11         12
     1  O    0.000003  -0.000000  -0.000000  -0.000000  -0.000000  -0.000000
     2  N   -0.000093   0.000002  -0.000003   0.000000  -0.000000   0.000002
     3  O    0.000002  -0.000000   0.000000  -0.000000  -0.000000  -0.000000
     4  C    0.004146  -0.000180   0.000472  -0.000019  -0.000014  -0.000100
     5  C   -0.029299   0.002296   0.001665  -0.000063   0.000015  -0.000127
     6  N    0.198410  -0.049978  -0.056179   0.003334  -0.000154   0.003599
     7  C    5.003501   0.416742   0.340749  -0.049329  -0.007709  -0.064136
     8  H    0.416742   0.547428  -0.060569   0.001471  -0.000330  -0.002843
     9  C    0.340749  -0.060569   5.181248   0.317925  -0.053051  -0.006216
    10  C   -0.049329   0.001471   0.317925   5.126762   0.332752  -0.060151
    11  C   -0.007709  -0.000330  -0.053051   0.332752   5.123958   0.330655
    12  C   -0.064136  -0.002843  -0.006216  -0.060151   0.330655   5.136987
    13  C    0.332283  -0.040374  -0.050410  -0.001728  -0.047893   0.368228
    14  H   -0.040247  -0.000941   0.003865  -0.000391   0.003955  -0.040735
    15  N   -0.058220   0.004047  -0.012879   0.001460  -0.007735  -0.074160
    16  C   -0.002334   0.000022  -0.000892  -0.000025   0.000003   0.002508
    17  H    0.001427  -0.000019  -0.000065   0.000001   0.000000   0.000001
    18  H   -0.028455  -0.002671   0.000841  -0.000121   0.000011  -0.000136
    19  H   -0.034997   0.004098   0.385964  -0.032567  -0.002264   0.000629
    20  H   -0.041649  -0.001852   0.397241  -0.037369   0.004139  -0.000362
    21  H    0.004043  -0.000080  -0.035835   0.400145  -0.035842   0.004211
    22  H   -0.004219   0.003510  -0.045688   0.395973  -0.045621  -0.001229
    23  H    0.000428   0.000033  -0.002004  -0.040092   0.396699  -0.036628
    24  H   -0.000141  -0.000098   0.004395  -0.038481   0.400299  -0.037869
    25  H    0.004981  -0.000005  -0.000369   0.004097  -0.033923   0.395436
    26  H   -0.004453   0.001604   0.001041  -0.002403  -0.042316   0.394684
    27  H   -0.000402   0.000009  -0.000059   0.000005   0.000005  -0.000019
              13         14         15         16         17         18
     1  O   -0.000019  -0.000003   0.000178   0.003454   0.000125   0.000000
     2  N   -0.000025  -0.000055   0.001638  -0.026825  -0.004100  -0.000035
     3  O   -0.000003   0.000000  -0.000013   0.001943   0.011945   0.000008
     4  C   -0.010501   0.002968  -0.061319   0.318361  -0.027161   0.000945
     5  C    0.000465   0.004818  -0.003708  -0.041211   0.377309  -0.024356
     6  N   -0.044355  -0.005572   0.001872  -0.001269  -0.033896   0.328361
     7  C    0.332283  -0.040247  -0.058220  -0.002334   0.001427  -0.028455
     8  H   -0.040374  -0.000941   0.004047   0.000022  -0.000019  -0.002671
     9  C   -0.050410   0.003865  -0.012879  -0.000892  -0.000065   0.000841
    10  C   -0.001728  -0.000391   0.001460  -0.000025   0.000001  -0.000121
    11  C   -0.047893   0.003955  -0.007735   0.000003   0.000000   0.000011
    12  C    0.368228  -0.040735  -0.074160   0.002508   0.000001  -0.000136
    13  C    5.024185   0.402310   0.239860  -0.069749  -0.000042   0.003681
    14  H    0.402310   0.519297  -0.035824  -0.004838   0.000064   0.000009
    15  N    0.239860  -0.035824   6.936277   0.587571  -0.000059  -0.000119
    16  C   -0.069749  -0.004838   0.587571   4.699842   0.001652  -0.000213
    17  H   -0.000042   0.000064  -0.000059   0.001652   0.386113  -0.001870
    18  H    0.003681   0.000009  -0.000119  -0.000213  -0.001870   0.324420
    19  H   -0.006274   0.000065   0.006958   0.002532   0.000011  -0.000127
    20  H    0.003863  -0.000049   0.000079  -0.000031  -0.000001   0.002869
    21  H   -0.000377   0.000009  -0.000029   0.000002  -0.000000  -0.000000
    22  H    0.000319  -0.000044   0.000002  -0.000001   0.000000   0.000002
    23  H   -0.005860   0.000008   0.006763   0.000062   0.000000   0.000000
    24  H    0.004142  -0.000058   0.000044   0.000005   0.000000  -0.000000
    25  H   -0.034470  -0.002657   0.000765  -0.000061  -0.000000   0.000002
    26  H   -0.044812  -0.000906   0.004187  -0.000055   0.000000  -0.000001
    27  H    0.004879  -0.000174  -0.039787   0.402362  -0.000059   0.000002
              19         20         21         22         23         24
     1  O    0.000000   0.000000  -0.000000  -0.000000   0.000000   0.000000
     2  N    0.000000  -0.000000  -0.000000   0.000000  -0.000000   0.000000
     3  O    0.000000   0.000000   0.000000  -0.000000   0.000000   0.000000
     4  C   -0.000766  -0.000026   0.000000  -0.000000   0.000025   0.000000
     5  C    0.000657   0.000029   0.000001  -0.000002  -0.000000  -0.000000
     6  N    0.000641  -0.001710  -0.000059  -0.000098  -0.000024   0.000004
     7  C   -0.034997  -0.041649   0.004043  -0.004219   0.000428  -0.000141
     8  H    0.004098  -0.001852  -0.000080   0.003510   0.000033  -0.000098
     9  C    0.385964   0.397241  -0.035835  -0.045688  -0.002004   0.004395
    10  C   -0.032567  -0.037369   0.400145   0.395973  -0.040092  -0.038481
    11  C   -0.002264   0.004139  -0.035842  -0.045621   0.396699   0.400299
    12  C    0.000629  -0.000362   0.004211  -0.001229  -0.036628  -0.037869
    13  C   -0.006274   0.003863  -0.000377   0.000319  -0.005860   0.004142
    14  H    0.000065  -0.000049   0.000009  -0.000044   0.000008  -0.000058
    15  N    0.006958   0.000079  -0.000029   0.000002   0.006763   0.000044
    16  C    0.002532  -0.000031   0.000002  -0.000001   0.000062   0.000005
    17  H    0.000011  -0.000001  -0.000000   0.000000   0.000000   0.000000
    18  H   -0.000127   0.002869  -0.000000   0.000002   0.000000  -0.000000
    19  H    0.506822  -0.024022  -0.002593   0.003756   0.001641  -0.000070
    20  H   -0.024022   0.550142  -0.002615  -0.002966  -0.000049  -0.000090
    21  H   -0.002593  -0.002615   0.526075  -0.024693  -0.002813  -0.002060
    22  H    0.003756  -0.002966  -0.024693   0.568836   0.004061  -0.003596
    23  H    0.001641  -0.000049  -0.002813   0.004061   0.509633  -0.024990
    24  H   -0.000070  -0.000090  -0.002060  -0.003596  -0.024990   0.541023
    25  H   -0.000027   0.000011  -0.000086  -0.000082  -0.002092  -0.002380
    26  H    0.000023  -0.000035  -0.000074   0.002465   0.003821  -0.002767
    27  H    0.000076  -0.000000  -0.000000   0.000000  -0.000022  -0.000000
              25         26         27
     1  O    0.000000   0.000000   0.005324
     2  N   -0.000000  -0.000000  -0.000246
     3  O    0.000000   0.000000   0.000002
     4  C    0.000019   0.000006  -0.066125
     5  C   -0.000001  -0.000001   0.002141
     6  N   -0.000071  -0.000067   0.000044
     7  C    0.004981  -0.004453  -0.000402
     8  H   -0.000005   0.001604   0.000009
     9  C   -0.000369   0.001041  -0.000059
    10  C    0.004097  -0.002403   0.000005
    11  C   -0.033923  -0.042316   0.000005
    12  C    0.395436   0.394684  -0.000019
    13  C   -0.034470  -0.044812   0.004879
    14  H   -0.002657  -0.000906  -0.000174
    15  N    0.000765   0.004187  -0.039787
    16  C   -0.000061  -0.000055   0.402362
    17  H   -0.000000   0.000000  -0.000059
    18  H    0.000002  -0.000001   0.000002
    19  H   -0.000027   0.000023   0.000076
    20  H    0.000011  -0.000035  -0.000000
    21  H   -0.000086  -0.000074  -0.000000
    22  H   -0.000082   0.002465   0.000000
    23  H   -0.002092   0.003821  -0.000022
    24  H   -0.002380  -0.002767  -0.000000
    25  H    0.510375  -0.023099  -0.000010
    26  H   -0.023099   0.560953   0.000001
    27  H   -0.000010   0.000001   0.452270
 Mulliken charges:
               1
     1  O   -0.456553
     2  N    0.504745
     3  O   -0.485125
     4  C   -0.023707
     5  C    0.198089
     6  N   -0.793566
     7  C    0.058968
     8  H    0.178678
     9  C   -0.311186
    10  C   -0.321186
    11  C   -0.315638
    12  C   -0.312228
    13  C   -0.027324
    14  H    0.195126
    15  N   -0.497849
    16  C    0.127185
    17  H    0.288625
    18  H    0.396952
    19  H    0.189834
    20  H    0.154454
    21  H    0.172668
    22  H    0.149314
    23  H    0.191400
    24  H    0.162686
    25  H    0.183649
    26  H    0.152204
    27  H    0.239784
 Sum of Mulliken charges =  -0.00000
 Mulliken charges with hydrogens summed into heavy atoms:
               1
     1  O   -0.456553
     2  N    0.504745
     3  O   -0.485125
     4  C   -0.023707
     5  C    0.486714
     6  N   -0.396614
     7  C    0.237646
     9  C    0.033102
    10  C    0.000796
    11  C    0.038448
    12  C    0.023625
    13  C    0.167801
    15  N   -0.497849
    16  C    0.366969
 Electronic spatial extent (au):  <R**2>=           3126.4952
 Charge=             -0.0000 electrons
 Dipole moment (field-independent basis, Debye):
    X=              5.3583    Y=              4.5004    Z=              0.5023  Tot=              7.0155
 Quadrupole moment (field-independent basis, Debye-Ang):
   XX=           -105.4549   YY=            -80.2499   ZZ=            -82.2604
   XY=             -1.8645   XZ=              0.9172   YZ=              0.0417
 Traceless Quadrupole moment (field-independent basis, Debye-Ang):
   XX=            -16.1332   YY=              9.0718   ZZ=              7.0614
   XY=             -1.8645   XZ=              0.9172   YZ=              0.0417
 Octapole moment (field-independent basis, Debye-Ang**2):
  XXX=            101.4242  YYY=             36.7326  ZZZ=             -5.2227  XYY=             -1.4001
  XXY=             11.7269  XXZ=             -0.4310  XZZ=             -8.2938  YZZ=             -2.8975
  YYZ=              0.7689  XYZ=             -1.4235
 Hexadecapole moment (field-independent basis, Debye-Ang**3):
 XXXX=          -3561.4923 YYYY=           -619.6761 ZZZZ=           -298.9536 XXXY=            -41.1872
 XXXZ=             26.2610 YYYX=            -20.7441 YYYZ=             11.3252 ZZZX=             21.0901
 ZZZY=              8.8386 XXYY=           -657.0485 XXZZ=           -543.6810 YYZZ=           -164.5199
 XXYZ=              2.3183 YYXZ=             10.1105 ZZXY=              2.3881
 N-N= 9.174203484917D+02 E-N=-3.380850208004D+03  KE= 6.588544959271D+02
 Calling FoFJK, ICntrl=  10002127 FMM=F ISym2X=0 I1Cent= 0 IOpClX= 0 NMat=1 NMatS=1 NMatT=0.
 -------------------------------------------------------------------
 Center     Atomic                   Forces (Hartrees/Bohr)
 Number     Number              X              Y              Z
 -------------------------------------------------------------------
      1        8           0.002382005   -0.019236983   -0.003130661
      2        7           0.039375437    0.013817589   -0.001754972
      3        8          -0.005233166    0.015786096    0.003632144
      4        6          -0.003140242    0.008643985    0.009450270
      5        6           0.003133113   -0.016618918   -0.005198770
      6        7           0.014775567   -0.010145945   -0.006416714
      7        6          -0.004655749    0.005228916    0.002880182
      8        1          -0.010089777   -0.001724851   -0.007661962
      9        6          -0.003949653    0.000171909   -0.002124999
     10        6           0.002838222   -0.000877922    0.000983807
     11        6          -0.001049114   -0.004610665   -0.002413494
     12        6           0.000820907   -0.008759343   -0.002867699
     13        6           0.008908352   -0.001967142    0.004696869
     14        1           0.000890819    0.004466043   -0.009852520
     15        7           0.000096441    0.000996651    0.001346015
     16        6          -0.021062311    0.007460291    0.003622815
     17        1           0.007146610   -0.005973954   -0.006302699
     18        1          -0.017592143   -0.001697345    0.006203683
     19        1           0.003101603    0.005886745    0.007698017
     20        1          -0.003252567   -0.007340426    0.002602646
     21        1          -0.004366383    0.002408282    0.009610977
     22        1          -0.003981499   -0.003978831   -0.007407108
     23        1           0.003979618    0.006134222    0.009302036
     24        1          -0.009377091    0.002622146   -0.002140407
     25        1          -0.000771952    0.010595897   -0.002414727
     26        1          -0.004777454   -0.004806633   -0.004373650
     27        1           0.005850406    0.003520187    0.002030919
 -------------------------------------------------------------------
 Cartesian Forces:  Max     0.039375437 RMS     0.008389976

 GradGradGradGradGradGradGradGradGradGradGradGradGradGradGradGradGradGrad
 Berny optimization.
 FormGI is forming the generalized inverse of G from B-inverse, IUseBI=4.
 Internal  Forces:  Max     0.037836580 RMS     0.006889305
 Search for a local minimum.
 Step number   1 out of a maximum of   20
 All quantities printed in internal units (Hartrees-Bohrs-Radians)
 Mixed Optimization -- RFO/linear search
 Second derivative matrix not updated -- first step.
 ITU=  0
     Eigenvalues ---    0.00231   0.00770   0.01044   0.01145   0.01197
     Eigenvalues ---    0.01482   0.01531   0.01602   0.01971   0.02017
     Eigenvalues ---    0.02087   0.02689   0.03663   0.04506   0.04694
     Eigenvalues ---    0.04838   0.05081   0.05138   0.05304   0.05893
     Eigenvalues ---    0.06265   0.07216   0.07700   0.07725   0.07872
     Eigenvalues ---    0.07993   0.08050   0.08056   0.10459   0.11738
     Eigenvalues ---    0.12268   0.13480   0.15249   0.15729   0.15991
     Eigenvalues ---    0.16000   0.20086   0.21951   0.23154   0.24981
     Eigenvalues ---    0.25000   0.25000   0.25370   0.26202   0.26651
     Eigenvalues ---    0.27979   0.28084   0.28472   0.31460   0.31649
     Eigenvalues ---    0.32046   0.32237   0.32290   0.32380   0.32389
     Eigenvalues ---    0.32405   0.32516   0.32526   0.32581   0.33332
     Eigenvalues ---    0.33391   0.33600   0.35366   0.43882   0.44234
     Eigenvalues ---    0.49166   0.67003   0.90430   0.911651000.00000
     Eigenvalues --- 1000.000001000.000001000.000001000.000001000.00000
     Eigenvalues --- 1000.000001000.000001000.000001000.000001000.00000
     Eigenvalues --- 1000.000001000.000001000.000001000.000001000.00000
     Eigenvalues --- 1000.000001000.000001000.000001000.000001000.00000
     Eigenvalues --- 1000.000001000.000001000.000001000.000001000.00000
     Eigenvalues --- 1000.000001000.000001000.000001000.000001000.00000
     Eigenvalues --- 1000.000001000.000001000.000001000.000001000.00000
     Eigenvalues --- 1000.000001000.000001000.000001000.000001000.00000
     Eigenvalues --- 1000.000001000.000001000.000001000.000001000.00000
     Eigenvalues --- 1000.000001000.000001000.000001000.000001000.00000
     Eigenvalues --- 1000.000001000.000001000.000001000.000001000.00000
     Eigenvalues --- 1000.000001000.000001000.000001000.000001000.00000
     Eigenvalues --- 1000.000001000.000001000.000001000.000001000.00000
     Eigenvalues --- 1000.000001000.000001000.000001000.000001000.00000
     Eigenvalues --- 1000.000001000.000001000.000001000.000001000.00000
     Eigenvalues --- 1000.000001000.000001000.000001000.000001000.00000
     Eigenvalues --- 1000.000001000.000001000.000001000.000001000.00000
     Eigenvalues --- 1000.000001000.000001000.000001000.000001000.00000
     Eigenvalues --- 1000.00000
 RFO step:  Lambda=-1.98444550D-02 EMin= 2.30787536D-03
 Linear search not attempted -- first point.
 Iteration  1 RMS(Cart)=  0.04764404 RMS(Int)=  0.00114816
 Iteration  2 RMS(Cart)=  0.00124601 RMS(Int)=  0.00025252
 Iteration  3 RMS(Cart)=  0.00000120 RMS(Int)=  0.00025252
 Iteration  4 RMS(Cart)=  0.00000000 RMS(Int)=  0.00025252
 Iteration  1 RMS(Cart)=  0.00003295 RMS(Int)=  0.00002492
 Iteration  2 RMS(Cart)=  0.00001591 RMS(Int)=  0.00002772
 Iteration  3 RMS(Cart)=  0.00000822 RMS(Int)=  0.00003072
 Iteration  4 RMS(Cart)=  0.00000473 RMS(Int)=  0.00003255
 Iteration  5 RMS(Cart)=  0.00000311 RMS(Int)=  0.00003364
 Iteration  6 RMS(Cart)=  0.00000232 RMS(Int)=  0.00003433
 Iteration  7 RMS(Cart)=  0.00000186 RMS(Int)=  0.00003480
 Iteration  8 RMS(Cart)=  0.00000155 RMS(Int)=  0.00003516
 Iteration  9 RMS(Cart)=  0.00000132 RMS(Int)=  0.00003543
 Iteration 10 RMS(Cart)=  0.00000112 RMS(Int)=  0.00003566
 Iteration 11 RMS(Cart)=  0.00000096 RMS(Int)=  0.00003585
 Variable       Old X    -DE/DX   Delta X   Delta X   Delta X     New X
                                 (Linear)    (Quad)   (Total)
    R1        2.32401   0.01793   0.00000   0.01925   0.01925   2.34326
    R2        2.32735   0.01583   0.00000   0.01713   0.01713   2.34449
    R3        2.88765  -0.03784   0.00000   0.00000   0.00000   2.88765
    R4        2.64499  -0.03475   0.00000  -0.07575  -0.07549   2.56949
    R5        2.80956  -0.02182   0.00000  -0.06326  -0.06302   2.74655
    R6        2.59068  -0.02447   0.00000  -0.04782  -0.04772   2.54297
    R7        2.08371  -0.01039   0.00000  -0.02936  -0.02936   2.05435
    R8        2.82449  -0.01942   0.00000  -0.05447  -0.05458   2.76991
    R9        1.93296  -0.00664   0.00000  -0.01448  -0.01448   1.91849
   R10        2.11843  -0.01189   0.00000  -0.03555  -0.03555   2.08288
   R11        2.92741  -0.01299   0.00000  -0.04490  -0.04492   2.88249
   R12        2.90265  -0.00444   0.00000  -0.00872  -0.00875   2.89390
   R13        2.91138  -0.00463   0.00000  -0.01447  -0.01449   2.89689
   R14        2.09910  -0.00996   0.00000  -0.02887  -0.02887   2.07024
   R15        2.09891  -0.00802   0.00000  -0.02324  -0.02324   2.07567
   R16        2.90431  -0.00183   0.00000  -0.00727  -0.00732   2.89698
   R17        2.10139  -0.01057   0.00000  -0.03076  -0.03076   2.07063
   R18        2.10317  -0.00901   0.00000  -0.02629  -0.02629   2.07688
   R19        2.91769  -0.00908   0.00000  -0.02910  -0.02907   2.88862
   R20        2.10412  -0.01168   0.00000  -0.03412  -0.03412   2.07000
   R21        2.10109  -0.00995   0.00000  -0.02892  -0.02892   2.07217
   R22        2.93532  -0.01057   0.00000  -0.03695  -0.03693   2.89839
   R23        2.10155  -0.01074   0.00000  -0.03124  -0.03124   2.07030
   R24        2.09794  -0.00786   0.00000  -0.02273  -0.02273   2.07521
   R25        2.10759  -0.00916   0.00000  -0.02691  -0.02691   2.08068
   R26        2.76803  -0.00524   0.00000  -0.01102  -0.01136   2.75667
   R27        2.44272  -0.00574   0.00000  -0.00785  -0.00789   2.43483
   R28        2.08011  -0.00622   0.00000  -0.01749  -0.01749   2.06262
    A1        2.15858   0.01095   0.00000   0.04075   0.04054   2.19911
    A2        2.05372  -0.00762   0.00000  -0.02811  -0.02832   2.02541
    A3        2.07078  -0.00332   0.00000  -0.01214  -0.01235   2.05843
    A4        2.03260  -0.00746   0.00000  -0.02534  -0.02577   2.00683
    A5        2.03384  -0.00307   0.00000  -0.00901  -0.00948   2.02437
    A6        2.21596   0.01048   0.00000   0.03291   0.03313   2.24909
    A7        2.20073   0.00611   0.00000   0.01939   0.01973   2.22045
    A8        2.06408  -0.00329   0.00000  -0.01071  -0.01097   2.05311
    A9        2.01741  -0.00278   0.00000  -0.00778  -0.00806   2.00935
   A10        2.25352  -0.00553   0.00000  -0.01908  -0.01915   2.23437
   A11        2.11558  -0.01251   0.00000  -0.07320  -0.07361   2.04198
   A12        1.87496   0.01823   0.00000   0.10036   0.10052   1.97548
   A13        1.83803  -0.00160   0.00000  -0.01882  -0.01861   1.81942
   A14        2.00677  -0.00112   0.00000  -0.01306  -0.01307   1.99370
   A15        1.96717   0.00104   0.00000   0.00169   0.00116   1.96833
   A16        1.85192   0.00268   0.00000   0.02490   0.02471   1.87663
   A17        1.84915   0.00082   0.00000   0.01943   0.01925   1.86839
   A18        1.93681  -0.00150   0.00000  -0.00969  -0.00935   1.92746
   A19        1.91014   0.00014   0.00000  -0.00516  -0.00532   1.90483
   A20        1.92260  -0.00073   0.00000  -0.01358  -0.01354   1.90906
   A21        1.92282  -0.00165   0.00000  -0.00715  -0.00714   1.91568
   A22        1.91926  -0.00040   0.00000   0.00632   0.00628   1.92554
   A23        1.90446   0.00305   0.00000   0.02516   0.02517   1.92963
   A24        1.88436  -0.00038   0.00000  -0.00515  -0.00542   1.87893
   A25        1.94043  -0.00087   0.00000   0.00622   0.00610   1.94653
   A26        1.91895  -0.00070   0.00000  -0.00704  -0.00706   1.91189
   A27        1.90499   0.00031   0.00000  -0.00320  -0.00326   1.90172
   A28        1.91613   0.00079   0.00000   0.00748   0.00753   1.92366
   A29        1.89849   0.00171   0.00000   0.01143   0.01146   1.90995
   A30        1.88381  -0.00122   0.00000  -0.01542  -0.01551   1.86830
   A31        1.94468   0.00064   0.00000   0.00520   0.00534   1.95002
   A32        1.90236   0.00062   0.00000   0.00616   0.00610   1.90847
   A33        1.91747   0.00038   0.00000   0.00553   0.00550   1.92297
   A34        1.90654  -0.00113   0.00000  -0.01472  -0.01477   1.89177
   A35        1.91537  -0.00048   0.00000   0.00025   0.00016   1.91553
   A36        1.87604  -0.00007   0.00000  -0.00281  -0.00284   1.87320
   A37        1.94790  -0.00297   0.00000  -0.01879  -0.01882   1.92908
   A38        1.90595   0.00254   0.00000   0.01732   0.01716   1.92310
   A39        1.91068   0.00139   0.00000   0.01390   0.01387   1.92456
   A40        1.90612   0.00019   0.00000  -0.00328  -0.00311   1.90301
   A41        1.91136  -0.00021   0.00000  -0.00478  -0.00471   1.90664
   A42        1.88058  -0.00087   0.00000  -0.00386  -0.00406   1.87653
   A43        1.84658   0.00455   0.00000   0.02449   0.02452   1.87110
   A44        1.93876  -0.00433   0.00000  -0.03243  -0.03288   1.90588
   A45        1.98287   0.00083   0.00000   0.01165   0.01186   1.99473
   A46        1.88060   0.00223   0.00000   0.03180   0.03213   1.91273
   A47        1.89200  -0.00388   0.00000  -0.02942  -0.02947   1.86253
   A48        1.91843   0.00081   0.00000  -0.00363  -0.00348   1.91494
   A49        2.08376  -0.00622   0.00000  -0.01429  -0.01465   2.06911
   A50        2.25154  -0.00500   0.00000  -0.02128  -0.02134   2.23020
   A51        1.97880   0.00562   0.00000   0.02809   0.02753   2.00632
   A52        2.05282  -0.00061   0.00000  -0.00649  -0.00704   2.04578
    D1       -3.03688  -0.00074   0.00000  -0.03575  -0.03501  -3.07189
    D2        0.14413   0.00038   0.00000   0.00000  -0.00000   0.14413
    D3        0.11950  -0.00176   0.00000  -0.07206  -0.07169   0.04781
    D4       -2.98267  -0.00064   0.00000  -0.03631  -0.03668  -3.01935
    D5        3.07507   0.00057   0.00000   0.01748   0.01750   3.09257
    D6       -0.01713  -0.00044   0.00000  -0.00552  -0.00557  -0.02270
    D7       -0.11066  -0.00110   0.00000  -0.02385  -0.02430  -0.13497
    D8        3.08032  -0.00211   0.00000  -0.04684  -0.04738   3.03294
    D9       -2.70008  -0.00199   0.00000  -0.04926  -0.04991  -2.75000
   D10        0.43423   0.00044   0.00000   0.00434   0.00403   0.43826
   D11        0.48568  -0.00022   0.00000  -0.00755  -0.00741   0.47827
   D12       -2.66319   0.00220   0.00000   0.04605   0.04654  -2.61665
   D13       -0.12978  -0.00012   0.00000   0.02598   0.02623  -0.10355
   D14        2.67589   0.00381   0.00000   0.07667   0.07559   2.75148
   D15        2.96358   0.00085   0.00000   0.04834   0.04871   3.01229
   D16       -0.51394   0.00477   0.00000   0.09903   0.09807  -0.41586
   D17       -2.48224  -0.00072   0.00000  -0.02097  -0.02054  -2.50278
   D18        1.76912  -0.00236   0.00000  -0.03216  -0.03178   1.73734
   D19       -0.47424  -0.00017   0.00000  -0.00805  -0.00802  -0.48226
   D20        0.95932  -0.00008   0.00000  -0.04241  -0.04297   0.91635
   D21       -1.07251  -0.00172   0.00000  -0.05359  -0.05420  -1.12672
   D22        2.96732   0.00047   0.00000  -0.02949  -0.03045   2.93686
   D23        2.94447   0.00234   0.00000   0.02660   0.02650   2.97097
   D24       -1.22655   0.00147   0.00000   0.02254   0.02245  -1.20410
   D25        0.85046  -0.00049   0.00000   0.00327   0.00326   0.85372
   D26        0.92059   0.00316   0.00000   0.04054   0.04054   0.96113
   D27        3.03275   0.00229   0.00000   0.03648   0.03650   3.06925
   D28       -1.17342   0.00032   0.00000   0.01721   0.01730  -1.15612
   D29       -1.08031   0.00144   0.00000   0.00862   0.00859  -1.07171
   D30        1.03186   0.00057   0.00000   0.00455   0.00455   1.03640
   D31        3.10887  -0.00139   0.00000  -0.01472  -0.01464   3.09422
   D32       -2.90032  -0.00103   0.00000  -0.01355  -0.01330  -2.91363
   D33       -0.86425   0.00202   0.00000   0.02170   0.02153  -0.84272
   D34        1.30938   0.00029   0.00000   0.00000  -0.00001   1.30937
   D35       -0.89904  -0.00193   0.00000  -0.02371  -0.02360  -0.92264
   D36        1.13704   0.00112   0.00000   0.01153   0.01123   1.14826
   D37       -2.97252  -0.00061   0.00000  -0.01016  -0.01031  -2.98283
   D38        1.10359   0.00095   0.00000   0.01162   0.01173   1.11532
   D39        3.13966   0.00400   0.00000   0.04687   0.04656  -3.09696
   D40       -0.96989   0.00227   0.00000   0.02517   0.02502  -0.94487
   D41        0.95666   0.00065   0.00000   0.00000   0.00001   0.95666
   D42        3.08230   0.00059   0.00000   0.00881   0.00876   3.09106
   D43       -1.13764  -0.00112   0.00000  -0.01600  -0.01596  -1.15361
   D44       -1.15753   0.00172   0.00000   0.01610   0.01618  -1.14135
   D45        0.96812   0.00167   0.00000   0.02491   0.02493   0.99305
   D46        3.03136  -0.00005   0.00000   0.00010   0.00021   3.03156
   D47        3.06188   0.00060   0.00000   0.00357   0.00353   3.06541
   D48       -1.09566   0.00054   0.00000   0.01238   0.01228  -1.08337
   D49        0.96758  -0.00118   0.00000  -0.01243  -0.01244   0.95514
   D50       -0.92192  -0.00080   0.00000   0.00000   0.00001  -0.92192
   D51        1.18334  -0.00140   0.00000  -0.01100  -0.01101   1.17233
   D52       -3.04844  -0.00089   0.00000  -0.00759  -0.00763  -3.05608
   D53       -3.04921   0.00012   0.00000  -0.00035  -0.00032  -3.04954
   D54       -0.94394  -0.00047   0.00000  -0.01135  -0.01134  -0.95529
   D55        1.10745   0.00003   0.00000  -0.00794  -0.00796   1.09949
   D56        1.17622   0.00014   0.00000   0.00728   0.00732   1.18354
   D57       -3.00169  -0.00045   0.00000  -0.00372  -0.00370  -3.00540
   D58       -0.95030   0.00005   0.00000  -0.00031  -0.00032  -0.95062
   D59        0.98784  -0.00083   0.00000  -0.01247  -0.01252   0.97532
   D60        3.09701  -0.00080   0.00000  -0.01706  -0.01722   3.07979
   D61       -1.13110   0.00044   0.00000  -0.00357  -0.00354  -1.13465
   D62       -1.11497  -0.00126   0.00000  -0.01374  -0.01373  -1.12870
   D63        0.99420  -0.00123   0.00000  -0.01833  -0.01843   0.97577
   D64        3.04927   0.00000   0.00000  -0.00484  -0.00475   3.04451
   D65        3.11558  -0.00024   0.00000  -0.00184  -0.00184   3.11374
   D66       -1.05843  -0.00021   0.00000  -0.00642  -0.00654  -1.06497
   D67        0.99663   0.00102   0.00000   0.00706   0.00714   1.00377
   D68       -1.05250   0.00004   0.00000  -0.00015  -0.00005  -1.05255
   D69       -3.12751   0.00159   0.00000   0.00889   0.00849  -3.11902
   D70        1.08024   0.00151   0.00000   0.01165   0.01155   1.09179
   D71        3.12161  -0.00136   0.00000  -0.00758  -0.00740   3.11421
   D72        1.04660   0.00019   0.00000   0.00146   0.00114   1.04774
   D73       -1.02883   0.00011   0.00000   0.00422   0.00420  -1.02463
   D74        1.06605  -0.00030   0.00000   0.00178   0.00199   1.06804
   D75       -1.00896   0.00125   0.00000   0.01081   0.01053  -0.99843
   D76       -3.08439   0.00117   0.00000   0.01358   0.01359  -3.07080
   D77       -1.17217   0.00377   0.00000   0.00000  -0.00001  -1.17217
   D78        3.06377   0.00018   0.00000  -0.01796  -0.01783   3.04594
   D79        1.01238  -0.00070   0.00000  -0.03708  -0.03736   0.97502
   D80        0.13325   0.00185   0.00000   0.02037   0.02005   0.15330
   D81       -3.00080  -0.00067   0.00000  -0.03527  -0.03507  -3.03587
         Item               Value     Threshold  Converged?
 Maximum Force            0.034447     0.000450     NO 
 RMS     Force            0.006294     0.000300     NO 
 Maximum Displacement     0.192998     0.001800     NO 
 RMS     Displacement     0.047830     0.001200     NO 
 Predicted change in Energy=-1.108789D-02
 GradGradGradGradGradGradGradGradGradGradGradGradGradGradGradGradGradGrad

                          Input orientation:                          
 ---------------------------------------------------------------------
 Center     Atomic      Atomic             Coordinates (Angstroms)
 Number     Number       Type             X           Y           Z
 ---------------------------------------------------------------------
      1          8           0       -3.534554   -1.431022   -0.232451
      2          7           0       -3.181794   -0.257038   -0.045570
      3          8           0       -3.935710    0.708419    0.151181
      4          6           0       -1.674985   -0.003411   -0.030892
      5          6           0       -1.310434    1.273867    0.259782
      6          7           0       -0.060047    1.754002    0.389614
      7          6           0        1.200700    1.006620    0.369049
      8          1           0        1.833073    1.521030    1.110906
      9          6           0        1.933002    1.050973   -0.968279
     10          6           0        3.332747    0.450421   -0.794964
     11          6           0        3.269524   -0.961555   -0.201273
     12          6           0        2.447825   -0.997409    1.087182
     13          6           0        1.039709   -0.440739    0.842740
     14          1           0        0.469558   -0.452166    1.784602
     15          7           0        0.402681   -1.322796   -0.128944
     16          6           0       -0.836592   -1.124810   -0.420715
     17          1           0       -2.103058    1.997678    0.432013
     18          1           0        0.065509    2.753262    0.261607
     19          1           0        1.364737    0.482904   -1.712956
     20          1           0        1.999611    2.089083   -1.320943
     21          1           0        3.845944    0.431583   -1.762898
     22          1           0        3.920416    1.100131   -0.131331
     23          1           0        2.805682   -1.639489   -0.925946
     24          1           0        4.281690   -1.335357   -0.005815
     25          1           0        2.366455   -2.026108    1.455155
     26          1           0        2.940618   -0.404609    1.869285
     27          1           0       -1.319320   -1.856434   -1.071139
 ---------------------------------------------------------------------
                    Distance matrix (angstroms):
                    1          2          3          4          5
     1  O    0.000000
     2  N    1.240001   0.000000
     3  O    2.210273   1.240648   0.000000
     4  C    2.353019   1.528076   2.377127   0.000000
     5  C    3.536302   2.436986   2.687675   1.359717   0.000000
     6  N    4.754318   3.738847   4.021300   2.423500   1.345680
     7  C    5.359713   4.579847   5.149669   3.074033   2.527678
     8  H    6.271415   5.444985   5.904258   3.991753   3.266059
     9  C    6.049456   5.359424   5.984339   3.874015   3.475298
    10  C    7.142554   6.595555   7.334318   5.085976   4.832152
    11  C    6.820326   6.491541   7.404623   5.039369   5.117197
    12  C    6.141523   5.789982   6.673490   4.385850   4.468534
    13  C    4.802143   4.317862   5.153020   2.885143   2.966966
    14  H    4.589071   4.089007   4.839567   2.845428   2.910780
    15  N    3.940082   3.740488   4.798535   2.463146   3.135049
    16  C    2.721802   2.528583   3.645864   1.453409   2.537963
    17  H    3.774477   2.544701   2.258244   2.098068   1.087115
    18  H    5.541911   4.438608   4.494811   3.273243   2.020354
    19  H    5.464253   4.898840   5.623220   3.507955   3.416703
    20  H    6.648529   5.829050   6.269084   4.421020   3.757615
    21  H    7.764233   7.267222   8.018384   5.802562   5.602581
    22  H    7.873598   7.231228   7.870957   5.704069   5.248328
    23  H    6.381456   6.207745   7.219365   4.853271   5.180348
    24  H    7.820114   7.541084   8.469199   6.103825   6.176605
    25  H    6.166364   6.013722   6.992515   4.757402   5.083136
    26  H    6.884669   6.416571   7.174580   5.007536   4.845537
    27  H    2.406582   2.660577   3.862388   2.154601   3.401503
                    6          7          8          9         10
     6  N    0.000000
     7  C    1.465771   0.000000
     8  H    2.039226   1.102210   0.000000
     9  C    2.512045   1.525346   2.133999   0.000000
    10  C    3.822774   2.491969   2.650956   1.532967   0.000000
    11  C    4.336986   2.911875   3.154114   2.534731   1.533018
    12  C    3.787650   2.467219   2.592493   2.947173   2.534122
    13  C    2.496332   1.531388   2.133044   2.510571   2.955378
    14  H    2.663391   2.160189   2.491293   3.461134   3.958115
    15  N    3.154316   2.512173   3.416226   2.946379   3.489007
    16  C    3.089856   3.052421   4.058749   3.564339   4.472673
    17  H    2.057929   3.449779   4.022589   4.375712   5.783378
    18  H    1.015219   2.085895   2.316028   2.810327   4.134521
    19  H    2.840158   2.153121   3.044871   1.095523   2.171826
    20  H    2.698235   2.160106   2.502860   1.098399   2.176952
    21  H    4.651760   3.445748   3.673867   2.162038   1.095729
    22  H    4.067311   2.766944   2.465220   2.157015   1.099039
    23  H    4.632373   3.354828   3.883763   2.828771   2.159324
    24  H    5.343331   3.888172   3.924505   3.483855   2.170772
    25  H    4.616549   3.425792   3.603498   3.940729   3.482808
    26  H    3.981585   2.696218   2.347314   3.344515   2.825431
    27  H    4.093265   4.076974   5.109420   4.363622   5.199960
                   11         12         13         14         15
    11  C    0.000000
    12  C    1.528591   0.000000
    13  C    2.516602   1.533761   0.000000
    14  H    3.470301   2.167308   1.101048   0.000000
    15  N    2.890418   2.401552   1.458767   2.103361   0.000000
    16  C    4.115215   3.616265   2.363213   2.649886   1.288459
    17  H    6.166260   5.487288   3.998945   3.801261   4.197494
    18  H    4.927457   4.519351   3.389457   3.571769   4.108584
    19  H    2.828403   3.347413   2.736848   3.729425   2.587508
    20  H    3.488945   3.940355   3.464525   4.294580   3.951198
    21  H    2.170661   3.481338   3.927499   4.976520   4.195678
    22  H    2.163123   2.837776   3.409041   4.241325   4.271422
    23  H    1.095397   2.143130   2.771986   3.770182   2.551454
    24  H    1.096545   2.161460   3.468548   4.303251   3.880983
    25  H    2.166232   1.095558   2.156085   2.486774   2.619241
    26  H    2.169234   1.098154   2.160684   2.472968   3.358141
    27  H    4.755519   4.425794   3.351439   3.650659   2.034155
                   16         17         18         19         20
    16  C    0.000000
    17  H    3.475775   0.000000
    18  H    4.039652   2.302744   0.000000
    19  H    3.016700   4.349832   3.277410   0.000000
    20  H    4.379905   4.462410   2.585797   1.771031   0.000000
    21  H    5.113703   6.531533   4.876525   2.482240   2.520234
    22  H    5.259584   6.115978   4.212784   3.068225   2.466312
    23  H    3.712992   6.258495   5.311787   2.683330   3.835104
    24  H    5.139385   7.215665   5.879158   3.837840   4.320213
    25  H    3.819782   6.100346   5.437029   4.163593   4.977559
    26  H    4.475500   5.768484   4.563226   4.012920   4.157108
    27  H    1.091491   4.210451   4.994323   3.617816   5.161861
                   21         22         23         24         25
    21  H    0.000000
    22  H    1.764799   0.000000
    23  H    2.464138   3.062607   0.000000
    24  H    2.529683   2.465334   1.765712   0.000000
    25  H    4.311032   3.834723   2.451945   2.505932   0.000000
    26  H    3.835568   2.688254   3.058831   2.486114   1.769301
    27  H    5.691529   6.089281   4.133253   5.725185   4.471676
                   26         27
    26  H    0.000000
    27  H    5.375961   0.000000
 Symmetry turned off by external request.
 Stoichiometry    C9H13N3O2
 Framework group  C1[X(C9H13N3O2)]
 Deg. of freedom    75
 Full point group                 C1      NOp   1
 Rotational constants (GHZ):           1.6856045           0.4151189           0.3671063
 Standard basis: 6-31G(d) (6D, 7F)
   236 basis functions,   444 primitive gaussians,   236 cartesian basis functions
    52 alpha electrons       52 beta electrons
       nuclear repulsion energy       928.3699938912 Hartrees.
 NAtoms=   27 NActive=   27 NUniq=   27 SFac= 1.00D+00 NAtFMM=   60 NAOKFM=F Big=F
 Integral buffers will be    131072 words long.
 Raffenetti 1 integral format.
 Two-electron integral symmetry is turned off.
 One-electron integrals computed using PRISM.
 NBasis=   236 RedAO= T EigKep=  1.08D-03  NBF=   236
 NBsUse=   236 1.00D-06 EigRej= -1.00D+00 NBFU=   236
 Initial guess from the checkpoint file:  "/home/alexey/tmp/Gau-1281391.chk"
 B after Tr=     0.043655    0.003857   -0.000075
         Rot=    0.999998   -0.001169    0.000736    0.001090 Ang=  -0.20 deg.
 ExpMin= 1.61D-01 ExpMax= 5.48D+03 ExpMxC= 8.25D+02 IAcc=3 IRadAn=         5 AccDes= 0.00D+00
 Harris functional with IExCor=  205 and IRadAn=       5 diagonalized for initial guess.
 HarFok:  IExCor=  205 AccDes= 0.00D+00 IRadAn=         5 IDoV= 1 UseB2=F ITyADJ=14
 ICtDFT=  3500011 ScaDFX=  1.000000  1.000000  1.000000  1.000000
 FoFCou: FMM=F IPFlag=           0 FMFlag=      100000 FMFlg1=           0
         NFxFlg=           0 DoJE=T BraDBF=F KetDBF=T FulRan=T
         wScrn=  0.000000 ICntrl=       500 IOpCl=  0 I1Cent=   200000004 NGrid=           0
         NMat0=    1 NMatS0=      1 NMatT0=    0 NMatD0=    1 NMtDS0=    0 NMtDT0=    0
 Symmetry not used in FoFCou.
 Keep R1 ints in memory in canonical form, NReq=397720213.
 Requested convergence on RMS density matrix=1.00D-08 within 128 cycles.
 Requested convergence on MAX density matrix=1.00D-06.
 Requested convergence on             energy=1.00D-06.
 No special actions if energy rises.
 SCF Done:  E(RHF) =  -661.294167472     A.U. after   15 cycles
            NFock= 15  Conv=0.48D-08     -V/T= 2.0026
 ExpMin= 1.61D-01 ExpMax= 5.48D+03 ExpMxC= 8.25D+02 IAcc=3 IRadAn=         5 AccDes= 0.00D+00
 HarFok:  IExCor=  205 AccDes= 0.00D+00 IRadAn=         5 IDoV=-2 UseB2=F ITyADJ=14
 ICtDFT= 12500011 ScaDFX=  1.000000  1.000000  1.000000  1.000000
 Range of M.O.s used for correlation:    15   236
 NBasis=   236 NAE=    52 NBE=    52 NFC=    14 NFV=     0
 NROrb=    222 NOA=    38 NOB=    38 NVA=   184 NVB=   184
 Fully direct method using O(ONN) memory.
 JobTyp=1 Pass  1:  I=  15 to  52 NPSUse=  4 ParTrn=T ParDer=T DoDerP=T.
 Spin components of T(2) and E(2):
     alpha-alpha T2 =       0.9151598961D-01 E2=     -0.2723970552D+00
     alpha-beta  T2 =       0.4934384773D+00 E2=     -0.1490074447D+01
     beta-beta   T2 =       0.9151598961D-01 E2=     -0.2723970552D+00
 ANorm=    0.1294785873D+01
 E2 =    -0.2034868558D+01 EUMP2 =    -0.66332903603014D+03
          IDoAtm=111111111111111111111111111
          Differentiating once with respect to electric field.
                with respect to dipole field.
          Differentiating once with respect to nuclear coordinates.
 Keep R1 ints in memory in canonical form, NReq=397723379.
          There are     1 degrees of freedom in the 1st order CPHF.  IDoFFX=0 NUNeed=     1.
 LinEq1:  Iter=  0 NonCon=     1 RMS=4.60D-03 Max=1.35D-01 NDo=     1
 AX will form     1 AO Fock derivatives at one time.
 LinEq1:  Iter=  1 NonCon=     1 RMS=1.56D-03 Max=2.86D-02 NDo=     1
 LinEq1:  Iter=  2 NonCon=     1 RMS=6.49D-04 Max=2.26D-02 NDo=     1
 LinEq1:  Iter=  3 NonCon=     1 RMS=2.82D-04 Max=7.16D-03 NDo=     1
 LinEq1:  Iter=  4 NonCon=     1 RMS=8.69D-05 Max=1.80D-03 NDo=     1
 LinEq1:  Iter=  5 NonCon=     1 RMS=3.52D-05 Max=1.63D-03 NDo=     1
 LinEq1:  Iter=  6 NonCon=     1 RMS=1.39D-05 Max=5.57D-04 NDo=     1
 LinEq1:  Iter=  7 NonCon=     1 RMS=5.42D-06 Max=1.11D-04 NDo=     1
[...]
    16  C    0.000000
    17  H    3.464853   0.000000
    18  H    4.100800   2.244776   0.000000
    19  H    2.997007   4.294755   3.520701   0.000000
    20  H    4.383153   4.445091   2.891405   1.768482   0.000000
    21  H    5.100512   6.507191   5.093340   2.499221   2.521167
    22  H    5.253239   6.102672   4.316678   3.070115   2.461926
    23  H    3.693408   6.230822   5.424994   2.703604   3.842828
    24  H    5.133187   7.201463   5.938824   3.849084   4.317237
    25  H    3.820254   6.092976   5.367906   4.171897   4.985029
    26  H    4.494638   5.785804   4.478554   4.032973   4.178991
    27  H    1.090095   4.213420   5.096232   3.603190   5.167096
                   21         22         23         24         25
    21  H    0.000000
    22  H    1.758827   0.000000
    23  H    2.469815   3.062278   0.000000
    24  H    2.517302   2.459853   1.764535   0.000000
    25  H    4.311935   3.838196   2.444947   2.518868   0.000000
    26  H    3.845071   2.701839   3.060360   2.492974   1.768021
    27  H    5.669280   6.073654   4.098263   5.701141   4.454237
                   26         27
    26  H    0.000000
    27  H    5.380377   0.000000
 Symmetry turned off by external request.
 Stoichiometry    C9H13N3O2
 Framework group  C1[X(C9H13N3O2)]
 Deg. of freedom    75
 Full point group                 C1      NOp   1
 Rotational constants (GHZ):           1.6732693           0.4143541           0.3681331

 **********************************************************************

            Population analysis using the SCF Density.

 **********************************************************************

 Alpha  occ. eigenvalues --  -20.59868 -20.59593 -15.85111 -15.63736 -15.56067
 Alpha  occ. eigenvalues --  -11.34734 -11.29618 -11.29458 -11.29100 -11.27041
 Alpha  occ. eigenvalues --  -11.23581 -11.23102 -11.22602 -11.22002  -1.57353
 Alpha  occ. eigenvalues --   -1.37417  -1.30653  -1.22965  -1.14082  -1.08863
 Alpha  occ. eigenvalues --   -1.02611  -1.00855  -0.94046  -0.89506  -0.85409
 Alpha  occ. eigenvalues --   -0.82367  -0.78501  -0.77364  -0.75051  -0.71904
 Alpha  occ. eigenvalues --   -0.70006  -0.69385  -0.67797  -0.64868  -0.63732
 Alpha  occ. eigenvalues --   -0.62258  -0.60324  -0.57557  -0.56900  -0.55028
 Alpha  occ. eigenvalues --   -0.54495  -0.50663  -0.50115  -0.48444  -0.48019
 Alpha  occ. eigenvalues --   -0.47777  -0.46175  -0.45962  -0.44016  -0.41627
 Alpha  occ. eigenvalues --   -0.39768  -0.33693
 Alpha virt. eigenvalues --    0.07980   0.11646   0.17333   0.21867   0.24056
 Alpha virt. eigenvalues --    0.25558   0.27083   0.28457   0.29102   0.29610
 Alpha virt. eigenvalues --    0.30557   0.31840   0.32118   0.32837   0.33958
 Alpha virt. eigenvalues --    0.34434   0.34901   0.36790   0.38534   0.39510
 Alpha virt. eigenvalues --    0.41048   0.42560   0.45192   0.46195   0.46817
 Alpha virt. eigenvalues --    0.47357   0.49190   0.53993   0.58273   0.59426
 Alpha virt. eigenvalues --    0.63806   0.69594   0.69950   0.72907   0.74311
 Alpha virt. eigenvalues --    0.74864   0.75903   0.76088   0.78597   0.79501
 Alpha virt. eigenvalues --    0.80986   0.84435   0.85620   0.85744   0.88442
 Alpha virt. eigenvalues --    0.89508   0.91043   0.92240   0.92832   0.94181
 Alpha virt. eigenvalues --    0.95613   0.98135   0.99775   1.01664   1.02361
 Alpha virt. eigenvalues --    1.03068   1.05795   1.07119   1.07802   1.09293
 Alpha virt. eigenvalues --    1.10027   1.11615   1.11974   1.12487   1.13999
 Alpha virt. eigenvalues --    1.14774   1.15117   1.15868   1.16923   1.18796
 Alpha virt. eigenvalues --    1.19130   1.21392   1.22698   1.23685   1.24406
 Alpha virt. eigenvalues --    1.24775   1.25992   1.26631   1.27205   1.29374
 Alpha virt. eigenvalues --    1.29740   1.33310   1.35961   1.37629   1.40300
 Alpha virt. eigenvalues --    1.41495   1.46114   1.48557   1.51582   1.53911
 Alpha virt. eigenvalues --    1.57450   1.58321   1.59498   1.63320   1.65608
 Alpha virt. eigenvalues --    1.67917   1.68459   1.72406   1.75022   1.76812
 Alpha virt. eigenvalues --    1.80535   1.84375   1.86974   1.90453   1.93297
 Alpha virt. eigenvalues --    1.94916   1.96584   1.99107   1.99613   2.01419
 Alpha virt. eigenvalues --    2.04089   2.04714   2.07701   2.09059   2.11671
 Alpha virt. eigenvalues --    2.13254   2.15335   2.19034   2.20064   2.21893
 Alpha virt. eigenvalues --    2.22071   2.23407   2.25127   2.28136   2.29563
 Alpha virt. eigenvalues --    2.31892   2.33439   2.34845   2.36456   2.38479
 Alpha virt. eigenvalues --    2.41442   2.41580   2.43239   2.45339   2.47301
 Alpha virt. eigenvalues --    2.50244   2.51943   2.53191   2.55754   2.60917
 Alpha virt. eigenvalues --    2.62464   2.65207   2.67846   2.70270   2.70625
 Alpha virt. eigenvalues --    2.72347   2.72635   2.77694   2.78822   2.80699
 Alpha virt. eigenvalues --    2.88634   2.89518   2.92970   2.93229   2.96465
 Alpha virt. eigenvalues --    2.99488   3.01078   3.04286   3.05405   3.07912
 Alpha virt. eigenvalues --    3.09493   3.15018   3.20353   3.23633   3.27496
 Alpha virt. eigenvalues --    3.33047   3.37397   3.38332   3.46340   3.65516
 Alpha virt. eigenvalues --    4.11756   4.24176   4.34626   4.38144   4.45834
 Alpha virt. eigenvalues --    4.55691   4.61781   4.62406   4.73507   4.79445
 Alpha virt. eigenvalues --    4.98775   5.00927   5.04727   5.11056
          Condensed to atoms (all electrons):
               1          2          3          4          5          6
     1  O    8.300935   0.304308  -0.080762  -0.080457   0.004224  -0.000015
     2  N    0.304308   5.709701   0.300097   0.270243  -0.053113   0.000861
     3  O   -0.080762   0.300097   8.335154  -0.087248   0.004347   0.000645
     4  C   -0.080457   0.270243  -0.087248   5.210290   0.569304  -0.048016
     5  C    0.004224  -0.053113   0.004347   0.569304   4.705833   0.317064
     6  N   -0.000015   0.000861   0.000645  -0.048016   0.317064   7.194981
     7  C    0.000003  -0.000128   0.000002   0.004624  -0.030895   0.173179
     8  H   -0.000000   0.000002  -0.000000  -0.000253   0.003159  -0.050471
     9  C   -0.000000  -0.000003  -0.000000   0.000907   0.000652  -0.062466
    10  C   -0.000000   0.000000   0.000000  -0.000041  -0.000054   0.003768
    11  C   -0.000000  -0.000000  -0.000000  -0.000029   0.000024  -0.000189
    12  C   -0.000000   0.000002  -0.000000  -0.000122  -0.000176   0.003850
    13  C   -0.000020  -0.000007  -0.000003  -0.011752  -0.000525  -0.047780
    14  H   -0.000003  -0.000079   0.000001   0.002710   0.006135  -0.006947
    15  N    0.000336   0.001913  -0.000015  -0.063536  -0.006578   0.001794
    16  C    0.002091  -0.026105   0.002333   0.331423  -0.051328  -0.001620
    17  H    0.000229  -0.007301   0.016979  -0.023724   0.375270  -0.033729
    18  H    0.000001  -0.000049   0.000013   0.001572  -0.031166   0.338807
    19  H    0.000000  -0.000004   0.000000  -0.001272   0.001225  -0.000302
    20  H    0.000000  -0.000000   0.000000  -0.000087   0.000162  -0.000324
    21  H   -0.000000   0.000000  -0.000000   0.000001   0.000001  -0.000077
    22  H   -0.000000   0.000000  -0.000000  -0.000000  -0.000003  -0.000116
    23  H    0.000000  -0.000000   0.000000   0.000041   0.000000  -0.000031
    24  H    0.000000   0.000000   0.000000   0.000000  -0.000000   0.000006
    25  H    0.000000  -0.000000   0.000000   0.000024   0.000000  -0.000090
    26  H    0.000000  -0.000000   0.000000   0.000006  -0.000002  -0.000057
    27  H    0.006215  -0.000855   0.000029  -0.063003   0.002126   0.000009
               7          8          9         10         11         12
     1  O    0.000003  -0.000000  -0.000000  -0.000000  -0.000000  -0.000000
     2  N   -0.000128   0.000002  -0.000003   0.000000  -0.000000   0.000002
     3  O    0.000002  -0.000000  -0.000000   0.000000  -0.000000  -0.000000
     4  C    0.004624  -0.000253   0.000907  -0.000041  -0.000029  -0.000122
     5  C   -0.030895   0.003159   0.000652  -0.000054   0.000024  -0.000176
     6  N    0.173179  -0.050471  -0.062466   0.003768  -0.000189   0.003850
     7  C    5.014951   0.418120   0.351181  -0.054642  -0.008981  -0.061046
     8  H    0.418120   0.538992  -0.055157   0.000719  -0.000311  -0.002324
     9  C    0.351181  -0.055157   5.157882   0.324846  -0.050434  -0.005241
    10  C   -0.054642   0.000719   0.324846   5.119281   0.337025  -0.061086
    11  C   -0.008981  -0.000311  -0.050434   0.337025   5.120011   0.336087
    12  C   -0.061046  -0.002324  -0.005241  -0.061086   0.336087   5.119035
    13  C    0.337879  -0.037549  -0.061105  -0.000164  -0.050828   0.371595
    14  H   -0.046795  -0.000710   0.004431  -0.000403   0.004198  -0.036279
    15  N   -0.057984   0.003837  -0.014262   0.001597  -0.013204  -0.082256
    16  C   -0.001931  -0.000002  -0.001136  -0.000032   0.000032   0.002734
    17  H    0.001637  -0.000048  -0.000069   0.000001   0.000000   0.000000
    18  H   -0.021315  -0.004522   0.001390  -0.000084   0.000004  -0.000114
    19  H   -0.036964   0.004374   0.390299  -0.032284  -0.002224   0.000683
    20  H   -0.042298  -0.002020   0.399353  -0.035315   0.003934  -0.000415
    21  H    0.004594  -0.000077  -0.036345   0.402364  -0.034964   0.004362
    22  H   -0.004857   0.003570  -0.046920   0.397707  -0.045401  -0.001063
    23  H    0.000578   0.000035  -0.001961  -0.039022   0.399223  -0.037949
    24  H   -0.000133  -0.000102   0.004386  -0.038442   0.402284  -0.038702
    25  H    0.005145  -0.000021  -0.000430   0.004203  -0.033439   0.398262
    26  H   -0.003935   0.001668   0.000978  -0.002266  -0.041458   0.396668
    27  H   -0.000396   0.000009  -0.000055   0.000006   0.000012  -0.000037
              13         14         15         16         17         18
     1  O   -0.000020  -0.000003   0.000336   0.002091   0.000229   0.000001
     2  N   -0.000007  -0.000079   0.001913  -0.026105  -0.007301  -0.000049
     3  O   -0.000003   0.000001  -0.000015   0.002333   0.016979   0.000013
     4  C   -0.011752   0.002710  -0.063536   0.331423  -0.023724   0.001572
     5  C   -0.000525   0.006135  -0.006578  -0.051328   0.375270  -0.031166
     6  N   -0.047780  -0.006947   0.001794  -0.001620  -0.033729   0.338807
     7  C    0.337879  -0.046795  -0.057984  -0.001931   0.001637  -0.021315
     8  H   -0.037549  -0.000710   0.003837  -0.000002  -0.000048  -0.004522
     9  C   -0.061105   0.004431  -0.014262  -0.001136  -0.000069   0.001390
    10  C   -0.000164  -0.000403   0.001597  -0.000032   0.000001  -0.000084
    11  C   -0.050828   0.004198  -0.013204   0.000032   0.000000   0.000004
    12  C    0.371595  -0.036279  -0.082256   0.002734   0.000000  -0.000114
    13  C    5.039921   0.403266   0.247150  -0.070793  -0.000011   0.002908
    14  H    0.403266   0.527344  -0.037609  -0.004948   0.000087  -0.000116
    15  N    0.247150  -0.037609   6.964943   0.584562  -0.000077  -0.000129
    16  C   -0.070793  -0.004948   0.584562   4.710397   0.001950  -0.000193
    17  H   -0.000011   0.000087  -0.000077   0.001950   0.379010  -0.002744
    18  H    0.002908  -0.000116  -0.000129  -0.000193  -0.002744   0.311647
    19  H   -0.007514   0.000110   0.007633   0.002912   0.000016  -0.000150
    20  H    0.004361  -0.000067   0.000126  -0.000037   0.000002   0.000761
    21  H   -0.000439   0.000010  -0.000042   0.000004  -0.000000   0.000001
    22  H    0.000059  -0.000054   0.000020  -0.000002   0.000000   0.000001
    23  H   -0.007550   0.000004   0.008618   0.000096   0.000000   0.000000
    24  H    0.004707  -0.000057   0.000133   0.000007   0.000000  -0.000000
    25  H   -0.035588  -0.002835   0.000448  -0.000022  -0.000000   0.000002
    26  H   -0.047323  -0.001036   0.004893  -0.000065   0.000000  -0.000000
    27  H    0.004997  -0.000171  -0.039783   0.403228  -0.000080   0.000001
              19         20         21         22         23         24
     1  O    0.000000   0.000000  -0.000000  -0.000000   0.000000   0.000000
     2  N   -0.000004  -0.000000   0.000000   0.000000  -0.000000   0.000000
     3  O    0.000000   0.000000  -0.000000  -0.000000   0.000000   0.000000
     4  C   -0.001272  -0.000087   0.000001  -0.000000   0.000041   0.000000
     5  C    0.001225   0.000162   0.000001  -0.000003   0.000000  -0.000000
     6  N   -0.000302  -0.000324  -0.000077  -0.000116  -0.000031   0.000006
     7  C   -0.036964  -0.042298   0.004594  -0.004857   0.000578  -0.000133
     8  H    0.004374  -0.002020  -0.000077   0.003570   0.000035  -0.000102
     9  C    0.390299   0.399353  -0.036345  -0.046920  -0.001961   0.004386
    10  C   -0.032284  -0.035315   0.402364   0.397707  -0.039022  -0.038442
    11  C   -0.002224   0.003934  -0.034964  -0.045401   0.399223   0.402284
    12  C    0.000683  -0.000415   0.004362  -0.001063  -0.037949  -0.038702
    13  C   -0.007514   0.004361  -0.000439   0.000059  -0.007550   0.004707
    14  H    0.000110  -0.000067   0.000010  -0.000054   0.000004  -0.000057
    15  N    0.007633   0.000126  -0.000042   0.000020   0.008618   0.000133
    16  C    0.002912  -0.000037   0.000004  -0.000002   0.000096   0.000007
    17  H    0.000016   0.000002  -0.000000   0.000000   0.000000   0.000000
    18  H   -0.000150   0.000761   0.000001   0.000001   0.000000  -0.000000
    19  H    0.506258  -0.024728  -0.002790   0.003974   0.001523  -0.000067
    20  H   -0.024728   0.541167  -0.002705  -0.002984  -0.000046  -0.000083
    21  H   -0.002790  -0.002705   0.524835  -0.027476  -0.002899  -0.002250
    22  H    0.003974  -0.002984  -0.027476   0.571688   0.004140  -0.003653
    23  H    0.001523  -0.000046  -0.002899   0.004140   0.499299  -0.025504
    24  H   -0.000067  -0.000083  -0.002250  -0.003653  -0.025504   0.538719
    25  H   -0.000029   0.000013  -0.000087  -0.000081  -0.002305  -0.002309
    26  H    0.000020  -0.000030  -0.000080   0.002386   0.004072  -0.003019
    27  H    0.000082   0.000000  -0.000000   0.000000  -0.000035  -0.000000
              25         26         27
     1  O    0.000000   0.000000   0.006215
     2  N   -0.000000  -0.000000  -0.000855
     3  O    0.000000   0.000000   0.000029
     4  C    0.000024   0.000006  -0.063003
     5  C    0.000000  -0.000002   0.002126
     6  N   -0.000090  -0.000057   0.000009
     7  C    0.005145  -0.003935  -0.000396
     8  H   -0.000021   0.001668   0.000009
     9  C   -0.000430   0.000978  -0.000055
    10  C    0.004203  -0.002266   0.000006
    11  C   -0.033439  -0.041458   0.000012
    12  C    0.398262   0.396668  -0.000037
    13  C   -0.035588  -0.047323   0.004997
    14  H   -0.002835  -0.001036  -0.000171
    15  N    0.000448   0.004893  -0.039783
    16  C   -0.000022  -0.000065   0.403228
    17  H   -0.000000   0.000000  -0.000080
    18  H    0.000002  -0.000000   0.000001
    19  H   -0.000029   0.000020   0.000082
    20  H    0.000013  -0.000030   0.000000
    21  H   -0.000087  -0.000080  -0.000000
    22  H   -0.000081   0.002386   0.000000
    23  H   -0.002305   0.004072  -0.000035
    24  H   -0.002309  -0.003019  -0.000000
    25  H    0.506771  -0.024147  -0.000013
    26  H   -0.024147   0.562615   0.000001
    27  H   -0.000013   0.000001   0.438681
 Mulliken charges:
               1
     1  O   -0.457085
     2  N    0.500516
     3  O   -0.491572
     4  C   -0.011608
     5  C    0.184312
     6  N   -0.782735
     7  C    0.060407
     8  H    0.179082
     9  C   -0.300723
    10  C   -0.327682
    11  C   -0.321371
    12  C   -0.306468
    13  C   -0.037893
    14  H    0.189811
    15  N   -0.512527
    16  C    0.116444
    17  H    0.292600
    18  H    0.403474
    19  H    0.189218
    20  H    0.161260
    21  H    0.174060
    22  H    0.149065
    23  H    0.199669
    24  H    0.164078
    25  H    0.186526
    26  H    0.150111
    27  H    0.249030
 Sum of Mulliken charges =  -0.00000
 Mulliken charges with hydrogens summed into heavy atoms:
               1
     1  O   -0.457085
     2  N    0.500516
     3  O   -0.491572
     4  C   -0.011608
     5  C    0.476913
     6  N   -0.379261
     7  C    0.239489
     9  C    0.049756
    10  C   -0.004557
    11  C    0.042375
    12  C    0.030169
    13  C    0.151918
    15  N   -0.512527
    16  C    0.365474
 Electronic spatial extent (au):  <R**2>=           3033.1022
 Charge=             -0.0000 electrons
 Dipole moment (field-independent basis, Debye):
    X=              5.1421    Y=              4.6528    Z=              1.3234  Tot=              7.0598
 Quadrupole moment (field-independent basis, Debye-Ang):
   XX=           -105.3866   YY=            -79.3767   ZZ=            -81.6574
   XY=             -1.4724   XZ=             -0.3230   YZ=              1.9234
 Traceless Quadrupole moment (field-independent basis, Debye-Ang):
   XX=            -16.5797   YY=              9.4302   ZZ=              7.1495
   XY=             -1.4724   XZ=             -0.3230   YZ=              1.9234
 Octapole moment (field-independent basis, Debye-Ang**2):
  XXX=             89.9380  YYY=             35.4167  ZZZ=             -0.9201  XYY=             -4.6439
  XXY=              8.9325  XXZ=              6.1853  XZZ=             -9.4236  YZZ=             -0.3062
  YYZ=              8.4004  XYZ=              0.4137
 Hexadecapole moment (field-independent basis, Debye-Ang**3):
 XXXX=          -3407.0872 YYYY=           -603.8784 ZZZZ=           -305.3075 XXXY=            -19.1098
 XXXZ=            -22.8213 YYYX=             -7.4714 YYYZ=             25.3140 ZZZX=             -2.9453
 ZZZY=              6.6806 XXYY=           -633.3506 XXZZ=           -529.4472 YYZZ=           -157.8411
 XXYZ=             -4.8061 YYXZ=             -0.3226 ZZXY=              4.4621
 N-N= 9.279993376526D+02 E-N=-3.402642152198D+03  KE= 6.595146026930D+02
 Unable to Open any file for archive entry.
 1\1\GINC-LOTUS\FOpt\RMP2-FC\6-31G(d)\C9H13N3O2\ALEXEY\01-Jul-2023\0\\#
 MP2/6-31G* SCF=Tight Opt=(ModRedun, MaxCycle=20 ) NoSymm\\MolName:\\0,
 1\O,-3.5543330065,-1.3819964644,-0.4046504484\N,-3.1715979168,-0.23004
 37122,-0.1421962735\O,-3.9258195442,0.7420502101,0.0267903612\C,-1.663
 7379315,-0.0260346682,-0.0016427682\C,-1.2939911817,1.2600502556,0.278
 2360538\N,-0.0502758596,1.7548991188,0.3923948326\C,1.2107983465,1.025
 9489396,0.3632801982\H,1.8620053708,1.553221191,1.076566179\C,1.909848
 2952,1.0352943609,-0.9951557208\C,3.3090979222,0.4292857572,-0.8366396
 326\C,3.2641535984,-0.9661823319,-0.2085709451\C,2.4747620997,-0.97503
 52687,1.1021316666\C,1.0627011895,-0.4253946784,0.8684524727\H,0.48858
 99754,-0.4038882137,1.8083376185\N,0.4156561101,-1.3261571266,-0.08080
 77764\C,-0.8349938641,-1.1489512882,-0.3695041658\H,-2.0949577371,1.98
 20481594,0.414421666\H,0.0076537469,2.736354437,0.6359342139\H,1.31280
 17049,0.4564806751,-1.7080160563\H,1.9734471961,2.0626802634,-1.374549
 5263\H,3.8090180807,0.3904718286,-1.8112224596\H,3.9113850525,1.096229
 6933,-0.2034598301\H,2.7834616271,-1.6638879634,-0.9013739843\H,4.2841
 373493,-1.3294111352,-0.0355326765\H,2.3932866638,-1.9959777117,1.4892
 841323\H,2.9862550102,-0.3735790222,1.8662570909\H,-1.3063622978,-1.91
 14453052,-0.9897642219\\Version=ES64L-G16RevC.02\HF=-661.2961344\MP2=-
 663.3322162\RMSD=5.849e-09\RMSF=5.040e-03\Dipole=1.8540142,1.6470823,0
 .4845764\PG=C01 [X(C9H13N3O2)]\\@
 The archive entry for this job was punched.


 IT IS BY EATING THE LIGHT OF A STAR THAT WE EXIST, 
 IN THE FINAL ANALYSIS, 
 JUST AS IT IS BY PERCEIVING THE LIGHT OF STARS
 THAT WE DEFINE THE WORLD AROUND US.

                                    -- GILBERT GROSVENOR
 Job cpu time:       0 days  1 hours 15 minutes 17.4 seconds.
 Elapsed time:       0 days  0 hours 22 minutes 45.2 seconds.
 File lengths (MBytes):  RWF=     36 Int=      0 D2E=      0 Chk=      7 Scr=      1
 Normal termination of Gaussian 16 at Sat Jul  1 07:11:17 2023.
