 Entering Gaussian System, Link 0=g16
 Initial command:
 /home/alexey/programs//g16/l1.exe "/home/alexey/tmp/Gau-1196020.inp" -scrdir="/home/alexey/tmp/"
 Entering Link 1 = /home/alexey/programs//g16/l1.exe PID=   1196022.
  
 Copyright (c) 1988-2021, Gaussian, Inc.  All Rights Reserved.
  
 This is part of the Gaussian(R) 16 program.  It is based on
 the Gaussian(R) 09 system (copyright 2009, Gaussian, Inc.),
 the Gaussian(R) 03 system (copyright 2003, Gaussian, Inc.),
 the Gaussian(R) 98 system (copyright 1998, Gaussian, Inc.),
 the Gaussian(R) 94 system (copyright 1995, Gaussian, Inc.),
 the Gaussian 92(TM) system (copyright 1992, Gaussian, Inc.),
 the Gaussian 90(TM) system (copyright 1990, Gaussian, Inc.),
 the Gaussian 88(TM) system (copyright 1988, Gaussian, Inc.),
 the Gaussian 86(TM) system (copyright 1986, Carnegie Mellon
 University), and the Gaussian 82(TM) system (copyright 1983,
 Carnegie Mellon University). Gaussian is a federally registered
 trademark of Gaussian, Inc.
  
 This software contains proprietary and confidential information,
 including trade secrets, belonging to Gaussian, Inc.
  
 This software is provided under written license and may be
 used, copied, transmitted, or stored only in accord with that
 written license.
  
 The following legend is applicable only to US Government
 contracts under FAR:
  
                    RESTRICTED RIGHTS LEGEND
  
 Use, reproduction and disclosure by the US Government is
 subject to restrictions as set forth in subparagraphs (a)
 and (c) of the Commercial Computer Software - Restricted
 Rights clause in FAR 52.227-19.
  
 Gaussian, Inc.
 340 Quinnipiac St., Bldg. 40, Wallingford CT 06492
  
  
 ---------------------------------------------------------------
 Warning -- This program may not be used in any manner that
 competes with the business of Gaussian, Inc. or will provide
 assistance to any competitor of Gaussian, Inc.  The licensee
 of this program is prohibited from giving any competitor of
 Gaussian, Inc. access to this program.  By using this program,
 the user acknowledges that Gaussian, Inc. is engaged in the
 business of creating and licensing software in the field of
 computational chemistry and represents and warrants to the
 licensee that it is not a competitor of Gaussian, Inc. and that
 it will not use this program in any manner prohibited above.
 ---------------------------------------------------------------
  

 Cite this work as:
 Gaussian 16, Revision C.02,
 M. J. Frisch, G. W. Trucks, H. B. Schlegel, G. E. Scuseria, 
 M. A. Robb, J. R. Cheeseman, G. Scalmani, V. Barone, 
 G. A. Petersson, H. Nakatsuji, X. Li, M. Caricato, A. V. Marenich, 
 J. Bloino, B. G. Janesko, R. Gomperts, B. Mennucci, H. P. Hratchian, 
 J. V. Ortiz, A. F. Izmaylov, J. L. Sonnenberg, D. Williams-Young, 
 F. Ding, F. Lipparini, F. Egidi, J. Goings, B. Peng, A. Petrone, 
 T. Henderson, D. Ranasinghe, V. G. Zakrzewski, J. Gao, N. Rega, 
 G. Zheng, W. Liang, M. Hada, M. Ehara, K. Toyota, R. Fukuda, 
 J. Hasegawa, M. Ishida, T. Nakajima, Y. Honda, O. Kitao, H. Nakai, 
 T. Vreven, K. Throssell, J. A. Montgomery, Jr., J. E. Peralta, 
 F. Ogliaro, M. J. Bearpark, J. J. Heyd, E. N. Brothers, K. N. Kudin, 
 V. N. Staroverov, T. A. Keith, R. Kobayashi, J. Normand, 
 K. Raghavachari, A. P. Rendell, J. C. Burant, S. S. Iyengar, 
 J. Tomasi, M. Cossi, J. M. Millam, M. Klene, C. Adamo, R. Cammi, 
 J. W. Ochterski, R. L. Martin, K. Morokuma, O. Farkas, 
 J. B. Foresman, and D. J. Fox, Gaussian, Inc., Wallingford CT, 2019.
 
 ******************************************
 Gaussian 16:  ES64L-G16RevC.02  7-Dec-2021
                30-Jun-2023 
 ******************************************
 %mem=8GB
 %NPROCS=4
 Will use up to    4 processors via shared memory.
 %NoSave
 ---------------------------------------------------------
 #MP2/6-31G* SCF=Tight Opt=(ModRedun, MaxCycle=20 ) NoSymm
 ---------------------------------------------------------
 1/6=20,18=120,19=15,38=1/1,3;
 2/9=110,12=2,15=1,17=6,18=5,40=1/2;
 3/5=1,6=6,7=1,11=9,25=1,30=1,71=1/1,2,3;
 4//1;
 5/5=2,32=2,38=5/2;
 8/6=4,10=2/1;
 9/15=2,16=-3/6;
 10/5=1,31=1/2;
 6/7=2,8=2,9=2,10=2/1;
 7/12=2,30=1/1,2,3,16;
 1/6=20,18=20,19=15/3(2);
 2/9=110,15=1/2;
 99//99;
 2/9=110,15=1/2;
 3/5=1,6=6,7=1,11=9,25=1,30=1,71=1/1,2,3;
 4/5=5,16=3,69=1/1;
 5/5=2,32=2,38=5/2;
 8/6=4,10=2/1;
 9/15=2,16=-3/6;
 10/5=1,31=1/2;
 7/12=2,30=1/1,2,3,16;
 1/6=20,18=20,19=15/3(-8);
 2/9=110,15=1/2;
 6/7=2,8=2,9=2,10=2/1;
 99/9=10/99;
 --------
 MolName:
 --------
 Symbolic Z-matrix:
 Charge =  0 Multiplicity = 1
 8                    0    -3.51827  -1.45724  -0.10577 
 7                    0    -3.15583  -0.28836   0.04255 
 8                    0    -3.96843   0.62982   0.18942 
 6                    0    -1.79536   0.00342  -0.03807 
 6                    0    -1.38412   1.30958   0.28968 
 7                    0    -0.09362   1.77097   0.34846 
 6                    0     1.1842    0.99745   0.33924 
 1                    0     1.83677   1.49473   1.1034 
 6                    0     1.97129   1.04712  -0.99401 
 6                    0     3.37805   0.45613  -0.7815 
 6                    0     3.30132  -0.96003  -0.18937 
 6                    0     2.43127  -0.99187   1.0859 
 6                    0     1.00066  -0.44877   0.81883 
 1                    0     0.43811  -0.48737   1.78112 
 7                    0     0.35664  -1.30956  -0.17392 
 6                    0    -0.8792   -1.09283  -0.48752 
 1                    0    -2.15484   2.0477    0.56825 
 1                    0     0.13373   2.7468    0.14308 
 1                    0     1.43319   0.47312  -1.77812 
 1                    0     2.06707   2.09713  -1.34322 
 1                    0     3.92897   0.43113  -1.74711 
 1                    0     3.94551   1.10752  -0.07983 
 1                    0     2.86373  -1.64695  -0.94862 
 1                    0     4.32412  -1.328     0.04435 
 1                    0     2.36201  -2.03855   1.45522 
 1                    0     2.91562  -0.3845    1.87904 
 1                    0    -1.36158  -1.8156   -1.1635 
 
 The following ModRedundant input section has been read:
 B       2       4 F                                                           
 D       1       2       4      16 F                                           
 D       7      13      15      16 F                                           
 D       7       9      10      11 F                                           
 D       9      10      11      12 F                                           
 D       6       7      13      15 F                                           
 

 GradGradGradGradGradGradGradGradGradGradGradGradGradGradGradGradGradGrad
 Berny optimization.
 Initialization pass.
                           ----------------------------
                           !    Initial Parameters    !
                           ! (Angstroms and Degrees)  !
 --------------------------                            --------------------------
 ! Name  Definition              Value          Derivative Info.                !
 --------------------------------------------------------------------------------
 ! R1    R(1,2)                  1.2327         estimate D2E/DX2                !
 ! R2    R(2,3)                  1.2349         estimate D2E/DX2                !
 ! R3    R(2,4)                  1.3937         Frozen                          !
 ! R4    R(4,5)                  1.408          estimate D2E/DX2                !
 ! R5    R(4,16)                 1.4977         estimate D2E/DX2                !
 ! R6    R(5,6)                  1.3718         estimate D2E/DX2                !
 ! R7    R(5,17)                 1.1029         estimate D2E/DX2                !
 ! R8    R(6,7)                  1.4937         estimate D2E/DX2                !
 ! R9    R(6,18)                 1.0228         estimate D2E/DX2                !
 ! R10   R(7,8)                  1.1212         estimate D2E/DX2                !
 ! R11   R(7,9)                  1.549          estimate D2E/DX2                !
 ! R12   R(7,13)                 1.5347         estimate D2E/DX2                !
 ! R13   R(9,10)                 1.5406         estimate D2E/DX2                !
 ! R14   R(9,19)                 1.1108         estimate D2E/DX2                !
 ! R15   R(9,20)                 1.1107         estimate D2E/DX2                !
 ! R16   R(10,11)                1.5369         estimate D2E/DX2                !
 ! R17   R(10,21)                1.112          estimate D2E/DX2                !
 ! R18   R(10,22)                1.113          estimate D2E/DX2                !
 ! R19   R(11,12)                1.5441         estimate D2E/DX2                !
 ! R20   R(11,23)                1.1135         estimate D2E/DX2                !
 ! R21   R(11,24)                1.1118         estimate D2E/DX2                !
 ! R22   R(12,13)                1.5534         estimate D2E/DX2                !
 ! R23   R(12,25)                1.1121         estimate D2E/DX2                !
 ! R24   R(12,26)                1.1102         estimate D2E/DX2                !
 ! R25   R(13,14)                1.1153         estimate D2E/DX2                !
 ! R26   R(13,15)                1.4633         estimate D2E/DX2                !
 ! R27   R(15,16)                1.2933         estimate D2E/DX2                !
 ! R28   R(16,27)                1.1009         estimate D2E/DX2                !
 ! A1    A(1,2,3)              121.726          estimate D2E/DX2                !
 ! A2    A(1,2,4)              118.5901         estimate D2E/DX2                !
 ! A3    A(3,2,4)              119.5741         estimate D2E/DX2                !
 ! A4    A(2,4,5)              117.7639         estimate D2E/DX2                !
 ! A5    A(2,4,16)             117.4666         estimate D2E/DX2                !
 ! A6    A(5,4,16)             124.763          estimate D2E/DX2                !
 ! A7    A(4,5,6)              126.6374         estimate D2E/DX2                !
 ! A8    A(4,5,17)             118.3928         estimate D2E/DX2                !
 ! A9    A(6,5,17)             114.9282         estimate D2E/DX2                !
 ! A10   A(5,6,7)              129.075          estimate D2E/DX2                !
 ! A11   A(5,6,18)             121.4272         estimate D2E/DX2                !
 ! A12   A(7,6,18)             107.6182         estimate D2E/DX2                !
 ! A13   A(6,7,8)              105.3085         estimate D2E/DX2                !
 ! A14   A(6,7,9)              115.0479         estimate D2E/DX2                !
 ! A15   A(6,7,13)             112.5666         estimate D2E/DX2                !
 ! A16   A(8,7,9)              106.0606         estimate D2E/DX2                !
 ! A17   A(8,7,13)             105.9371         estimate D2E/DX2                !
 ! A18   A(9,7,13)             111.0973         estimate D2E/DX2                !
 ! A19   A(7,9,10)             109.4479         estimate D2E/DX2                !
 ! A20   A(7,9,19)             110.1727         estimate D2E/DX2                !
 ! A21   A(7,9,20)             110.1658         estimate D2E/DX2                !
 ! A22   A(10,9,19)            109.9677         estimate D2E/DX2                !
 ! A23   A(10,9,20)            109.1038         estimate D2E/DX2                !
 ! A24   A(19,9,20)            107.9598         estimate D2E/DX2                !
 ! A25   A(9,10,11)            111.1639         estimate D2E/DX2                !
 ! A26   A(9,10,21)            109.9523         estimate D2E/DX2                !
 ! A27   A(9,10,22)            109.1488         estimate D2E/DX2                !
 ! A28   A(11,10,21)           109.7903         estimate D2E/DX2                !
 ! A29   A(11,10,22)           108.7754         estimate D2E/DX2                !
 ! A30   A(21,10,22)           107.9396         estimate D2E/DX2                !
 ! A31   A(10,11,12)           111.4278         estimate D2E/DX2                !
 ! A32   A(10,11,23)           108.9878         estimate D2E/DX2                !
 ! A33   A(10,11,24)           109.8785         estimate D2E/DX2                !
 ! A34   A(12,11,23)           109.2079         estimate D2E/DX2                !
 ! A35   A(12,11,24)           109.7494         estimate D2E/DX2                !
 ! A36   A(23,11,24)           107.4994         estimate D2E/DX2                !
 ! A37   A(11,12,13)           111.6989         estimate D2E/DX2                !
 ! A38   A(11,12,25)           109.1944         estimate D2E/DX2                !
 ! A39   A(11,12,26)           109.446          estimate D2E/DX2                !
 ! A40   A(13,12,25)           109.1963         estimate D2E/DX2                !
 ! A41   A(13,12,26)           109.4721         estimate D2E/DX2                !
 ! A42   A(25,12,26)           107.7474         estimate D2E/DX2                !
 ! A43   A(7,13,12)            105.8465         estimate D2E/DX2                !
 ! A44   A(7,13,14)            111.2573         estimate D2E/DX2                !
 ! A45   A(7,13,15)            113.2639         estimate D2E/DX2                !
 ! A46   A(12,13,14)           107.7031         estimate D2E/DX2                !
 ! A47   A(12,13,15)           108.4397         estimate D2E/DX2                !
 ! A48   A(14,13,15)           110.0595         estimate D2E/DX2                !
 ! A49   A(13,15,16)           119.1099         estimate D2E/DX2                !
 ! A50   A(4,16,15)            129.3775         estimate D2E/DX2                !
 ! A51   A(4,16,27)            113.3764         estimate D2E/DX2                !
 ! A52   A(15,16,27)           117.2298         estimate D2E/DX2                !
 ! D1    D(1,2,4,5)           -172.6226         estimate D2E/DX2                !
 ! D2    D(1,2,4,16)             8.2588         Frozen                          !
 ! D3    D(3,2,4,5)             11.1222         estimate D2E/DX2                !
 ! D4    D(3,2,4,16)          -167.9965         estimate D2E/DX2                !
 ! D5    D(2,4,5,6)            175.9297         estimate D2E/DX2                !
 ! D6    D(2,4,5,17)            -1.594          estimate D2E/DX2                !
 ! D7    D(16,4,5,6)            -5.0222         estimate D2E/DX2                !
 ! D8    D(16,4,5,17)          177.4541         estimate D2E/DX2                !
 ! D9    D(2,4,16,15)         -149.5141         estimate D2E/DX2                !
 ! D10   D(2,4,16,27)           28.9577         estimate D2E/DX2                !
 ! D11   D(5,4,16,15)           31.4352         estimate D2E/DX2                !
 ! D12   D(5,4,16,27)         -150.093          estimate D2E/DX2                !
 ! D13   D(4,5,6,7)            -12.5262         estimate D2E/DX2                !
 ! D14   D(4,5,6,18)           149.848          estimate D2E/DX2                !
 ! D15   D(17,5,6,7)           165.0716         estimate D2E/DX2                !
 ! D16   D(17,5,6,18)          -32.5541         estimate D2E/DX2                !
 ! D17   D(5,6,7,8)           -138.3522         estimate D2E/DX2                !
 ! D18   D(5,6,7,9)            105.2547         estimate D2E/DX2                !
 ! D19   D(5,6,7,13)           -23.3887         estimate D2E/DX2                !
 ! D20   D(18,6,7,8)            57.3772         estimate D2E/DX2                !
 ! D21   D(18,6,7,9)           -59.0158         estimate D2E/DX2                !
 ! D22   D(18,6,7,13)          172.3408         estimate D2E/DX2                !
 ! D23   D(6,7,9,10)           168.7949         estimate D2E/DX2                !
 ! D24   D(6,7,9,19)           -70.1714         estimate D2E/DX2                !
 ! D25   D(6,7,9,20)            48.833          estimate D2E/DX2                !
 ! D26   D(8,7,9,10)            52.8314         estimate D2E/DX2                !
 ! D27   D(8,7,9,19)           173.8652         estimate D2E/DX2                !
 ! D28   D(8,7,9,20)           -67.1305         estimate D2E/DX2                !
 ! D29   D(13,7,9,10)          -61.8349         estimate D2E/DX2                !
 ! D30   D(13,7,9,19)           59.1988         estimate D2E/DX2                !
 ! D31   D(13,7,9,20)          178.2031         estimate D2E/DX2                !
 ! D32   D(6,7,13,12)         -166.2971         estimate D2E/DX2                !
 ! D33   D(6,7,13,14)          -49.5793         estimate D2E/DX2                !
 ! D34   D(6,7,13,15)           75.0218         Frozen                          !
 ! D35   D(8,7,13,12)          -51.7144         estimate D2E/DX2                !
 ! D36   D(8,7,13,14)           65.0034         estimate D2E/DX2                !
 ! D37   D(8,7,13,15)         -170.3955         estimate D2E/DX2                !
 ! D38   D(9,7,13,12)           63.0289         estimate D2E/DX2                !
 ! D39   D(9,7,13,14)          179.7468         estimate D2E/DX2                !
 ! D40   D(9,7,13,15)          -55.6522         estimate D2E/DX2                !
 ! D41   D(7,9,10,11)           54.8122         Frozen                          !
 ! D42   D(7,9,10,21)          176.6015         estimate D2E/DX2                !
 ! D43   D(7,9,10,22)          -65.1736         estimate D2E/DX2                !
 ! D44   D(19,9,10,11)         -66.3457         estimate D2E/DX2                !
 ! D45   D(19,9,10,21)          55.4436         estimate D2E/DX2                !
 ! D46   D(19,9,10,22)         173.6685         estimate D2E/DX2                !
 ! D47   D(20,9,10,11)         175.4229         estimate D2E/DX2                !
 ! D48   D(20,9,10,21)         -62.7878         estimate D2E/DX2                !
 ! D49   D(20,9,10,22)          55.4371         estimate D2E/DX2                !
 ! D50   D(9,10,11,12)         -52.8224         Frozen                          !
 ! D51   D(9,10,11,23)          67.7617         estimate D2E/DX2                !
 ! D52   D(9,10,11,24)        -174.686          estimate D2E/DX2                !
 ! D53   D(21,10,11,12)       -174.7061         estimate D2E/DX2                !
 ! D54   D(21,10,11,23)        -54.122          estimate D2E/DX2                !
 ! D55   D(21,10,11,24)         63.4304         estimate D2E/DX2                !
 ! D56   D(22,10,11,12)         67.3848         estimate D2E/DX2                !
 ! D57   D(22,10,11,23)       -172.0311         estimate D2E/DX2                !
 ! D58   D(22,10,11,24)        -54.4787         estimate D2E/DX2                !
 ! D59   D(10,11,12,13)         56.4905         estimate D2E/DX2                !
 ! D60   D(10,11,12,25)        177.3705         estimate D2E/DX2                !
 ! D61   D(10,11,12,26)        -64.9065         estimate D2E/DX2                !
 ! D62   D(23,11,12,13)        -63.9643         estimate D2E/DX2                !
 ! D63   D(23,11,12,25)         56.9156         estimate D2E/DX2                !
 ! D64   D(23,11,12,26)        174.6386         estimate D2E/DX2                !
 ! D65   D(24,11,12,13)        178.4288         estimate D2E/DX2                !
 ! D66   D(24,11,12,25)        -60.6912         estimate D2E/DX2                !
 ! D67   D(24,11,12,26)         57.0318         estimate D2E/DX2                !
 ! D68   D(11,12,13,7)         -60.0775         estimate D2E/DX2                !
 ! D69   D(11,12,13,14)       -179.1698         estimate D2E/DX2                !
 ! D70   D(11,12,13,15)         61.7547         estimate D2E/DX2                !
 ! D71   D(25,12,13,7)         179.0437         estimate D2E/DX2                !
 ! D72   D(25,12,13,14)         59.9513         estimate D2E/DX2                !
 ! D73   D(25,12,13,15)        -59.1242         estimate D2E/DX2                !
 ! D74   D(26,12,13,7)          61.3044         estimate D2E/DX2                !
 ! D75   D(26,12,13,14)        -57.788          estimate D2E/DX2                !
 ! D76   D(26,12,13,15)       -176.8635         estimate D2E/DX2                !
 ! D77   D(7,13,15,16)         -67.1598         Frozen                          !
 ! D78   D(12,13,15,16)        175.6685         estimate D2E/DX2                !
 ! D79   D(14,13,15,16)         58.0881         estimate D2E/DX2                !
 ! D80   D(13,15,16,4)           4.1424         estimate D2E/DX2                !
 ! D81   D(13,15,16,27)       -174.2799         estimate D2E/DX2                !
 --------------------------------------------------------------------------------
 Trust Radius=3.00D-01 FncErr=1.00D-07 GrdErr=1.00D-07 EigMax=2.50D+02 EigMin=1.00D-04
 Number of steps in this run=     20 maximum allowed number of steps=    162.
 GradGradGradGradGradGradGradGradGradGradGradGradGradGradGradGradGradGrad

                          Input orientation:                          
 ---------------------------------------------------------------------
 Center     Atomic      Atomic             Coordinates (Angstroms)
 Number     Number       Type             X           Y           Z
 ---------------------------------------------------------------------
      1          8           0       -3.518270   -1.457240   -0.105770
      2          7           0       -3.155830   -0.288360    0.042550
      3          8           0       -3.968430    0.629820    0.189420
      4          6           0       -1.795360    0.003420   -0.038070
      5          6           0       -1.384120    1.309580    0.289680
      6          7           0       -0.093620    1.770970    0.348460
      7          6           0        1.184200    0.997450    0.339240
      8          1           0        1.836770    1.494730    1.103400
      9          6           0        1.971290    1.047120   -0.994010
     10          6           0        3.378050    0.456130   -0.781500
     11          6           0        3.301320   -0.960030   -0.189370
     12          6           0        2.431270   -0.991870    1.085900
     13          6           0        1.000660   -0.448770    0.818830
     14          1           0        0.438110   -0.487370    1.781120
     15          7           0        0.356640   -1.309560   -0.173920
     16          6           0       -0.879200   -1.092830   -0.487520
     17          1           0       -2.154840    2.047700    0.568250
     18          1           0        0.133730    2.746800    0.143080
     19          1           0        1.433190    0.473120   -1.778120
     20          1           0        2.067070    2.097130   -1.343220
     21          1           0        3.928970    0.431130   -1.747110
     22          1           0        3.945510    1.107520   -0.079830
     23          1           0        2.863730   -1.646950   -0.948620
     24          1           0        4.324120   -1.328000    0.044350
     25          1           0        2.362010   -2.038550    1.455220
     26          1           0        2.915620   -0.384500    1.879040
     27          1           0       -1.361580   -1.815600   -1.163500
 ---------------------------------------------------------------------
                    Distance matrix (angstroms):
                    1          2          3          4          5
     1  O    0.000000
     2  N    1.232738   0.000000
     3  O    2.155366   1.234886   0.000000
     4  C    2.259763   1.393741   2.272963   0.000000
     5  C    3.516571   2.398633   2.674095   1.408046   0.000000
     6  N    4.728202   3.702911   4.042483   2.483859   1.371760
     7  C    5.323228   4.536209   5.167900   3.163580   2.587692
     8  H    6.233191   5.406558   5.940015   4.088927   3.327244
     9  C    6.098857   5.398641   6.070825   4.023777   3.602155
    10  C    7.188659   6.627587   7.412397   5.246123   4.955206
    11  C    6.838203   6.496131   7.451199   5.189150   5.228190
    12  C    6.085530   5.727058   6.662561   4.485344   4.526349
    13  C    4.721507   4.231401   5.123609   2.959135   3.009812
    14  H    4.489314   3.997329   4.816557   2.922108   2.962085
    15  N    3.878322   3.664308   4.753887   2.524574   3.178846
    16  C    2.691323   2.472082   3.601265   1.497704   2.574987
    17  H    3.820713   2.595288   2.333025   2.162390   1.102920
    18  H    5.574315   4.476998   4.616435   3.358621   2.095462
    19  H    5.571355   4.995377   5.750936   3.697557   3.593424
    20  H    6.735047   5.906742   6.397597   4.583165   3.898373
    21  H    7.856292   7.342679   8.133791   5.989299   5.757527
    22  H    7.892191   7.238266   7.932915   5.846227   5.346244
    23  H    6.440210   6.250063   7.290900   5.025927   5.321530
    24  H    7.844891   7.551855   8.521766   6.263187   6.292934
    25  H    6.111653   5.958637   6.985479   4.866547   5.157708
    26  H    6.818004   6.343851   7.160573   5.100895   4.887099
    27  H    2.428688   2.646951   3.821798   2.182565   3.446591
                    6          7          8          9         10
     6  N    0.000000
     7  C    1.493734   0.000000
     8  H    2.091088   1.121194   0.000000
     9  C    2.567107   1.549043   2.148855   0.000000
    10  C    3.880478   2.522313   2.647089   1.540585   0.000000
    11  C    4.390130   2.931442   3.137197   2.538716   1.536885
    12  C    3.814731   2.463753   2.556739   2.948743   2.545639
    13  C    2.519115   1.534681   2.134772   2.542872   3.005309
    14  H    2.726784   2.200082   2.518784   3.522307   4.012538
    15  N    3.156783   2.504093   3.418534   2.972134   3.551863
    16  C    3.085020   3.051298   4.074676   3.600168   4.539810
    17  H    2.091295   3.507800   4.065109   4.524021   5.913357
    18  H    1.022797   2.049925   2.321689   2.749275   4.077699
    19  H    2.921970   2.195480   3.083784   1.110791   2.185411
    20  H    2.763466   2.195319   2.530192   1.110695   2.174185
    21  H    4.729462   3.493900   3.692418   2.186119   1.111998
    22  H    4.115601   2.795097   2.448826   2.176446   1.112951
    23  H    4.702182   3.387072   3.890448   2.838401   2.171497
    24  H    5.404861   3.918389   3.908491   3.500742   2.181787
    25  H    4.665563   3.442375   3.589390   3.958882   3.501240
    26  H    4.005528   2.697885   2.301530   3.345999   2.828246
    27  H    4.093560   4.080744   5.130942   4.396807   5.269798
                   11         12         13         14         15
    11  C    0.000000
    12  C    1.544123   0.000000
    13  C    2.563375   1.553361   0.000000
    14  H    3.507736   2.170377   1.115327   0.000000
    15  N    2.965392   2.447890   1.463309   2.122455   0.000000
    16  C    4.193242   3.666750   2.378074   2.692325   1.293297
    17  H    6.276154   5.526242   4.031418   3.823745   4.257880
    18  H    4.887201   4.488346   3.379330   3.638087   4.074829
    19  H    2.840415   3.368229   2.789465   3.818496   2.628757
    20  H    3.492989   3.946541   3.506180   4.369743   3.987276
    21  H    2.180785   3.506277   3.991650   5.047589   4.273929
    22  H    2.168350   2.838888   3.449894   4.278862   4.327946
    23  H    1.113465   2.180693   2.833822   3.831415   2.645655
    24  H    1.111821   2.186479   3.523954   4.338675   3.973522
    25  H    2.179492   1.112085   2.187617   2.492742   2.684592
    26  H    2.181357   1.110209   2.189805   2.481577   3.408630
    27  H    4.839790   4.485983   3.373134   3.697819   2.046369
                   16         17         18         19         20
    16  C    0.000000
    17  H    3.550329   0.000000
    18  H    4.020751   2.430445   0.000000
    19  H    3.076523   4.567134   3.247957   0.000000
    20  H    4.425898   4.634726   2.523680   1.796761   0.000000
    21  H    5.198800   6.707230   4.831045   2.496326   2.530880
    22  H    5.318419   6.206305   4.155309   3.098129   2.470631
    23  H    3.811717   6.413843   5.286752   2.688719   3.848183
    24  H    5.235717   7.324394   5.845777   3.863018   4.330259
    25  H    3.895391   6.155168   5.439349   4.198295   5.002210
    26  H    4.528023   5.774369   4.534039   4.038308   4.154694
    27  H    1.100925   4.307355   4.975801   3.664251   5.205516
                   21         22         23         24         25
    21  H    0.000000
    22  H    1.799333   0.000000
    23  H    2.467942   3.084177   0.000000
    24  H    2.541655   2.467899   1.794563   0.000000
    25  H    4.337004   3.842084   2.486669   2.518990   0.000000
    26  H    3.852414   2.669076   3.097117   2.498030   1.794990
    27  H    5.777397   6.155012   4.234130   5.832996   4.557688
                   26         27
    26  H    0.000000
    27  H    5.440546   0.000000
 Symmetry turned off by external request.
 Stoichiometry    C9H13N3O2
 Framework group  C1[X(C9H13N3O2)]
 Deg. of freedom    75
 Full point group                 C1      NOp   1
 Rotational constants (GHZ):           1.6878145           0.4100082           0.3630380
 Standard basis: 6-31G(d) (6D, 7F)
   236 basis functions,   444 primitive gaussians,   236 cartesian basis functions
    52 alpha electrons       52 beta electrons
       nuclear repulsion energy       923.9465406706 Hartrees.
 NAtoms=   27 NActive=   27 NUniq=   27 SFac= 1.00D+00 NAtFMM=   60 NAOKFM=F Big=F
 Integral buffers will be    131072 words long.
 Raffenetti 1 integral format.
 Two-electron integral symmetry is turned off.
 One-electron integrals computed using PRISM.
 NBasis=   236 RedAO= T EigKep=  1.19D-03  NBF=   236
 NBsUse=   236 1.00D-06 EigRej= -1.00D+00 NBFU=   236
 ExpMin= 1.61D-01 ExpMax= 5.48D+03 ExpMxC= 8.25D+02 IAcc=3 IRadAn=         5 AccDes= 0.00D+00
 Harris functional with IExCor=  205 and IRadAn=       5 diagonalized for initial guess.
 HarFok:  IExCor=  205 AccDes= 0.00D+00 IRadAn=         5 IDoV= 1 UseB2=F ITyADJ=14
 ICtDFT=  3500011 ScaDFX=  1.000000  1.000000  1.000000  1.000000
 FoFCou: FMM=F IPFlag=           0 FMFlag=      100000 FMFlg1=           0
         NFxFlg=           0 DoJE=T BraDBF=F KetDBF=T FulRan=T
         wScrn=  0.000000 ICntrl=       500 IOpCl=  0 I1Cent=   200000004 NGrid=           0
         NMat0=    1 NMatS0=      1 NMatT0=    0 NMatD0=    1 NMtDS0=    0 NMtDT0=    0
 Symmetry not used in FoFCou.
 Keep R1 ints in memory in canonical form, NReq=397720213.
 Requested convergence on RMS density matrix=1.00D-08 within 128 cycles.
 Requested convergence on MAX density matrix=1.00D-06.
 Requested convergence on             energy=1.00D-06.
 No special actions if energy rises.
 SCF Done:  E(RHF) =  -661.282888535     A.U. after   17 cycles
            NFock= 17  Conv=0.47D-08     -V/T= 2.0033
 ExpMin= 1.61D-01 ExpMax= 5.48D+03 ExpMxC= 8.25D+02 IAcc=3 IRadAn=         5 AccDes= 0.00D+00
 HarFok:  IExCor=  205 AccDes= 0.00D+00 IRadAn=         5 IDoV=-2 UseB2=F ITyADJ=14
 ICtDFT= 12500011 ScaDFX=  1.000000  1.000000  1.000000  1.000000
 Range of M.O.s used for correlation:    15   236
 NBasis=   236 NAE=    52 NBE=    52 NFC=    14 NFV=     0
 NROrb=    222 NOA=    38 NOB=    38 NVA=   184 NVB=   184
 Fully direct method using O(ONN) memory.
 JobTyp=1 Pass  1:  I=  15 to  52 NPSUse=  4 ParTrn=T ParDer=T DoDerP=T.
 Spin components of T(2) and E(2):
     alpha-alpha T2 =       0.9152730030D-01 E2=     -0.2716704575D+00
     alpha-beta  T2 =       0.4962549037D+00 E2=     -0.1490328643D+01
     beta-beta   T2 =       0.9152730030D-01 E2=     -0.2716704575D+00
 ANorm=    0.1295881748D+01
 E2 =    -0.2033669558D+01 EUMP2 =    -0.66331655809288D+03
          IDoAtm=111111111111111111111111111
          Differentiating once with respect to electric field.
                with respect to dipole field.
          Differentiating once with respect to nuclear coordinates.
 Keep R1 ints in memory in canonical form, NReq=397723379.
          There are     1 degrees of freedom in the 1st order CPHF.  IDoFFX=0 NUNeed=     1.
 LinEq1:  Iter=  0 NonCon=     1 RMS=4.60D-03 Max=1.16D-01 NDo=     1
 AX will form     1 AO Fock derivatives at one time.
 LinEq1:  Iter=  1 NonCon=     1 RMS=1.53D-03 Max=3.02D-02 NDo=     1
 LinEq1:  Iter=  2 NonCon=     1 RMS=6.40D-04 Max=1.79D-02 NDo=     1
 LinEq1:  Iter=  3 NonCon=     1 RMS=3.01D-04 Max=1.17D-02 NDo=     1
 LinEq1:  Iter=  4 NonCon=     1 RMS=9.44D-05 Max=2.32D-03 NDo=     1
 LinEq1:  Iter=  5 NonCon=     1 RMS=4.16D-05 Max=2.22D-03 NDo=     1
 LinEq1:  Iter=  6 NonCon=     1 RMS=1.57D-05 Max=4.73D-04 NDo=     1
 LinEq1:  Iter=  7 NonCon=     1 RMS=5.95D-06 Max=7.19D-05 NDo=     1
 LinEq1:  Iter=  8 NonCon=     1 RMS=2.24D-06 Max=4.77D-05 NDo=     1
 LinEq1:  Iter=  9 NonCon=     1 RMS=7.84D-07 Max=2.30D-05 NDo=     1
 LinEq1:  Iter= 10 NonCon=     1 RMS=3.87D-07 Max=1.60D-05 NDo=     1
 LinEq1:  Iter= 11 NonCon=     1 RMS=1.46D-07 Max=5.47D-06 NDo=     1
 LinEq1:  Iter= 12 NonCon=     1 RMS=5.26D-08 Max=8.57D-07 NDo=     1
 LinEq1:  Iter= 13 NonCon=     1 RMS=1.70D-08 Max=3.23D-07 NDo=     1
 LinEq1:  Iter= 14 NonCon=     1 RMS=5.82D-09 Max=1.30D-07 NDo=     1
 LinEq1:  Iter= 15 NonCon=     1 RMS=2.20D-09 Max=4.81D-08 NDo=     1
 LinEq1:  Iter= 16 NonCon=     1 RMS=8.49D-10 Max=1.69D-08 NDo=     1
 LinEq1:  Iter= 17 NonCon=     1 RMS=2.65D-10 Max=4.33D-09 NDo=     1
 LinEq1:  Iter= 18 NonCon=     1 RMS=8.71D-11 Max=1.44D-09 NDo=     1
 LinEq1:  Iter= 19 NonCon=     0 RMS=2.71D-11 Max=3.60D-10 NDo=     1
 Linear equations converged to 1.000D-10 1.000D-09 after    19 iterations.
 End of Minotr F.D. properties file   721 does not exist.
 End of Minotr F.D. properties file   722 does not exist.
 End of Minotr F.D. properties file   788 does not exist.

 **********************************************************************

            Population analysis using the SCF Density.

 **********************************************************************

 Alpha  occ. eigenvalues --  -20.58664 -20.58007 -15.84386 -15.63875 -15.57057
 Alpha  occ. eigenvalues --  -11.36498 -11.30476 -11.30328 -11.29297 -11.27841
 Alpha  occ. eigenvalues --  -11.24839 -11.24030 -11.23542 -11.22979  -1.58556
 Alpha  occ. eigenvalues --   -1.36979  -1.29007  -1.22930  -1.14639  -1.10290
 Alpha  occ. eigenvalues --   -1.02041  -1.01463  -0.94324  -0.89163  -0.85144
 Alpha  occ. eigenvalues --   -0.81689  -0.77951  -0.77175  -0.74589  -0.71433
 Alpha  occ. eigenvalues --   -0.70552  -0.69474  -0.67471  -0.64444  -0.63401
 Alpha  occ. eigenvalues --   -0.61769  -0.60371  -0.57622  -0.56611  -0.55051
 Alpha  occ. eigenvalues --   -0.53608  -0.50903  -0.49290  -0.48643  -0.47871
 Alpha  occ. eigenvalues --   -0.47004  -0.45942  -0.45820  -0.43392  -0.42147
 Alpha  occ. eigenvalues --   -0.40220  -0.34118
 Alpha virt. eigenvalues --    0.06292   0.11976   0.18246   0.21438   0.23563
 Alpha virt. eigenvalues --    0.24462   0.26325   0.27662   0.28470   0.28711
 Alpha virt. eigenvalues --    0.30108   0.31032   0.31731   0.32111   0.33252
 Alpha virt. eigenvalues --    0.33607   0.34859   0.37158   0.37962   0.39702
 Alpha virt. eigenvalues --    0.41434   0.42061   0.44117   0.45072   0.45656
 Alpha virt. eigenvalues --    0.45909   0.49501   0.53132   0.56763   0.58992
 Alpha virt. eigenvalues --    0.63730   0.68951   0.69338   0.72186   0.73970
 Alpha virt. eigenvalues --    0.75005   0.75677   0.77459   0.77780   0.79439
 Alpha virt. eigenvalues --    0.81272   0.84044   0.85267   0.85457   0.88064
 Alpha virt. eigenvalues --    0.88968   0.90119   0.90589   0.91947   0.94604
 Alpha virt. eigenvalues --    0.95510   0.97013   0.98542   1.00166   1.02156
 Alpha virt. eigenvalues --    1.02964   1.05115   1.05708   1.07062   1.08100
 Alpha virt. eigenvalues --    1.09640   1.10349   1.10909   1.12004   1.13137
 Alpha virt. eigenvalues --    1.13742   1.14071   1.15161   1.16248   1.17295
 Alpha virt. eigenvalues --    1.17670   1.19754   1.20917   1.22232   1.22846
 Alpha virt. eigenvalues --    1.23730   1.24937   1.26649   1.27728   1.28053
 Alpha virt. eigenvalues --    1.29483   1.31409   1.33027   1.34663   1.40744
 Alpha virt. eigenvalues --    1.43015   1.46256   1.47820   1.48679   1.53075
 Alpha virt. eigenvalues --    1.53703   1.54965   1.60987   1.61412   1.65197
 Alpha virt. eigenvalues --    1.69303   1.71933   1.72921   1.74374   1.77492
 Alpha virt. eigenvalues --    1.78566   1.82261   1.84724   1.89681   1.92651
 Alpha virt. eigenvalues --    1.94135   1.97505   1.98313   1.99439   2.02893
 Alpha virt. eigenvalues --    2.05029   2.06514   2.07601   2.09668   2.12544
 Alpha virt. eigenvalues --    2.13716   2.14161   2.17470   2.19136   2.19992
 Alpha virt. eigenvalues --    2.20927   2.22385   2.24733   2.26235   2.28763
 Alpha virt. eigenvalues --    2.29996   2.32192   2.33145   2.35458   2.35700
 Alpha virt. eigenvalues --    2.38055   2.40361   2.41243   2.44513   2.46662
 Alpha virt. eigenvalues --    2.49067   2.50497   2.51897   2.56740   2.57560
 Alpha virt. eigenvalues --    2.60864   2.63006   2.65822   2.68226   2.69742
 Alpha virt. eigenvalues --    2.70219   2.70402   2.74244   2.75967   2.83442
 Alpha virt. eigenvalues --    2.85202   2.87052   2.90668   2.92401   2.95335
 Alpha virt. eigenvalues --    2.97673   2.99090   3.01546   3.04499   3.05740
 Alpha virt. eigenvalues --    3.06771   3.12428   3.21041   3.24950   3.27116
 Alpha virt. eigenvalues --    3.30326   3.34691   3.38094   3.54532   3.60325
 Alpha virt. eigenvalues --    4.12935   4.30737   4.32661   4.38077   4.43216
 Alpha virt. eigenvalues --    4.53249   4.59791   4.60187   4.70795   4.77691
 Alpha virt. eigenvalues --    4.97731   4.99136   5.02830   5.10343
          Condensed to atoms (all electrons):
               1          2          3          4          5          6
     1  O    8.327531   0.322232  -0.096164  -0.089402   0.004227  -0.000015
     2  N    0.322232   5.694089   0.311583   0.254725  -0.046840   0.001149
     3  O   -0.096164   0.311583   8.367927  -0.097125   0.007088   0.000662
     4  C   -0.089402   0.254725  -0.097125   5.273499   0.549247  -0.047731
     5  C    0.004227  -0.046840   0.007088   0.549247   4.676316   0.307781
     6  N   -0.000015   0.001149   0.000662  -0.047731   0.307781   7.197180
     7  C    0.000004  -0.000103   0.000001   0.003878  -0.028696   0.191833
     8  H   -0.000000   0.000003  -0.000000  -0.000162   0.001980  -0.050755
     9  C   -0.000000  -0.000005   0.000000   0.000374   0.001782  -0.054642
    10  C   -0.000000   0.000000  -0.000000  -0.000015  -0.000065   0.003275
    11  C   -0.000000  -0.000000  -0.000000  -0.000016   0.000015  -0.000155
    12  C   -0.000000   0.000003  -0.000000  -0.000076  -0.000120   0.003625
    13  C   -0.000027  -0.000106  -0.000003  -0.011184   0.000369  -0.043447
    14  H   -0.000005  -0.000094   0.000001   0.003033   0.005088  -0.005602
    15  N    0.000133   0.002349  -0.000020  -0.060449  -0.003437   0.001587
    16  C    0.002531  -0.030310   0.002207   0.315253  -0.039027  -0.001781
    17  H    0.000115  -0.003421   0.012043  -0.027796   0.377577  -0.035158
    18  H    0.000000  -0.000038   0.000008   0.000807  -0.023717   0.327210
    19  H    0.000000   0.000001   0.000000  -0.000640   0.000561   0.000667
    20  H    0.000000  -0.000000   0.000000  -0.000020   0.000030  -0.001976
    21  H   -0.000000  -0.000000   0.000000   0.000000   0.000001  -0.000057
    22  H   -0.000000   0.000000  -0.000000  -0.000000  -0.000002  -0.000098
    23  H   -0.000000  -0.000000   0.000000   0.000024  -0.000000  -0.000024
    24  H   -0.000000   0.000000   0.000000   0.000000  -0.000000   0.000004
    25  H    0.000000  -0.000000   0.000000   0.000018  -0.000001  -0.000071
    26  H   -0.000000  -0.000000   0.000000   0.000007  -0.000001  -0.000068
    27  H    0.005163  -0.000437  -0.000026  -0.065330   0.002282   0.000068
               7          8          9         10         11         12
     1  O    0.000004  -0.000000  -0.000000  -0.000000  -0.000000  -0.000000
     2  N   -0.000103   0.000003  -0.000005   0.000000  -0.000000   0.000003
     3  O    0.000001  -0.000000   0.000000  -0.000000  -0.000000  -0.000000
     4  C    0.003878  -0.000162   0.000374  -0.000015  -0.000016  -0.000076
     5  C   -0.028696   0.001980   0.001782  -0.000065   0.000015  -0.000120
     6  N    0.191833  -0.050755  -0.054642   0.003275  -0.000155   0.003625
     7  C    5.003952   0.417813   0.339338  -0.049120  -0.007762  -0.063687
     8  H    0.417813   0.546431  -0.060477   0.001608  -0.000372  -0.002732
     9  C    0.339338  -0.060477   5.181890   0.317884  -0.053010  -0.006438
    10  C   -0.049120   0.001608   0.317884   5.126324   0.332682  -0.060052
    11  C   -0.007762  -0.000372  -0.053010   0.332682   5.123870   0.330733
    12  C   -0.063687  -0.002732  -0.006438  -0.060052   0.330733   5.135887
    13  C    0.334267  -0.041467  -0.048878  -0.001983  -0.047831   0.368359
    14  H   -0.040194  -0.000963   0.003882  -0.000395   0.003945  -0.040565
    15  N   -0.057370   0.004088  -0.012981   0.001422  -0.007654  -0.074027
    16  C   -0.002827   0.000064  -0.001106  -0.000016   0.000004   0.002526
    17  H    0.001464  -0.000012  -0.000064   0.000001   0.000000   0.000001
    18  H   -0.028030  -0.002527   0.000944  -0.000127   0.000012  -0.000134
    19  H   -0.034914   0.004103   0.385728  -0.032269  -0.002280   0.000641
    20  H   -0.041737  -0.001913   0.397319  -0.037322   0.004138  -0.000360
    21  H    0.004033  -0.000079  -0.035836   0.400300  -0.035769   0.004197
    22  H   -0.004176   0.003493  -0.045751   0.396047  -0.045618  -0.001214
    23  H    0.000419   0.000034  -0.002016  -0.040073   0.396711  -0.036622
    24  H   -0.000135  -0.000098   0.004398  -0.038443   0.400365  -0.037800
    25  H    0.004954  -0.000006  -0.000362   0.004089  -0.033903   0.395627
    26  H   -0.004443   0.001665   0.001024  -0.002387  -0.042359   0.394760
    27  H   -0.000413   0.000009  -0.000062   0.000006   0.000004  -0.000019
              13         14         15         16         17         18
     1  O   -0.000027  -0.000005   0.000133   0.002531   0.000115   0.000000
     2  N   -0.000106  -0.000094   0.002349  -0.030310  -0.003421  -0.000038
     3  O   -0.000003   0.000001  -0.000020   0.002207   0.012043   0.000008
     4  C   -0.011184   0.003033  -0.060449   0.315253  -0.027796   0.000807
     5  C    0.000369   0.005088  -0.003437  -0.039027   0.377577  -0.023717
     6  N   -0.043447  -0.005602   0.001587  -0.001781  -0.035158   0.327210
     7  C    0.334267  -0.040194  -0.057370  -0.002827   0.001464  -0.028030
     8  H   -0.041467  -0.000963   0.004088   0.000064  -0.000012  -0.002527
     9  C   -0.048878   0.003882  -0.012981  -0.001106  -0.000064   0.000944
    10  C   -0.001983  -0.000395   0.001422  -0.000016   0.000001  -0.000127
    11  C   -0.047831   0.003945  -0.007654   0.000004   0.000000   0.000012
    12  C    0.368359  -0.040565  -0.074027   0.002526   0.000001  -0.000134
    13  C    5.030037   0.401338   0.236082  -0.070379  -0.000042   0.003646
    14  H    0.401338   0.520456  -0.035959  -0.004452   0.000081   0.000010
    15  N    0.236082  -0.035959   6.934317   0.584652  -0.000066  -0.000129
    16  C   -0.070379  -0.004452   0.584652   4.706350   0.001681  -0.000221
    17  H   -0.000042   0.000081  -0.000066   0.001681   0.382703  -0.001822
    18  H    0.003646   0.000010  -0.000129  -0.000221  -0.001822   0.320902
    19  H   -0.006413   0.000065   0.007037   0.002669   0.000011  -0.000138
    20  H    0.003846  -0.000048   0.000077  -0.000030  -0.000001   0.003019
    21  H   -0.000366   0.000009  -0.000026   0.000002  -0.000000  -0.000000
    22  H    0.000315  -0.000045   0.000000  -0.000001   0.000000   0.000002
    23  H   -0.005828   0.000007   0.006722   0.000060   0.000000   0.000000
    24  H    0.004129  -0.000057   0.000048   0.000005   0.000000  -0.000000
    25  H   -0.034449  -0.002646   0.000631  -0.000063  -0.000000   0.000002
    26  H   -0.044938  -0.000922   0.004199  -0.000060   0.000000  -0.000000
    27  H    0.005006  -0.000185  -0.040345   0.402130  -0.000055   0.000002
              19         20         21         22         23         24
     1  O    0.000000   0.000000  -0.000000  -0.000000  -0.000000  -0.000000
     2  N    0.000001  -0.000000  -0.000000   0.000000  -0.000000   0.000000
     3  O    0.000000   0.000000   0.000000  -0.000000   0.000000   0.000000
     4  C   -0.000640  -0.000020   0.000000  -0.000000   0.000024   0.000000
     5  C    0.000561   0.000030   0.000001  -0.000002  -0.000000  -0.000000
     6  N    0.000667  -0.001976  -0.000057  -0.000098  -0.000024   0.000004
     7  C   -0.034914  -0.041737   0.004033  -0.004176   0.000419  -0.000135
     8  H    0.004103  -0.001913  -0.000079   0.003493   0.000034  -0.000098
     9  C    0.385728   0.397319  -0.035836  -0.045751  -0.002016   0.004398
    10  C   -0.032269  -0.037322   0.400300   0.396047  -0.040073  -0.038443
    11  C   -0.002280   0.004138  -0.035769  -0.045618   0.396711   0.400365
    12  C    0.000641  -0.000360   0.004197  -0.001214  -0.036622  -0.037800
    13  C   -0.006413   0.003846  -0.000366   0.000315  -0.005828   0.004129
    14  H    0.000065  -0.000048   0.000009  -0.000045   0.000007  -0.000057
    15  N    0.007037   0.000077  -0.000026   0.000000   0.006722   0.000048
    16  C    0.002669  -0.000030   0.000002  -0.000001   0.000060   0.000005
    17  H    0.000011  -0.000001  -0.000000   0.000000   0.000000   0.000000
    18  H   -0.000138   0.003019  -0.000000   0.000002   0.000000  -0.000000
    19  H    0.505294  -0.024073  -0.002584   0.003739   0.001633  -0.000069
    20  H   -0.024073   0.550152  -0.002595  -0.002975  -0.000049  -0.000090
    21  H   -0.002584  -0.002595   0.524895  -0.024600  -0.002807  -0.002046
    22  H    0.003739  -0.002975  -0.024600   0.568227   0.004056  -0.003594
    23  H    0.001633  -0.000049  -0.002807   0.004056   0.509095  -0.024910
    24  H   -0.000069  -0.000090  -0.002046  -0.003594  -0.024910   0.540029
    25  H   -0.000027   0.000011  -0.000085  -0.000082  -0.002102  -0.002365
    26  H    0.000023  -0.000035  -0.000075   0.002470   0.003821  -0.002776
    27  H    0.000075  -0.000000  -0.000000   0.000000  -0.000022  -0.000000
              25         26         27
     1  O    0.000000  -0.000000   0.005163
     2  N   -0.000000  -0.000000  -0.000437
     3  O    0.000000   0.000000  -0.000026
     4  C    0.000018   0.000007  -0.065330
     5  C   -0.000001  -0.000001   0.002282
     6  N   -0.000071  -0.000068   0.000068
     7  C    0.004954  -0.004443  -0.000413
     8  H   -0.000006   0.001665   0.000009
     9  C   -0.000362   0.001024  -0.000062
    10  C    0.004089  -0.002387   0.000006
    11  C   -0.033903  -0.042359   0.000004
    12  C    0.395627   0.394760  -0.000019
    13  C   -0.034449  -0.044938   0.005006
    14  H   -0.002646  -0.000922  -0.000185
    15  N    0.000631   0.004199  -0.040345
    16  C   -0.000063  -0.000060   0.402130
    17  H   -0.000000   0.000000  -0.000055
    18  H    0.000002  -0.000000   0.000002
    19  H   -0.000027   0.000023   0.000075
    20  H    0.000011  -0.000035  -0.000000
    21  H   -0.000085  -0.000075  -0.000000
    22  H   -0.000082   0.002470   0.000000
    23  H   -0.002102   0.003821  -0.000022
    24  H   -0.002365  -0.002776  -0.000000
    25  H    0.509377  -0.022987  -0.000009
    26  H   -0.022987   0.560579   0.000001
    27  H   -0.000009   0.000001   0.453223
 Mulliken charges:
               1
     1  O   -0.476322
     2  N    0.495220
     3  O   -0.508182
     4  C   -0.000921
     5  C    0.207562
     6  N   -0.793460
     7  C    0.061652
     8  H    0.180271
     9  C   -0.312935
    10  C   -0.321370
    11  C   -0.315751
    12  C   -0.312513
    13  C   -0.030055
    14  H    0.194219
    15  N   -0.490881
    16  C    0.130140
    17  H    0.292763
    18  H    0.400316
    19  H    0.191161
    20  H    0.154632
    21  H    0.173487
    22  H    0.149806
    23  H    0.191869
    24  H    0.163404
    25  H    0.184449
    26  H    0.152503
    27  H    0.238936
 Sum of Mulliken charges =  -0.00000
 Mulliken charges with hydrogens summed into heavy atoms:
               1
     1  O   -0.476322
     2  N    0.495220
     3  O   -0.508182
     4  C   -0.000921
     5  C    0.500325
     6  N   -0.393145
     7  C    0.241923
     9  C    0.032858
    10  C    0.001923
    11  C    0.039522
    12  C    0.024440
    13  C    0.164164
    15  N   -0.490881
    16  C    0.369076
 Electronic spatial extent (au):  <R**2>=           3067.9358
 Charge=             -0.0000 electrons
 Dipole moment (field-independent basis, Debye):
    X=              5.7700    Y=              4.7192    Z=              0.4390  Tot=              7.4670
 Quadrupole moment (field-independent basis, Debye-Ang):
   XX=           -106.6947   YY=            -80.1491   ZZ=            -81.8433
   XY=             -2.4007   XZ=              1.2216   YZ=              0.0795
 Traceless Quadrupole moment (field-independent basis, Debye-Ang):
   XX=            -17.1323   YY=              9.4133   ZZ=              7.7191
   XY=             -2.4007   XZ=              1.2216   YZ=              0.0795
 Octapole moment (field-independent basis, Debye-Ang**2):
  XXX=            104.1015  YYY=             37.8036  ZZZ=             -6.2803  XYY=             -1.5190
  XXY=             12.6603  XXZ=             -2.9762  XZZ=             -9.3231  YZZ=             -2.7086
  YYZ=             -0.1936  XYZ=             -2.3429
 Hexadecapole moment (field-independent basis, Debye-Ang**3):
 XXXX=          -3497.9820 YYYY=           -616.3295 ZZZZ=           -297.8069 XXXY=            -44.2408
 XXXZ=             47.3405 YYYX=            -24.0815 YYYZ=             11.0966 ZZZX=             33.1811
 ZZZY=             11.0017 XXYY=           -644.8372 XXZZ=           -532.0580 YYZZ=           -163.0428
 XXYZ=              4.8404 YYXZ=             14.7357 ZZXY=              2.2631
 N-N= 9.239465406706D+02 E-N=-3.394071273074D+03  KE= 6.591107279157D+02
 Calling FoFJK, ICntrl=  10002127 FMM=F ISym2X=0 I1Cent= 0 IOpClX= 0 NMat=1 NMatS=1 NMatT=0.
 -------------------------------------------------------------------
 Center     Atomic                   Forces (Hartrees/Bohr)
 Number     Number              X              Y              Z
 -------------------------------------------------------------------
      1        8           0.001871075   -0.027712613   -0.001654610
      2        7          -0.025370117    0.003393796   -0.006802226
      3        8          -0.010395750    0.020985162    0.007177325
      4        6           0.066983689    0.024589838    0.010503360
      5        6           0.005583987   -0.014729067   -0.006221075
      6        7           0.012049884   -0.014377397   -0.007231458
      7        6          -0.003398360    0.004480695    0.002870070
      8        1          -0.009874278   -0.001805383   -0.007746637
      9        6          -0.004136403    0.000230524   -0.002356805
     10        6           0.002889567   -0.000837729    0.001184849
     11        6          -0.001301667   -0.004676086   -0.002538983
     12        6           0.001011865   -0.008564970   -0.002567717
     13        6           0.009504083   -0.002870744    0.006506611
     14        1           0.001071016    0.004761822   -0.009580408
     15        7          -0.003102829    0.004427665   -0.002051419
     16        6          -0.017934920    0.004249085    0.005204495
     17        1           0.006354224   -0.006376467   -0.008458379
     18        1          -0.017601797   -0.000777003    0.008030817
     19        1           0.003053527    0.005952711    0.007787544
     20        1          -0.003260043   -0.007244450    0.002536980
     21        1          -0.004557506    0.002439525    0.009560625
     22        1          -0.003876953   -0.003978048   -0.007487052
     23        1           0.003954075    0.006147642    0.009324691
     24        1          -0.009373522    0.002676467   -0.002243377
     25        1          -0.000693966    0.010596680   -0.002384094
     26        1          -0.004731661   -0.004830451   -0.004408642
     27        1           0.005282780    0.003848798    0.003045515
 -------------------------------------------------------------------
 Cartesian Forces:  Max     0.066983689 RMS     0.011305810

 GradGradGradGradGradGradGradGradGradGradGradGradGradGradGradGradGradGrad
 Berny optimization.
 FormGI is forming the generalized inverse of G from B-inverse, IUseBI=4.
 Internal  Forces:  Max     0.036128380 RMS     0.007167031
 Search for a local minimum.
 Step number   1 out of a maximum of   20
 All quantities printed in internal units (Hartrees-Bohrs-Radians)
 Mixed Optimization -- RFO/linear search
 Second derivative matrix not updated -- first step.
 ITU=  0
     Eigenvalues ---    0.00770   0.01108   0.01181   0.01306   0.01524
     Eigenvalues ---    0.01596   0.01688   0.01788   0.01903   0.02006
     Eigenvalues ---    0.02025   0.02698   0.03665   0.04505   0.04693
     Eigenvalues ---    0.04839   0.05089   0.05137   0.05306   0.05910
     Eigenvalues ---    0.06263   0.07217   0.07702   0.07732   0.07884
     Eigenvalues ---    0.07991   0.08051   0.08071   0.10459   0.11741
     Eigenvalues ---    0.12268   0.13553   0.15307   0.15810   0.15992
     Eigenvalues ---    0.16001   0.20081   0.21846   0.23017   0.24997
     Eigenvalues ---    0.25000   0.25000   0.25397   0.26234   0.26649
     Eigenvalues ---    0.27974   0.28086   0.28497   0.31128   0.31443
     Eigenvalues ---    0.32042   0.32236   0.32290   0.32380   0.32389
     Eigenvalues ---    0.32408   0.32516   0.32527   0.32578   0.32751
     Eigenvalues ---    0.33361   0.33580   0.35474   0.42972   0.43895
     Eigenvalues ---    0.48854   0.66689   0.89080   0.899551000.00000
     Eigenvalues --- 1000.000001000.000001000.000001000.000001000.00000
     Eigenvalues --- 1000.000001000.000001000.000001000.000001000.00000
     Eigenvalues --- 1000.000001000.000001000.000001000.000001000.00000
     Eigenvalues --- 1000.000001000.000001000.000001000.000001000.00000
     Eigenvalues --- 1000.000001000.000001000.000001000.000001000.00000
     Eigenvalues --- 1000.000001000.000001000.000001000.000001000.00000
     Eigenvalues --- 1000.000001000.000001000.000001000.000001000.00000
     Eigenvalues --- 1000.000001000.000001000.000001000.000001000.00000
     Eigenvalues --- 1000.000001000.000001000.000001000.000001000.00000
     Eigenvalues --- 1000.000001000.000001000.000001000.000001000.00000
     Eigenvalues --- 1000.000001000.000001000.000001000.000001000.00000
     Eigenvalues --- 1000.000001000.000001000.000001000.000001000.00000
     Eigenvalues --- 1000.000001000.000001000.000001000.000001000.00000
     Eigenvalues --- 1000.000001000.000001000.000001000.000001000.00000
     Eigenvalues --- 1000.000001000.000001000.000001000.000001000.00000
     Eigenvalues --- 1000.000001000.000001000.000001000.000001000.00000
     Eigenvalues --- 1000.000001000.000001000.000001000.000001000.00000
     Eigenvalues --- 1000.000001000.000001000.000001000.000001000.00000
     Eigenvalues --- 1000.00000
 RFO step:  Lambda=-2.20415517D-02 EMin= 7.69528352D-03
 Linear search not attempted -- first point.
 Iteration  1 RMS(Cart)=  0.04751167 RMS(Int)=  0.00128097
 Iteration  2 RMS(Cart)=  0.00131073 RMS(Int)=  0.00030587
 Iteration  3 RMS(Cart)=  0.00000188 RMS(Int)=  0.00030587
 Iteration  4 RMS(Cart)=  0.00000000 RMS(Int)=  0.00030587
 Iteration  1 RMS(Cart)=  0.00002092 RMS(Int)=  0.00001405
 Iteration  2 RMS(Cart)=  0.00001178 RMS(Int)=  0.00001556
 Iteration  3 RMS(Cart)=  0.00000693 RMS(Int)=  0.00001753
 Iteration  4 RMS(Cart)=  0.00000430 RMS(Int)=  0.00001899
 Iteration  5 RMS(Cart)=  0.00000286 RMS(Int)=  0.00002000
 Iteration  6 RMS(Cart)=  0.00000206 RMS(Int)=  0.00002072
 Iteration  7 RMS(Cart)=  0.00000159 RMS(Int)=  0.00002125
 Iteration  8 RMS(Cart)=  0.00000130 RMS(Int)=  0.00002165
 Iteration  9 RMS(Cart)=  0.00000109 RMS(Int)=  0.00002197
 Iteration 10 RMS(Cart)=  0.00000092 RMS(Int)=  0.00002223
 Variable       Old X    -DE/DX   Delta X   Delta X   Delta X     New X
                                 (Linear)    (Quad)   (Total)
    R1        2.32954   0.02593   0.00000   0.02813   0.02813   2.35767
    R2        2.33360   0.02330   0.00000   0.02552   0.02552   2.35912
    R3        2.63379   0.03371   0.00000   0.00000   0.00000   2.63379
    R4        2.66082  -0.03613   0.00000  -0.08068  -0.08045   2.58037
    R5        2.83025  -0.02114   0.00000  -0.06243  -0.06221   2.76804
    R6        2.59225  -0.02676   0.00000  -0.05252  -0.05244   2.53981
    R7        2.08422  -0.01084   0.00000  -0.03049  -0.03049   2.05373
    R8        2.82275  -0.01879   0.00000  -0.05274  -0.05282   2.76992
    R9        1.93281  -0.00627   0.00000  -0.01359  -0.01359   1.91921
   R10        2.11875  -0.01183   0.00000  -0.03515  -0.03515   2.08360
   R11        2.92727  -0.01317   0.00000  -0.04535  -0.04538   2.88188
   R12        2.90013  -0.00551   0.00000  -0.01176  -0.01175   2.88838
   R13        2.91128  -0.00467   0.00000  -0.01445  -0.01449   2.89680
   R14        2.09909  -0.01005   0.00000  -0.02895  -0.02895   2.07014
   R15        2.09891  -0.00793   0.00000  -0.02283  -0.02283   2.07608
   R16        2.90429  -0.00179   0.00000  -0.00701  -0.00706   2.89723
   R17        2.10137  -0.01061   0.00000  -0.03068  -0.03068   2.07069
   R18        2.10317  -0.00903   0.00000  -0.02617  -0.02617   2.07701
   R19        2.91797  -0.00898   0.00000  -0.02838  -0.02835   2.88962
   R20        2.10414  -0.01170   0.00000  -0.03399  -0.03399   2.07016
   R21        2.10104  -0.00998   0.00000  -0.02884  -0.02884   2.07220
   R22        2.93543  -0.01055   0.00000  -0.03667  -0.03664   2.89878
   R23        2.10154  -0.01072   0.00000  -0.03100  -0.03100   2.07053
   R24        2.09799  -0.00786   0.00000  -0.02259  -0.02259   2.07540
   R25        2.10766  -0.00897   0.00000  -0.02619  -0.02619   2.08147
   R26        2.76525  -0.00497   0.00000  -0.01025  -0.01058   2.75467
   R27        2.44398  -0.00881   0.00000  -0.01192  -0.01197   2.43201
   R28        2.08045  -0.00671   0.00000  -0.01876  -0.01876   2.06169
    A1        2.12452   0.01245   0.00000   0.04715   0.04580   2.17032
    A2        2.06979  -0.01020   0.00000  -0.03612  -0.03746   2.03233
    A3        2.08696  -0.00188   0.00000  -0.00552  -0.00686   2.08010
    A4        2.05537  -0.00488   0.00000  -0.01613  -0.01635   2.03901
    A5        2.05018  -0.00475   0.00000  -0.01564  -0.01588   2.03430
    A6        2.17753   0.00961   0.00000   0.03153   0.03186   2.20938
    A7        2.21024   0.00554   0.00000   0.01695   0.01712   2.22735
    A8        2.06634  -0.00393   0.00000  -0.01454  -0.01478   2.05156
    A9        2.00588  -0.00157   0.00000  -0.00145  -0.00170   2.00418
   A10        2.25278  -0.00408   0.00000  -0.01318  -0.01335   2.23944
   A11        2.11930  -0.01340   0.00000  -0.07609  -0.07653   2.04277
   A12        1.87829   0.01778   0.00000   0.09748   0.09763   1.97592
   A13        1.83798  -0.00110   0.00000  -0.01840  -0.01818   1.81980
   A14        2.00796  -0.00155   0.00000  -0.01246  -0.01248   1.99548
   A15        1.96466   0.00071   0.00000   0.00197   0.00155   1.96621
   A16        1.85111   0.00256   0.00000   0.02479   0.02462   1.87573
   A17        1.84895   0.00060   0.00000   0.01511   0.01489   1.86384
   A18        1.93901  -0.00089   0.00000  -0.00727  -0.00694   1.93208
   A19        1.91023  -0.00015   0.00000  -0.00567  -0.00583   1.90439
   A20        1.92288  -0.00071   0.00000  -0.01277  -0.01273   1.91015
   A21        1.92276  -0.00148   0.00000  -0.00698  -0.00695   1.91581
   A22        1.91930  -0.00029   0.00000   0.00664   0.00661   1.92591
   A23        1.90422   0.00310   0.00000   0.02422   0.02422   1.92845
   A24        1.88425  -0.00043   0.00000  -0.00499  -0.00526   1.87900
   A25        1.94018  -0.00095   0.00000   0.00601   0.00590   1.94607
   A26        1.91903  -0.00079   0.00000  -0.00724  -0.00726   1.91177
   A27        1.90501   0.00042   0.00000  -0.00303  -0.00310   1.90190
   A28        1.91620   0.00091   0.00000   0.00746   0.00751   1.92371
   A29        1.89849   0.00166   0.00000   0.01122   0.01125   1.90974
   A30        1.88390  -0.00123   0.00000  -0.01491  -0.01500   1.86891
   A31        1.94478   0.00064   0.00000   0.00510   0.00522   1.95000
   A32        1.90220   0.00056   0.00000   0.00551   0.00548   1.90767
   A33        1.91774   0.00042   0.00000   0.00565   0.00561   1.92336
   A34        1.90604  -0.00098   0.00000  -0.01383  -0.01387   1.89217
   A35        1.91549  -0.00059   0.00000  -0.00004  -0.00013   1.91536
   A36        1.87622  -0.00007   0.00000  -0.00278  -0.00282   1.87340
   A37        1.94951  -0.00302   0.00000  -0.01750  -0.01752   1.93200
   A38        1.90580   0.00256   0.00000   0.01741   0.01727   1.92307
   A39        1.91019   0.00142   0.00000   0.01297   0.01293   1.92312
   A40        1.90584   0.00023   0.00000  -0.00277  -0.00262   1.90321
   A41        1.91065  -0.00021   0.00000  -0.00540  -0.00534   1.90531
   A42        1.88055  -0.00090   0.00000  -0.00425  -0.00444   1.87610
   A43        1.84737   0.00448   0.00000   0.02459   0.02462   1.87199
   A44        1.94181  -0.00404   0.00000  -0.03205  -0.03251   1.90929
   A45        1.97683  -0.00016   0.00000   0.00548   0.00566   1.98249
   A46        1.87977   0.00206   0.00000   0.03094   0.03128   1.91105
   A47        1.89263  -0.00290   0.00000  -0.02566  -0.02566   1.86697
   A48        1.92090   0.00083   0.00000  -0.00073  -0.00073   1.92017
   A49        2.07886  -0.00574   0.00000  -0.01153  -0.01201   2.06685
   A50        2.25806  -0.00415   0.00000  -0.01600  -0.01609   2.24197
   A51        1.97879   0.00456   0.00000   0.02191   0.02149   2.00028
   A52        2.04605  -0.00035   0.00000  -0.00488  -0.00530   2.04075
    D1       -3.01283   0.00167   0.00000  -0.01612  -0.01591  -3.02874
    D2        0.14414   0.00330   0.00000   0.00000  -0.00000   0.14414
    D3        0.19412  -0.00495   0.00000  -0.11165  -0.11152   0.08260
    D4       -2.93209  -0.00332   0.00000  -0.09552  -0.09561  -3.02771
    D5        3.07055   0.00026   0.00000  -0.00311  -0.00318   3.06738
    D6       -0.02782  -0.00098   0.00000  -0.03140  -0.03149  -0.05931
    D7       -0.08765  -0.00165   0.00000  -0.02102  -0.02142  -0.10907
    D8        3.09716  -0.00290   0.00000  -0.04931  -0.04973   3.04743
    D9       -2.60951  -0.00215   0.00000  -0.03662  -0.03698  -2.64649
   D10        0.50541   0.00045   0.00000   0.01148   0.01138   0.51678
   D11        0.54865  -0.00024   0.00000  -0.01875  -0.01877   0.52988
   D12       -2.61962   0.00236   0.00000   0.02935   0.02958  -2.59004
   D13       -0.21862   0.00034   0.00000   0.03504   0.03537  -0.18325
   D14        2.61534   0.00444   0.00000   0.08758   0.08630   2.70164
   D15        2.88104   0.00149   0.00000   0.06218   0.06273   2.94377
   D16       -0.56818   0.00559   0.00000   0.11473   0.11366  -0.45452
   D17       -2.41470  -0.00080   0.00000  -0.02890  -0.02842  -2.44312
   D18        1.83704  -0.00239   0.00000  -0.04054  -0.04011   1.79693
   D19       -0.40821  -0.00038   0.00000  -0.02071  -0.02060  -0.42881
   D20        1.00142  -0.00054   0.00000  -0.05367  -0.05435   0.94708
   D21       -1.03002  -0.00212   0.00000  -0.06531  -0.06604  -1.09606
   D22        3.00791  -0.00011   0.00000  -0.04548  -0.04653   2.96138
   D23        2.94603   0.00253   0.00000   0.02357   0.02347   2.96949
   D24       -1.22472   0.00163   0.00000   0.02009   0.02000  -1.20472
   D25        0.85230  -0.00027   0.00000   0.00161   0.00161   0.85390
   D26        0.92208   0.00305   0.00000   0.03671   0.03669   0.95877
   D27        3.03452   0.00214   0.00000   0.03322   0.03323   3.06775
   D28       -1.17165   0.00024   0.00000   0.01475   0.01483  -1.15682
   D29       -1.07922   0.00135   0.00000   0.00867   0.00863  -1.07059
   D30        1.03321   0.00045   0.00000   0.00518   0.00517   1.03838
   D31        3.11023  -0.00145   0.00000  -0.01329  -0.01323   3.09700
   D32       -2.90243  -0.00137   0.00000  -0.01247  -0.01229  -2.91472
   D33       -0.86532   0.00160   0.00000   0.02210   0.02188  -0.84345
   D34        1.30938  -0.00063   0.00000   0.00000  -0.00001   1.30937
   D35       -0.90259  -0.00197   0.00000  -0.02457  -0.02450  -0.92708
   D36        1.13452   0.00100   0.00000   0.01000   0.00966   1.14419
   D37       -2.97396  -0.00123   0.00000  -0.01210  -0.01222  -2.98618
   D38        1.10006   0.00095   0.00000   0.00950   0.00957   1.10964
   D39        3.13717   0.00391   0.00000   0.04407   0.04373  -3.10228
   D40       -0.97131   0.00169   0.00000   0.02197   0.02185  -0.94946
   D41        0.95665   0.00053   0.00000   0.00000   0.00001   0.95666
   D42        3.08228   0.00050   0.00000   0.00850   0.00846   3.09074
   D43       -1.13749  -0.00121   0.00000  -0.01571  -0.01568  -1.15317
   D44       -1.15795   0.00168   0.00000   0.01522   0.01530  -1.14265
   D45        0.96767   0.00166   0.00000   0.02372   0.02375   0.99142
   D46        3.03109  -0.00006   0.00000  -0.00049  -0.00039   3.03070
   D47        3.06171   0.00053   0.00000   0.00289   0.00284   3.06454
   D48       -1.09585   0.00050   0.00000   0.01139   0.01129  -1.08457
   D49        0.96756  -0.00122   0.00000  -0.01282  -0.01285   0.95471
   D50       -0.92193  -0.00099   0.00000   0.00000   0.00001  -0.92192
   D51        1.18266  -0.00145   0.00000  -0.01037  -0.01038   1.17228
   D52       -3.04885  -0.00096   0.00000  -0.00724  -0.00727  -3.05612
   D53       -3.04920   0.00002   0.00000   0.00008   0.00009  -3.04910
   D54       -0.94461  -0.00044   0.00000  -0.01030  -0.01029  -0.95490
   D55        1.10707   0.00005   0.00000  -0.00717  -0.00719   1.09988
   D56        1.17609   0.00001   0.00000   0.00721   0.00724   1.18333
   D57       -3.00251  -0.00044   0.00000  -0.00316  -0.00314  -3.00565
   D58       -0.95083   0.00004   0.00000  -0.00003  -0.00004  -0.95087
   D59        0.98595  -0.00085   0.00000  -0.01402  -0.01403   0.97191
   D60        3.09570  -0.00079   0.00000  -0.01705  -0.01718   3.07852
   D61       -1.13283   0.00043   0.00000  -0.00456  -0.00452  -1.13735
   D62       -1.11639  -0.00130   0.00000  -0.01500  -0.01498  -1.13137
   D63        0.99337  -0.00124   0.00000  -0.01804  -0.01813   0.97523
   D64        3.04802  -0.00002   0.00000  -0.00555  -0.00547   3.04255
   D65        3.11417  -0.00029   0.00000  -0.00349  -0.00348   3.11069
   D66       -1.05926  -0.00023   0.00000  -0.00653  -0.00663  -1.06589
   D67        0.99539   0.00099   0.00000   0.00597   0.00603   1.00143
   D68       -1.04855   0.00035   0.00000   0.00301   0.00310  -1.04545
   D69       -3.12710   0.00167   0.00000   0.01190   0.01152  -3.11558
   D70        1.07782   0.00113   0.00000   0.00961   0.00954   1.08736
   D71        3.12490  -0.00107   0.00000  -0.00569  -0.00553   3.11937
   D72        1.04635   0.00026   0.00000   0.00319   0.00289   1.04924
   D73       -1.03191  -0.00028   0.00000   0.00090   0.00091  -1.03100
   D74        1.06996   0.00001   0.00000   0.00419   0.00439   1.07435
   D75       -1.00859   0.00133   0.00000   0.01307   0.01281  -0.99578
   D76       -3.08685   0.00080   0.00000   0.01078   0.01082  -3.07603
   D77       -1.17216   0.00325   0.00000   0.00000  -0.00001  -1.17217
   D78        3.06599  -0.00032   0.00000  -0.01698  -0.01697   3.04903
   D79        1.01383  -0.00157   0.00000  -0.03884  -0.03914   0.97469
   D80        0.07230   0.00327   0.00000   0.03079   0.03057   0.10287
   D81       -3.04176   0.00053   0.00000  -0.01920  -0.01907  -3.06083
         Item               Value     Threshold  Converged?
 Maximum Force            0.035776     0.000450     NO 
 RMS     Force            0.006754     0.000300     NO 
 Maximum Displacement     0.191527     0.001800     NO 
 RMS     Displacement     0.047716     0.001200     NO 
 Predicted change in Energy=-1.258418D-02
 GradGradGradGradGradGradGradGradGradGradGradGradGradGradGradGradGradGrad

                          Input orientation:                          
 ---------------------------------------------------------------------
 Center     Atomic      Atomic             Coordinates (Angstroms)
 Number     Number       Type             X           Y           Z
 ---------------------------------------------------------------------
      1          8           0       -3.416918   -1.457696   -0.143062
      2          7           0       -3.080571   -0.266843    0.016013
      3          8           0       -3.877198    0.664299    0.254430
      4          6           0       -1.715179    0.005981   -0.045511
      5          6           0       -1.326579    1.278480    0.261505
      6          7           0       -0.072875    1.754935    0.348554
      7          6           0        1.186460    1.004880    0.346162
      8          1           0        1.808770    1.516336    1.099057
      9          6           0        1.941428    1.048712   -0.978153
     10          6           0        3.336993    0.446064   -0.780532
     11          6           0        3.260602   -0.966024   -0.188321
     12          6           0        2.415904   -1.000535    1.085846
     13          6           0        1.013675   -0.437287    0.822080
     14          1           0        0.431885   -0.446604    1.757312
     15          7           0        0.385025   -1.306040   -0.165332
     16          6           0       -0.846347   -1.093103   -0.472993
     17          1           0       -2.106535    2.004086    0.476600
     18          1           0        0.054173    2.750975    0.196196
     19          1           0        1.385625    0.482727   -1.733664
     20          1           0        2.017051    2.087203   -1.328546
     21          1           0        3.866795    0.426424   -1.739497
     22          1           0        3.913962    1.094435   -0.106178
     23          1           0        2.808190   -1.642315   -0.921827
     24          1           0        4.268297   -1.342175    0.025011
     25          1           0        2.324996   -2.029425    1.451406
     26          1           0        2.898541   -0.410675    1.876600
     27          1           0       -1.315160   -1.803825   -1.155174
 ---------------------------------------------------------------------
                    Distance matrix (angstroms):
                    1          2          3          4          5
     1  O    0.000000
     2  N    1.247624   0.000000
     3  O    2.207424   1.248392   0.000000
     4  C    2.246728   1.393741   2.279841   0.000000
     5  C    3.466966   2.350484   2.623533   1.365475   0.000000
     6  N    4.663186   3.639286   3.958688   2.431314   1.344009
     7  C    5.243540   4.464731   5.075927   3.093657   2.529306
     8  H    6.139670   5.315861   5.811161   4.001178   3.253995
     9  C    5.974223   5.285785   5.960155   3.915084   3.502773
    10  C    7.045991   6.505985   7.291318   5.124292   4.850532
    11  C    6.695750   6.382874   7.334996   5.071843   5.126634
    12  C    5.978379   5.647485   6.562473   4.399873   4.458657
    13  C    4.647891   4.176320   5.045429   2.897558   2.955485
    14  H    4.409876   3.924510   4.696909   2.839874   2.881935
    15  N    3.805032   3.622592   4.714338   2.479237   3.129141
    16  C    2.617178   2.431788   3.578221   1.464786   2.528738
    17  H    3.753002   2.513564   2.231510   2.101947   1.086785
    18  H    5.465938   4.355032   4.451211   3.274755   2.019649
    19  H    5.418457   4.854907   5.628746   3.562601   3.459765
    20  H    6.595431   5.773657   6.266789   4.461749   3.789744
    21  H    7.690969   7.199190   8.000110   5.848487   5.630378
    22  H    7.762509   7.126816   7.811353   5.733729   5.256647
    23  H    6.276347   6.119556   7.169272   4.893432   5.198811
    24  H    7.687921   7.427132   8.392119   6.133880   6.182750
    25  H    5.986550   5.864061   6.867031   4.765150   5.068738
    26  H    6.712698   6.263566   7.049656   5.015429   4.828397
    27  H    2.358297   2.617378   3.826572   2.160269   3.392302
                    6          7          8          9         10
     6  N    0.000000
     7  C    1.465781   0.000000
     8  H    2.039798   1.102592   0.000000
     9  C    2.513229   1.525028   2.133324   0.000000
    10  C    3.822980   2.491286   2.648358   1.532919   0.000000
    11  C    4.336349   2.910704   3.150757   2.534407   1.533147
    12  C    3.785529   2.465837   2.589098   2.946970   2.534643
    13  C    2.492119   1.528462   2.127331   2.511923   2.957444
    14  H    2.661983   2.160447   2.486413   3.463735   3.959439
    15  N    3.137406   2.498855   3.404635   2.937333   3.487470
    16  C    3.063416   3.033949   4.041060   3.551654   4.468103
    17  H    2.052862   3.443725   3.994367   4.406251   5.799983
    18  H    1.015603   2.086483   2.327682   2.799737   4.128380
    19  H    2.842774   2.153598   3.044948   1.095470   2.172013
    20  H    2.700159   2.160082   2.502504   1.098616   2.176213
    21  H    4.652516   3.445111   3.671617   2.161927   1.095761
    22  H    4.066684   2.766207   2.462199   2.157156   1.099105
    23  H    4.632031   3.353423   3.880707   2.827734   2.158917
    24  H    5.342522   3.887097   3.920961   3.483820   2.171180
    25  H    4.613832   3.424155   3.600425   3.940154   3.483350
    26  H    3.981721   2.697639   2.346390   3.345966   2.826055
    27  H    4.058231   4.049806   5.085663   4.332859   5.181205
                   11         12         13         14         15
    11  C    0.000000
    12  C    1.529120   0.000000
    13  C    2.519753   1.533970   0.000000
    14  H    3.472309   2.166573   1.101465   0.000000
    15  N    2.895701   2.404838   1.457709   2.106510   0.000000
    16  C    4.118764   3.616742   2.359447   2.650679   1.286963
    17  H    6.170076   5.463642   3.976854   3.753622   4.192480
    18  H    4.923934   4.521402   3.387830   3.578304   4.086507
    19  H    2.828870   3.348309   2.741641   3.736333   2.580804
    20  H    3.488370   3.939860   3.464824   4.295981   3.940898
    21  H    2.170836   3.481933   3.930390   4.978801   4.195492
    22  H    2.163127   2.837957   3.408739   4.239371   4.268393
    23  H    1.095480   2.143949   2.777334   3.775491   2.560682
    24  H    1.096563   2.161816   3.470836   4.303600   3.888102
    25  H    2.166769   1.095679   2.156506   2.486518   2.626903
    26  H    2.168732   1.098256   2.159963   2.469801   3.359900
    27  H    4.751244   4.425865   3.346704   3.657429   2.029336
                   16         17         18         19         20
    16  C    0.000000
    17  H    3.475972   0.000000
    18  H    4.004458   2.303286   0.000000
    19  H    3.009024   4.403973   3.262219   0.000000
    20  H    4.364099   4.502157   2.572610   1.771204   0.000000
    21  H    5.111429   6.563595   4.866882   2.481817   2.519648
    22  H    5.251706   6.116656   4.211120   3.068451   2.465369
    23  H    3.722730   6.277448   5.304298   2.683016   3.834140
    24  H    5.144864   7.213867   5.877246   3.838360   4.319822
    25  H    3.825889   6.071073   5.439156   4.163892   4.976906
    26  H    4.473308   5.730782   4.572769   4.015107   4.158050
    27  H    1.091000   4.217718   4.944438   3.585694   5.125796
                   21         22         23         24         25
    21  H    0.000000
    22  H    1.765275   0.000000
    23  H    2.463516   3.062322   0.000000
    24  H    2.530343   2.465732   1.765928   0.000000
    25  H    4.311636   3.835282   2.452665   2.506658   0.000000
    26  H    3.835937   2.688465   3.058806   2.484412   1.769208
    27  H    5.671693   6.069928   4.133104   5.725466   4.482845
                   26         27
    26  H    0.000000
    27  H    5.374737   0.000000
 Symmetry turned off by external request.
 Stoichiometry    C9H13N3O2
 Framework group  C1[X(C9H13N3O2)]
 Deg. of freedom    75
 Full point group                 C1      NOp   1
 Rotational constants (GHZ):           1.6969066           0.4256797           0.3754370
 Standard basis: 6-31G(d) (6D, 7F)
   236 basis functions,   444 primitive gaussians,   236 cartesian basis functions
    52 alpha electrons       52 beta electrons
       nuclear repulsion energy       934.8569788872 Hartrees.
 NAtoms=   27 NActive=   27 NUniq=   27 SFac= 1.00D+00 NAtFMM=   60 NAOKFM=F Big=F
 Integral buffers will be    131072 words long.
 Raffenetti 1 integral format.
 Two-electron integral symmetry is turned off.
 One-electron integrals computed using PRISM.
 NBasis=   236 RedAO= T EigKep=  9.84D-04  NBF=   236
 NBsUse=   236 1.00D-06 EigRej= -1.00D+00 NBFU=   236
 Initial guess from the checkpoint file:  "/home/alexey/tmp/Gau-1196022.chk"
 B after Tr=     0.043403    0.002381    0.002230
         Rot=    0.999999   -0.001405   -0.000205    0.000602 Ang=  -0.18 deg.
 ExpMin= 1.61D-01 ExpMax= 5.48D+03 ExpMxC= 8.25D+02 IAcc=3 IRadAn=         5 AccDes= 0.00D+00
 Harris functional with IExCor=  205 and IRadAn=       5 diagonalized for initial guess.
 HarFok:  IExCor=  205 AccDes= 0.00D+00 IRadAn=         5 IDoV= 1 UseB2=F ITyADJ=14
 ICtDFT=  3500011 ScaDFX=  1.000000  1.000000  1.000000  1.000000
 FoFCou: FMM=F IPFlag=           0 FMFlag=      100000 FMFlg1=           0
         NFxFlg=           0 DoJE=T BraDBF=F KetDBF=T FulRan=T
         wScrn=  0.000000 ICntrl=       500 IOpCl=  0 I1Cent=   200000004 NGrid=           0
         NMat0=    1 NMatS0=      1 NMatT0=    0 NMatD0=    1 NMtDS0=    0 NMtDT0=    0
 Symmetry not used in FoFCou.
 Keep R1 ints in memory in canonical form, NReq=397720213.
 Requested convergence on RMS density matrix=1.00D-08 within 128 cycles.
 Requested convergence on MAX density matrix=1.00D-06.
 Requested convergence on             energy=1.00D-06.
 No special actions if energy rises.
 SCF Done:  E(RHF) =  -661.296451321     A.U. after   15 cycles
            NFock= 15  Conv=0.56D-08     -V/T= 2.0023
 ExpMin= 1.61D-01 ExpMax= 5.48D+03 ExpMxC= 8.25D+02 IAcc=3 IRadAn=         5 AccDes= 0.00D+00
 HarFok:  IExCor=  205 AccDes= 0.00D+00 IRadAn=         5 IDoV=-2 UseB2=F ITyADJ=14
 ICtDFT= 12500011 ScaDFX=  1.000000  1.000000  1.000000  1.000000
 Range of M.O.s used for correlation:    15   236
 NBasis=   236 NAE=    52 NBE=    52 NFC=    14 NFV=     0
 NROrb=    222 NOA=    38 NOB=    38 NVA=   184 NVB=   184
 Fully direct method using O(ONN) memory.
 JobTyp=1 Pass  1:  I=  15 to  52 NPSUse=  4 ParTrn=T ParDer=T DoDerP=T.
 Spin components of T(2) and E(2):
     alpha-alpha T2 =       0.9114614448D-01 E2=     -0.2724056667D+00
     alpha-beta  T2 =       0.4903171404D+00 E2=     -0.1487123887D+01
     beta-beta   T2 =       0.9114614448D-01 E2=     -0.2724056667D+00
 ANorm=    0.1293294023D+01
 E2 =    -0.2031935221D+01 EUMP2 =    -0.66332838654150D+03
          IDoAtm=111111111111111111111111111
          Differentiating once with respect to electric field.
                with respect to dipole field.
          Differentiating once with respect to nuclear coordinates.
 Keep R1 ints in memory in canonical form, NReq=397723379.
          There are     1 degrees of freedom in the 1st order CPHF.  IDoFFX=0 NUNeed=     1.
 LinEq1:  Iter=  0 NonCon=     1 RMS=4.60D-03 Max=1.26D-01 NDo=     1
 AX will form     1 AO Fock derivatives at one time.
 LinEq1:  Iter=  1 NonCon=     1 RMS=1.53D-03 Max=2.70D-02 NDo=     1
 LinEq1:  Iter=  2 NonCon=     1 RMS=6.56D-04 Max=2.11D-02 NDo=     1
 LinEq1:  Iter=  3 NonCon=     1 RMS=2.91D-04 Max=1.02D-02 NDo=     1
 LinEq1:  Iter=  4 NonCon=     1 RMS=9.12D-05 Max=2.20D-03 NDo=     1
 LinEq1:  Iter=  5 NonCon=     1 RMS=3.99D-05 Max=2.11D-03 NDo=     1
 LinEq1:  Iter=  6 NonCon=     1 RMS=1.46D-05 Max=4.73D-04 NDo=     1
 LinEq1:  Iter=  7 NonCon=     1 RMS=5.51D-06 Max=8.88D-05 NDo=     1
 LinEq1:  Iter=  8 NonCon=     1 RMS=2.12D-06 Max=4.44D-05 NDo=     1
[...]
    26  H    2.175828   1.098811   2.166358   2.495576   3.363013
    27  H    4.717685   4.417050   3.355866   3.662641   2.026688
                   16         17         18         19         20
    16  C    0.000000
    17  H    3.462794   0.000000
    18  H    4.076489   2.229275   0.000000
    19  H    2.984467   4.312389   3.504944   0.000000
    20  H    4.366882   4.453772   2.873993   1.768560   0.000000
    21  H    5.092395   6.515644   5.080502   2.498866   2.520911
    22  H    5.244018   6.099300   4.309859   3.070238   2.460977
    23  H    3.696567   6.239700   5.417954   2.704874   3.843098
    24  H    5.134296   7.200982   5.934383   3.850127   4.317017
    25  H    3.823033   6.084620   5.370730   4.171456   4.985056
    26  H    4.495196   5.777102   4.489908   4.038575   4.184834
    27  H    1.089439   4.215396   5.062897   3.564722   5.129359
                   21         22         23         24         25
    21  H    0.000000
    22  H    1.758836   0.000000
    23  H    2.469069   3.062231   0.000000
    24  H    2.517467   2.459899   1.764557   0.000000
    25  H    4.312081   3.840665   2.443475   2.520333   0.000000
    26  H    3.848095   2.706585   3.060474   2.490712   1.767903
    27  H    5.638205   6.048500   4.084817   5.690242   4.456552
                   26         27
    26  H    0.000000
    27  H    5.377390   0.000000
 Symmetry turned off by external request.
 Stoichiometry    C9H13N3O2
 Framework group  C1[X(C9H13N3O2)]
 Deg. of freedom    75
 Full point group                 C1      NOp   1
 Rotational constants (GHZ):           1.6860594           0.4232968           0.3753453

 **********************************************************************

            Population analysis using the SCF Density.

 **********************************************************************

 Alpha  occ. eigenvalues --  -20.58529 -20.58142 -15.84173 -15.64572 -15.56198
 Alpha  occ. eigenvalues --  -11.35340 -11.29813 -11.29551 -11.28250 -11.27254
 Alpha  occ. eigenvalues --  -11.23890 -11.23326 -11.22799 -11.22190  -1.56864
 Alpha  occ. eigenvalues --   -1.35976  -1.31326  -1.23210  -1.15462  -1.10609
 Alpha  occ. eigenvalues --   -1.03030  -1.01673  -0.94862  -0.89828  -0.85737
 Alpha  occ. eigenvalues --   -0.82552  -0.78692  -0.77393  -0.75374  -0.72133
 Alpha  occ. eigenvalues --   -0.69840  -0.69231  -0.67798  -0.64947  -0.63842
 Alpha  occ. eigenvalues --   -0.62494  -0.60246  -0.57863  -0.57125  -0.55151
 Alpha  occ. eigenvalues --   -0.54693  -0.50880  -0.50128  -0.48680  -0.48166
 Alpha  occ. eigenvalues --   -0.47026  -0.46240  -0.45851  -0.43313  -0.41769
 Alpha  occ. eigenvalues --   -0.39936  -0.33993
 Alpha virt. eigenvalues --    0.07027   0.11964   0.17190   0.21787   0.24087
 Alpha virt. eigenvalues --    0.25749   0.27122   0.28717   0.28952   0.29646
 Alpha virt. eigenvalues --    0.30732   0.31725   0.31937   0.32679   0.33872
 Alpha virt. eigenvalues --    0.34293   0.35941   0.37538   0.38523   0.40507
 Alpha virt. eigenvalues --    0.42257   0.42946   0.44790   0.45989   0.46561
 Alpha virt. eigenvalues --    0.46969   0.48831   0.53903   0.56967   0.59345
 Alpha virt. eigenvalues --    0.64069   0.69405   0.69862   0.72781   0.74140
 Alpha virt. eigenvalues --    0.74877   0.75646   0.77594   0.78923   0.79398
 Alpha virt. eigenvalues --    0.81795   0.84860   0.85831   0.85988   0.88509
 Alpha virt. eigenvalues --    0.89347   0.90920   0.91988   0.92859   0.94754
 Alpha virt. eigenvalues --    0.95859   0.97931   0.99515   1.01625   1.02572
 Alpha virt. eigenvalues --    1.03303   1.05868   1.06741   1.08017   1.08751
 Alpha virt. eigenvalues --    1.10454   1.11245   1.11764   1.12441   1.13812
 Alpha virt. eigenvalues --    1.14720   1.14854   1.15768   1.16848   1.18626
 Alpha virt. eigenvalues --    1.19128   1.21290   1.22445   1.23952   1.24494
 Alpha virt. eigenvalues --    1.24916   1.26243   1.27425   1.27706   1.29716
 Alpha virt. eigenvalues --    1.30298   1.33017   1.36154   1.36778   1.41108
 Alpha virt. eigenvalues --    1.42403   1.46736   1.48842   1.51904   1.54558
 Alpha virt. eigenvalues --    1.55739   1.59073   1.59618   1.63613   1.65586
 Alpha virt. eigenvalues --    1.68263   1.68795   1.73454   1.75466   1.77608
 Alpha virt. eigenvalues --    1.82257   1.84798   1.88162   1.90667   1.93630
 Alpha virt. eigenvalues --    1.96056   1.97002   1.99819   2.02333   2.03377
 Alpha virt. eigenvalues --    2.05478   2.07347   2.09203   2.10381   2.13142
 Alpha virt. eigenvalues --    2.13590   2.15307   2.18617   2.20067   2.22777
 Alpha virt. eigenvalues --    2.22991   2.24743   2.26610   2.28456   2.29532
 Alpha virt. eigenvalues --    2.31873   2.34079   2.34519   2.36479   2.38201
 Alpha virt. eigenvalues --    2.40136   2.42020   2.43849   2.45642   2.47632
 Alpha virt. eigenvalues --    2.50912   2.52243   2.53122   2.55443   2.61877
 Alpha virt. eigenvalues --    2.62422   2.65162   2.67554   2.70335   2.70490
 Alpha virt. eigenvalues --    2.72207   2.72700   2.76624   2.78342   2.86442
 Alpha virt. eigenvalues --    2.88259   2.88464   2.93026   2.93634   2.95915
 Alpha virt. eigenvalues --    2.99334   3.01446   3.04205   3.06214   3.07588
 Alpha virt. eigenvalues --    3.09327   3.15036   3.21732   3.26535   3.27617
 Alpha virt. eigenvalues --    3.33699   3.38022   3.39148   3.57554   3.65998
 Alpha virt. eigenvalues --    4.14960   4.32371   4.34662   4.39527   4.46637
 Alpha virt. eigenvalues --    4.57092   4.61930   4.62279   4.73399   4.79914
 Alpha virt. eigenvalues --    4.99730   5.00879   5.05240   5.11285
          Condensed to atoms (all electrons):
               1          2          3          4          5          6
     1  O    8.331888   0.308714  -0.083983  -0.090351   0.004994  -0.000016
     2  N    0.308714   5.735272   0.301390   0.258793  -0.053565   0.001047
     3  O   -0.083983   0.301390   8.372346  -0.097815   0.003241   0.000919
     4  C   -0.090351   0.258793  -0.097815   5.241840   0.550330  -0.046750
     5  C    0.004994  -0.053565   0.003241   0.550330   4.714618   0.317781
     6  N   -0.000016   0.001047   0.000919  -0.046750   0.317781   7.195676
     7  C    0.000004  -0.000146   0.000003   0.004658  -0.029617   0.165459
     8  H   -0.000000   0.000003  -0.000000  -0.000272   0.003044  -0.050801
     9  C   -0.000000  -0.000005  -0.000000   0.000813   0.000581  -0.060913
    10  C    0.000000   0.000000   0.000000  -0.000036  -0.000050   0.003728
    11  C   -0.000000  -0.000000  -0.000000  -0.000028   0.000026  -0.000190
    12  C   -0.000000   0.000003  -0.000000  -0.000134  -0.000175   0.003889
    13  C   -0.000029  -0.000073  -0.000004  -0.011467  -0.000614  -0.047517
    14  H   -0.000005  -0.000131   0.000001   0.002603   0.005992  -0.006940
    15  N    0.000418   0.002774  -0.000017  -0.063562  -0.006092   0.001368
    16  C   -0.000073  -0.028192   0.002719   0.325428  -0.049585  -0.002126
    17  H    0.000217  -0.007139   0.017939  -0.022695   0.373580  -0.034513
    18  H    0.000001  -0.000051   0.000010   0.001457  -0.031693   0.338464
    19  H    0.000001  -0.000004   0.000000  -0.001181   0.001239  -0.000403
    20  H    0.000000  -0.000000   0.000000  -0.000072   0.000146  -0.000529
    21  H   -0.000000  -0.000000   0.000000   0.000001   0.000001  -0.000077
    22  H   -0.000000   0.000000  -0.000000  -0.000000  -0.000003  -0.000117
    23  H    0.000000  -0.000000   0.000000   0.000040  -0.000000  -0.000030
    24  H    0.000000   0.000000   0.000000   0.000000  -0.000000   0.000006
    25  H    0.000000  -0.000000   0.000000   0.000024  -0.000000  -0.000091
    26  H    0.000000  -0.000000   0.000000   0.000007  -0.000002  -0.000062
    27  H    0.006123  -0.000908   0.000011  -0.063610   0.002292   0.000023
               7          8          9         10         11         12
     1  O    0.000004  -0.000000  -0.000000   0.000000  -0.000000  -0.000000
     2  N   -0.000146   0.000003  -0.000005   0.000000  -0.000000   0.000003
     3  O    0.000003  -0.000000  -0.000000   0.000000  -0.000000  -0.000000
     4  C    0.004658  -0.000272   0.000813  -0.000036  -0.000028  -0.000134
     5  C   -0.029617   0.003044   0.000581  -0.000050   0.000026  -0.000175
     6  N    0.165459  -0.050801  -0.060913   0.003728  -0.000190   0.003889
     7  C    5.021099   0.418647   0.349782  -0.054706  -0.009080  -0.061077
     8  H    0.418647   0.536920  -0.054877   0.000829  -0.000341  -0.002135
     9  C    0.349782  -0.054877   5.158586   0.324704  -0.050381  -0.005447
    10  C   -0.054706   0.000829   0.324704   5.119354   0.336964  -0.060912
    11  C   -0.009080  -0.000341  -0.050381   0.336964   5.119872   0.335864
    12  C   -0.061077  -0.002135  -0.005447  -0.060912   0.335864   5.118333
    13  C    0.339168  -0.038270  -0.059452  -0.000388  -0.050586   0.372237
    14  H   -0.046422  -0.000776   0.004414  -0.000407   0.004192  -0.036348
    15  N   -0.057885   0.003955  -0.014943   0.001526  -0.012914  -0.081859
    16  C   -0.001709   0.000025  -0.001417  -0.000025   0.000027   0.002526
    17  H    0.001593  -0.000041  -0.000071   0.000001   0.000000   0.000000
    18  H   -0.021112  -0.004436   0.001282  -0.000083   0.000004  -0.000114
    19  H   -0.036755   0.004347   0.390178  -0.031865  -0.002200   0.000694
    20  H   -0.042535  -0.002131   0.399642  -0.035277   0.003927  -0.000415
    21  H    0.004605  -0.000075  -0.036375   0.402512  -0.034822   0.004336
    22  H   -0.004839   0.003546  -0.046985   0.397808  -0.045402  -0.000982
    23  H    0.000576   0.000034  -0.001955  -0.039011   0.399145  -0.037784
    24  H   -0.000127  -0.000102   0.004389  -0.038418   0.402405  -0.038675
    25  H    0.005155  -0.000028  -0.000417   0.004178  -0.033352   0.398305
    26  H   -0.003887   0.001702   0.000960  -0.002202  -0.041496   0.396805
    27  H   -0.000418   0.000009  -0.000060   0.000007   0.000012  -0.000035
              13         14         15         16         17         18
     1  O   -0.000029  -0.000005   0.000418  -0.000073   0.000217   0.000001
     2  N   -0.000073  -0.000131   0.002774  -0.028192  -0.007139  -0.000051
     3  O   -0.000004   0.000001  -0.000017   0.002719   0.017939   0.000010
     4  C   -0.011467   0.002603  -0.063562   0.325428  -0.022695   0.001457
     5  C   -0.000614   0.005992  -0.006092  -0.049585   0.373580  -0.031693
     6  N   -0.047517  -0.006940   0.001368  -0.002126  -0.034513   0.338464
     7  C    0.339168  -0.046422  -0.057885  -0.001709   0.001593  -0.021112
     8  H   -0.038270  -0.000776   0.003955   0.000025  -0.000041  -0.004436
     9  C   -0.059452   0.004414  -0.014943  -0.001417  -0.000071   0.001282
    10  C   -0.000388  -0.000407   0.001526  -0.000025   0.000001  -0.000083
    11  C   -0.050586   0.004192  -0.012914   0.000027   0.000000   0.000004
    12  C    0.372237  -0.036348  -0.081859   0.002526   0.000000  -0.000114
    13  C    5.041020   0.402881   0.242543  -0.071312  -0.000007   0.003013
    14  H    0.402881   0.526121  -0.037121  -0.004190   0.000099  -0.000103
    15  N    0.242543  -0.037121   6.965401   0.585024  -0.000083  -0.000134
    16  C   -0.071312  -0.004190   0.585024   4.710945   0.002073  -0.000201
    17  H   -0.000007   0.000099  -0.000083   0.002073   0.373854  -0.002867
    18  H    0.003013  -0.000103  -0.000134  -0.000201  -0.002867   0.309434
    19  H   -0.007571   0.000102   0.007748   0.003086   0.000016  -0.000148
    20  H    0.004318  -0.000065   0.000127  -0.000036   0.000002   0.000842
    21  H   -0.000427   0.000010  -0.000039   0.000004  -0.000000   0.000001
    22  H    0.000033  -0.000056   0.000018  -0.000002   0.000000   0.000001
    23  H   -0.007498   0.000001   0.008550   0.000109   0.000000   0.000000
    24  H    0.004693  -0.000056   0.000138   0.000007   0.000000  -0.000000
    25  H   -0.035527  -0.002803   0.000363  -0.000024  -0.000000   0.000002
    26  H   -0.047512  -0.001056   0.004905  -0.000060   0.000000  -0.000000
    27  H    0.005112  -0.000178  -0.040711   0.403874  -0.000078   0.000001
              19         20         21         22         23         24
     1  O    0.000001   0.000000  -0.000000  -0.000000   0.000000   0.000000
     2  N   -0.000004  -0.000000  -0.000000   0.000000  -0.000000   0.000000
     3  O    0.000000   0.000000   0.000000  -0.000000   0.000000   0.000000
     4  C   -0.001181  -0.000072   0.000001  -0.000000   0.000040   0.000000
     5  C    0.001239   0.000146   0.000001  -0.000003  -0.000000  -0.000000
     6  N   -0.000403  -0.000529  -0.000077  -0.000117  -0.000030   0.000006
     7  C   -0.036755  -0.042535   0.004605  -0.004839   0.000576  -0.000127
     8  H    0.004347  -0.002131  -0.000075   0.003546   0.000034  -0.000102
     9  C    0.390178   0.399642  -0.036375  -0.046985  -0.001955   0.004389
    10  C   -0.031865  -0.035277   0.402512   0.397808  -0.039011  -0.038418
    11  C   -0.002200   0.003927  -0.034822  -0.045402   0.399145   0.402405
    12  C    0.000694  -0.000415   0.004336  -0.000982  -0.037784  -0.038675
    13  C   -0.007571   0.004318  -0.000427   0.000033  -0.007498   0.004693
    14  H    0.000102  -0.000065   0.000010  -0.000056   0.000001  -0.000056
    15  N    0.007748   0.000127  -0.000039   0.000018   0.008550   0.000138
    16  C    0.003086  -0.000036   0.000004  -0.000002   0.000109   0.000007
    17  H    0.000016   0.000002  -0.000000   0.000000   0.000000   0.000000
    18  H   -0.000148   0.000842   0.000001   0.000001   0.000000  -0.000000
    19  H    0.503589  -0.024727  -0.002785   0.003944   0.001505  -0.000066
    20  H   -0.024727   0.540953  -0.002679  -0.002996  -0.000045  -0.000083
    21  H   -0.002785  -0.002679   0.523126  -0.027320  -0.002897  -0.002233
    22  H    0.003944  -0.002996  -0.027320   0.570880   0.004133  -0.003658
    23  H    0.001505  -0.000045  -0.002897   0.004133   0.498572  -0.025392
    24  H   -0.000066  -0.000083  -0.002233  -0.003658  -0.025392   0.537414
    25  H   -0.000029   0.000012  -0.000086  -0.000080  -0.002327  -0.002276
    26  H    0.000019  -0.000030  -0.000081   0.002374   0.004062  -0.003047
    27  H    0.000083   0.000000  -0.000000   0.000000  -0.000036  -0.000000
              25         26         27
     1  O    0.000000   0.000000   0.006123
     2  N   -0.000000  -0.000000  -0.000908
     3  O    0.000000   0.000000   0.000011
     4  C    0.000024   0.000007  -0.063610
     5  C   -0.000000  -0.000002   0.002292
     6  N   -0.000091  -0.000062   0.000023
     7  C    0.005155  -0.003887  -0.000418
     8  H   -0.000028   0.001702   0.000009
     9  C   -0.000417   0.000960  -0.000060
    10  C    0.004178  -0.002202   0.000007
    11  C   -0.033352  -0.041496   0.000012
    12  C    0.398305   0.396805  -0.000035
    13  C   -0.035527  -0.047512   0.005112
    14  H   -0.002803  -0.001056  -0.000178
    15  N    0.000363   0.004905  -0.040711
    16  C   -0.000024  -0.000060   0.403874
    17  H   -0.000000   0.000000  -0.000078
    18  H    0.000002  -0.000000   0.000001
    19  H   -0.000029   0.000019   0.000083
    20  H    0.000012  -0.000030   0.000000
    21  H   -0.000086  -0.000081  -0.000000
    22  H   -0.000080   0.002374   0.000000
    23  H   -0.002327   0.004062  -0.000036
    24  H   -0.002276  -0.003047  -0.000000
    25  H    0.505323  -0.024003  -0.000013
    26  H   -0.024003   0.561955   0.000001
    27  H   -0.000013   0.000001   0.439414
 Mulliken charges:
               1
     1  O   -0.477903
     2  N    0.482221
     3  O   -0.516758
     4  C    0.011982
     5  C    0.193532
     6  N   -0.777286
     7  C    0.059568
     8  H    0.181223
     9  C   -0.302033
    10  C   -0.328232
    11  C   -0.321647
    12  C   -0.306901
    13  C   -0.036764
    14  H    0.190242
    15  N   -0.509495
    16  C    0.123105
    17  H    0.298120
    18  H    0.406430
    19  H    0.191185
    20  H    0.161651
    21  H    0.175302
    22  H    0.149702
    23  H    0.200247
    24  H    0.165083
    25  H    0.187694
    26  H    0.150648
    27  H    0.249086
 Sum of Mulliken charges =  -0.00000
 Mulliken charges with hydrogens summed into heavy atoms:
               1
     1  O   -0.477903
     2  N    0.482221
     3  O   -0.516758
     4  C    0.011982
     5  C    0.491652
     6  N   -0.370856
     7  C    0.240791
     9  C    0.050803
    10  C   -0.003228
    11  C    0.043683
    12  C    0.031441
    13  C    0.153477
    15  N   -0.509495
    16  C    0.372191
 Electronic spatial extent (au):  <R**2>=           2983.7766
 Charge=             -0.0000 electrons
 Dipole moment (field-independent basis, Debye):
    X=              5.7342    Y=              4.9444    Z=              1.2369  Tot=              7.6718
 Quadrupole moment (field-independent basis, Debye-Ang):
   XX=           -107.0586   YY=            -79.0599   ZZ=            -81.3439
   XY=             -2.0673   XZ=              0.0694   YZ=              1.7910
 Traceless Quadrupole moment (field-independent basis, Debye-Ang):
   XX=            -17.9045   YY=             10.0942   ZZ=              7.8103
   XY=             -2.0673   XZ=              0.0694   YZ=              1.7910
 Octapole moment (field-independent basis, Debye-Ang**2):
  XXX=             95.9040  YYY=             37.1222  ZZZ=             -2.0315  XYY=             -4.3880
  XXY=             10.1581  XXZ=              3.6812  XZZ=             -9.9830  YZZ=             -0.4671
  YYZ=              7.6245  XYZ=              0.1471
 Hexadecapole moment (field-independent basis, Debye-Ang**3):
 XXXX=          -3367.4282 YYYY=           -598.1870 ZZZZ=           -302.6107 XXXY=            -22.7713
 XXXZ=             -4.8273 YYYX=            -10.4480 YYYZ=             24.8911 ZZZX=              6.2068
 ZZZY=              7.6191 XXYY=           -623.6443 XXZZ=           -519.4852 YYZZ=           -156.8516
 XXYZ=             -3.9368 YYXZ=              3.4998 ZZXY=              4.8557
 N-N= 9.339214788555D+02 E-N=-3.414634924985D+03  KE= 6.597514146705D+02
 Unable to Open any file for archive entry.
 1\1\GINC-LOTUS\FOpt\RMP2-FC\6-31G(d)\C9H13N3O2\ALEXEY\30-Jun-2023\0\\#
 MP2/6-31G* SCF=Tight Opt=(ModRedun, MaxCycle=20 ) NoSymm\\MolName:\\0,
 1\O,-3.4682383677,-1.397877008,-0.3411908876\N,-3.0805390932,-0.234596
 0277,-0.096673285\O,-3.8724281281,0.7158127471,0.0843192767\C,-1.70560
 09207,-0.0218660043,-0.0141824821\C,-1.3075386698,1.2621845173,0.27125
 98457\N,-0.0627624696,1.7470156306,0.3776990552\C,1.2015004518,1.02251
 54748,0.3542356884\H,1.8459482633,1.553961586,1.0708627969\C,1.9092380
 03,1.0334931852,-0.9991258233\C,3.3067951159,0.4265187599,-0.828941720
 1\C,3.2559874827,-0.9693861509,-0.2019133299\C,2.4556374133,-0.9798765
 364,1.1024257792\C,1.0480167572,-0.4231165207,0.8624476822\H,0.4693011
 629,-0.4007436026,1.7995243779\N,0.4024313084,-1.3104314793,-0.0994203
 315\C,-0.8417142791,-1.1277234652,-0.4010419828\H,-2.0972880655,1.9931
 231016,0.4204162918\H,-0.0023637372,2.7350412568,0.5951007764\H,1.3178
 710689,0.4563985321,-1.7177764473\H,1.9773757285,2.0614890733,-1.37639
 46348\H,3.8144601901,0.3878350121,-1.7994711684\H,3.9041988289,1.09303
 98449,-0.1907024684\H,2.7812616245,-1.6662356505,-0.8996964946\H,4.274
 3363825,-1.3328778399,-0.0203424947\H,2.3667996677,-2.0020648332,1.484
 8395068\H,2.963732596,-0.3839378044,1.8731930492\H,-1.2954083146,-1.87
 47057984,-1.0514705759\\Version=ES64L-G16RevC.02\HF=-661.2998885\MP2=-
 663.3325822\RMSD=6.769e-09\RMSF=6.114e-03\Dipole=2.0972933,1.7322952,0
 .4549139\PG=C01 [X(C9H13N3O2)]\\@
 The archive entry for this job was punched.


 THE HURRIEDER I GO, THE BEHINDER I GET.
 Job cpu time:       0 days  1 hours 22 minutes  7.5 seconds.
 Elapsed time:       0 days  0 hours 24 minutes 30.9 seconds.
 File lengths (MBytes):  RWF=     31 Int=      0 D2E=      0 Chk=      7 Scr=      1
 Normal termination of Gaussian 16 at Fri Jun 30 19:57:29 2023.
