 Entering Gaussian System, Link 0=g16
 Initial command:
 /home/alexey/programs//g16/l1.exe "/home/alexey/tmp/Gau-1415592.inp" -scrdir="/home/alexey/tmp/"
 Entering Link 1 = /home/alexey/programs//g16/l1.exe PID=   1415594.
  
 Copyright (c) 1988-2021, Gaussian, Inc.  All Rights Reserved.
  
 This is part of the Gaussian(R) 16 program.  It is based on
 the Gaussian(R) 09 system (copyright 2009, Gaussian, Inc.),
 the Gaussian(R) 03 system (copyright 2003, Gaussian, Inc.),
 the Gaussian(R) 98 system (copyright 1998, Gaussian, Inc.),
 the Gaussian(R) 94 system (copyright 1995, Gaussian, Inc.),
 the Gaussian 92(TM) system (copyright 1992, Gaussian, Inc.),
 the Gaussian 90(TM) system (copyright 1990, Gaussian, Inc.),
 the Gaussian 88(TM) system (copyright 1988, Gaussian, Inc.),
 the Gaussian 86(TM) system (copyright 1986, Carnegie Mellon
 University), and the Gaussian 82(TM) system (copyright 1983,
 Carnegie Mellon University). Gaussian is a federally registered
 trademark of Gaussian, Inc.
  
 This software contains proprietary and confidential information,
 including trade secrets, belonging to Gaussian, Inc.
  
 This software is provided under written license and may be
 used, copied, transmitted, or stored only in accord with that
 written license.
  
 The following legend is applicable only to US Government
 contracts under FAR:
  
                    RESTRICTED RIGHTS LEGEND
  
 Use, reproduction and disclosure by the US Government is
 subject to restrictions as set forth in subparagraphs (a)
 and (c) of the Commercial Computer Software - Restricted
 Rights clause in FAR 52.227-19.
  
 Gaussian, Inc.
 340 Quinnipiac St., Bldg. 40, Wallingford CT 06492
  
  
 ---------------------------------------------------------------
 Warning -- This program may not be used in any manner that
 competes with the business of Gaussian, Inc. or will provide
 assistance to any competitor of Gaussian, Inc.  The licensee
 of this program is prohibited from giving any competitor of
 Gaussian, Inc. access to this program.  By using this program,
 the user acknowledges that Gaussian, Inc. is engaged in the
 business of creating and licensing software in the field of
 computational chemistry and represents and warrants to the
 licensee that it is not a competitor of Gaussian, Inc. and that
 it will not use this program in any manner prohibited above.
 ---------------------------------------------------------------
  

 Cite this work as:
 Gaussian 16, Revision C.02,
 M. J. Frisch, G. W. Trucks, H. B. Schlegel, G. E. Scuseria, 
 M. A. Robb, J. R. Cheeseman, G. Scalmani, V. Barone, 
 G. A. Petersson, H. Nakatsuji, X. Li, M. Caricato, A. V. Marenich, 
 J. Bloino, B. G. Janesko, R. Gomperts, B. Mennucci, H. P. Hratchian, 
 J. V. Ortiz, A. F. Izmaylov, J. L. Sonnenberg, D. Williams-Young, 
 F. Ding, F. Lipparini, F. Egidi, J. Goings, B. Peng, A. Petrone, 
 T. Henderson, D. Ranasinghe, V. G. Zakrzewski, J. Gao, N. Rega, 
 G. Zheng, W. Liang, M. Hada, M. Ehara, K. Toyota, R. Fukuda, 
 J. Hasegawa, M. Ishida, T. Nakajima, Y. Honda, O. Kitao, H. Nakai, 
 T. Vreven, K. Throssell, J. A. Montgomery, Jr., J. E. Peralta, 
 F. Ogliaro, M. J. Bearpark, J. J. Heyd, E. N. Brothers, K. N. Kudin, 
 V. N. Staroverov, T. A. Keith, R. Kobayashi, J. Normand, 
 K. Raghavachari, A. P. Rendell, J. C. Burant, S. S. Iyengar, 
 J. Tomasi, M. Cossi, J. M. Millam, M. Klene, C. Adamo, R. Cammi, 
 J. W. Ochterski, R. L. Martin, K. Morokuma, O. Farkas, 
 J. B. Foresman, and D. J. Fox, Gaussian, Inc., Wallingford CT, 2019.
 
 ******************************************
 Gaussian 16:  ES64L-G16RevC.02  7-Dec-2021
                 2-Jul-2023 
 ******************************************
 %mem=8GB
 %NPROCS=4
 Will use up to    4 processors via shared memory.
 %NoSave
 ---------------------------------------------------------
 #MP2/6-31G* SCF=Tight Opt=(ModRedun, MaxCycle=20 ) NoSymm
 ---------------------------------------------------------
 1/6=20,18=120,19=15,38=1/1,3;
 2/9=110,12=2,15=1,17=6,18=5,40=1/2;
 3/5=1,6=6,7=1,11=9,25=1,30=1,71=1/1,2,3;
 4//1;
 5/5=2,32=2,38=5/2;
 8/6=4,10=2/1;
 9/15=2,16=-3/6;
 10/5=1,31=1/2;
 6/7=2,8=2,9=2,10=2/1;
 7/12=2,30=1/1,2,3,16;
 1/6=20,18=20,19=15/3(2);
 2/9=110,15=1/2;
 99//99;
 2/9=110,15=1/2;
 3/5=1,6=6,7=1,11=9,25=1,30=1,71=1/1,2,3;
 4/5=5,16=3,69=1/1;
 5/5=2,32=2,38=5/2;
 8/6=4,10=2/1;
 9/15=2,16=-3/6;
 10/5=1,31=1/2;
 7/12=2,30=1/1,2,3,16;
 1/6=20,18=20,19=15/3(-8);
 2/9=110,15=1/2;
 6/7=2,8=2,9=2,10=2/1;
 99/9=10/99;
 --------
 MolName:
 --------
 Symbolic Z-matrix:
 Charge =  0 Multiplicity = 1
 8                    0    -3.60199  -1.46344  -0.08093 
 7                    0    -3.25034  -0.28889   0.01542 
 8                    0    -4.03541   0.65122   0.14451 
 6                    0    -1.7562    0.01381  -0.07264 
 6                    0    -1.36798   1.32426   0.22747 
 7                    0    -0.08208   1.76721   0.39815 
 6                    0     1.19612   0.99352   0.36688 
 1                    0     1.85794   1.48374   1.12735 
 6                    0     1.96545   1.05504  -0.97636 
 6                    0     3.37597   0.46501  -0.78676 
 6                    0     3.30989  -0.95585  -0.20461 
 6                    0     2.45683  -0.9991    1.08153 
 6                    0     1.02163  -0.45945   0.83321 
 1                    0     0.46812  -0.50538   1.80039 
 7                    0     0.36827  -1.321    -0.1549 
 6                    0    -0.8718   -1.11711  -0.45648 
 1                    0    -2.15623   2.0839    0.35967 
 1                    0     0.15722   2.75393   0.27438 
 1                    0     1.418     0.48573  -1.75739 
 1                    0     2.05431   2.10788  -1.31881 
 1                    0     3.91422   0.44852  -1.75968 
 1                    0     3.95144   1.11214  -0.08768 
 1                    0     2.86457  -1.63819  -0.96346 
 1                    0     4.33654  -1.32294   0.01319 
 1                    0     2.39554  -2.04838   1.44485 
 1                    0     2.94861  -0.39518   1.87266 
 1                    0    -1.37561  -1.86899  -1.08298 
 
 The following ModRedundant input section has been read:
 D       2       4       5      17 F                                           
 D       1       2       4      16 F                                           
 D       7      13      15      16 F                                           
 D       7       9      10      11 F                                           
 D       9      10      11      12 F                                           
 D       6       7      13      15 F                                           
 

 GradGradGradGradGradGradGradGradGradGradGradGradGradGradGradGradGradGrad
 Berny optimization.
 Initialization pass.
                           ----------------------------
                           !    Initial Parameters    !
                           ! (Angstroms and Degrees)  !
 --------------------------                            --------------------------
 ! Name  Definition              Value          Derivative Info.                !
 --------------------------------------------------------------------------------
 ! R1    R(1,2)                  1.2298         estimate D2E/DX2                !
 ! R2    R(2,3)                  1.2316         estimate D2E/DX2                !
 ! R3    R(2,4)                  1.527          estimate D2E/DX2                !
 ! R4    R(4,5)                  1.3993         estimate D2E/DX2                !
 ! R5    R(4,16)                 1.4861         estimate D2E/DX2                !
 ! R6    R(5,6)                  1.3707         estimate D2E/DX2                !
 ! R7    R(5,17)                 1.1027         estimate D2E/DX2                !
 ! R8    R(6,7)                  1.4944         estimate D2E/DX2                !
 ! R9    R(6,18)                 1.0228         estimate D2E/DX2                !
 ! R10   R(7,8)                  1.121          estimate D2E/DX2                !
 ! R11   R(7,9)                  1.5492         estimate D2E/DX2                !
 ! R12   R(7,13)                 1.5359         estimate D2E/DX2                !
 ! R13   R(9,10)                 1.5407         estimate D2E/DX2                !
 ! R14   R(9,19)                 1.1108         estimate D2E/DX2                !
 ! R15   R(9,20)                 1.1107         estimate D2E/DX2                !
 ! R16   R(10,11)                1.5369         estimate D2E/DX2                !
 ! R17   R(10,21)                1.112          estimate D2E/DX2                !
 ! R18   R(10,22)                1.1129         estimate D2E/DX2                !
 ! R19   R(11,12)                1.5439         estimate D2E/DX2                !
 ! R20   R(11,23)                1.1134         estimate D2E/DX2                !
 ! R21   R(11,24)                1.1118         estimate D2E/DX2                !
 ! R22   R(12,13)                1.5533         estimate D2E/DX2                !
 ! R23   R(12,25)                1.1121         estimate D2E/DX2                !
 ! R24   R(12,26)                1.1102         estimate D2E/DX2                !
 ! R25   R(13,14)                1.1153         estimate D2E/DX2                !
 ! R26   R(13,15)                1.4648         estimate D2E/DX2                !
 ! R27   R(15,16)                1.2924         estimate D2E/DX2                !
 ! R28   R(16,27)                1.1007         estimate D2E/DX2                !
 ! A1    A(1,2,3)              123.708          estimate D2E/DX2                !
 ! A2    A(1,2,4)              117.6824         estimate D2E/DX2                !
 ! A3    A(3,2,4)              118.5839         estimate D2E/DX2                !
 ! A4    A(2,4,5)              116.4062         estimate D2E/DX2                !
 ! A5    A(2,4,16)             116.5091         estimate D2E/DX2                !
 ! A6    A(5,4,16)             127.0825         estimate D2E/DX2                !
 ! A7    A(4,5,6)              126.129          estimate D2E/DX2                !
 ! A8    A(4,5,17)             118.2            estimate D2E/DX2                !
 ! A9    A(6,5,17)             115.6627         estimate D2E/DX2                !
 ! A10   A(5,6,7)              129.2326         estimate D2E/DX2                !
 ! A11   A(5,6,18)             121.0745         estimate D2E/DX2                !
 ! A12   A(7,6,18)             107.2651         estimate D2E/DX2                !
 ! A13   A(6,7,8)              105.3291         estimate D2E/DX2                !
 ! A14   A(6,7,9)              114.9818         estimate D2E/DX2                !
 ! A15   A(6,7,13)             112.7202         estimate D2E/DX2                !
 ! A16   A(8,7,9)              106.1201         estimate D2E/DX2                !
 ! A17   A(8,7,13)             105.9497         estimate D2E/DX2                !
 ! A18   A(9,7,13)             110.9309         estimate D2E/DX2                !
 ! A19   A(7,9,10)             109.4353         estimate D2E/DX2                !
 ! A20   A(7,9,19)             110.155          estimate D2E/DX2                !
 ! A21   A(7,9,20)             110.164          estimate D2E/DX2                !
 ! A22   A(10,9,19)            109.9662         estimate D2E/DX2                !
 ! A23   A(10,9,20)            109.1304         estimate D2E/DX2                !
 ! A24   A(19,9,20)            107.9673         estimate D2E/DX2                !
 ! A25   A(9,10,11)            111.1802         estimate D2E/DX2                !
 ! A26   A(9,10,21)            109.9472         estimate D2E/DX2                !
 ! A27   A(9,10,22)            109.148          estimate D2E/DX2                !
 ! A28   A(11,10,21)           109.7857         estimate D2E/DX2                !
 ! A29   A(11,10,22)           108.7753         estimate D2E/DX2                !
 ! A30   A(21,10,22)           107.9334         estimate D2E/DX2                !
 ! A31   A(10,11,12)           111.419          estimate D2E/DX2                !
 ! A32   A(10,11,23)           109.0014         estimate D2E/DX2                !
 ! A33   A(10,11,24)           109.8604         estimate D2E/DX2                !
 ! A34   A(12,11,23)           109.2439         estimate D2E/DX2                !
 ! A35   A(12,11,24)           109.7401         estimate D2E/DX2                !
 ! A36   A(23,11,24)           107.4864         estimate D2E/DX2                !
 ! A37   A(11,12,13)           111.5685         estimate D2E/DX2                !
 ! A38   A(11,12,25)           109.21           estimate D2E/DX2                !
 ! A39   A(11,12,26)           109.49           estimate D2E/DX2                !
 ! A40   A(13,12,25)           109.2147         estimate D2E/DX2                !
 ! A41   A(13,12,26)           109.526          estimate D2E/DX2                !
 ! A42   A(25,12,26)           107.7502         estimate D2E/DX2                !
 ! A43   A(7,13,12)            105.7971         estimate D2E/DX2                !
 ! A44   A(7,13,14)            111.0161         estimate D2E/DX2                !
 ! A45   A(7,13,15)            113.7208         estimate D2E/DX2                !
 ! A46   A(12,13,14)           107.795          estimate D2E/DX2                !
 ! A47   A(12,13,15)           108.3994         estimate D2E/DX2                !
 ! A48   A(14,13,15)           109.8405         estimate D2E/DX2                !
 ! A49   A(13,15,16)           119.5126         estimate D2E/DX2                !
 ! A50   A(4,16,15)            129.1096         estimate D2E/DX2                !
 ! A51   A(4,16,27)            113.2307         estimate D2E/DX2                !
 ! A52   A(15,16,27)           117.6596         estimate D2E/DX2                !
 ! D1    D(1,2,4,5)           -171.2527         estimate D2E/DX2                !
 ! D2    D(1,2,4,16)             8.2582         Frozen                          !
 ! D3    D(3,2,4,5)             10.5233         estimate D2E/DX2                !
 ! D4    D(3,2,4,16)          -169.9657         estimate D2E/DX2                !
 ! D5    D(2,4,5,6)            170.0648         estimate D2E/DX2                !
 ! D6    D(2,4,5,17)            -8.8413         Frozen                          !
 ! D7    D(16,4,5,6)            -9.3866         estimate D2E/DX2                !
 ! D8    D(16,4,5,17)          171.7072         estimate D2E/DX2                !
 ! D9    D(2,4,16,15)         -151.9075         estimate D2E/DX2                !
 ! D10   D(2,4,16,27)           27.9389         estimate D2E/DX2                !
 ! D11   D(5,4,16,15)           27.5434         estimate D2E/DX2                !
 ! D12   D(5,4,16,27)         -152.6101         estimate D2E/DX2                !
 ! D13   D(4,5,6,7)             -2.6853         estimate D2E/DX2                !
 ! D14   D(4,5,6,18)           157.2702         estimate D2E/DX2                !
 ! D15   D(17,5,6,7)           176.2452         estimate D2E/DX2                !
 ! D16   D(17,5,6,18)          -23.7993         estimate D2E/DX2                !
 ! D17   D(5,6,7,8)           -145.068          estimate D2E/DX2                !
 ! D18   D(5,6,7,9)             98.4878         estimate D2E/DX2                !
 ! D19   D(5,6,7,13)           -30.001          estimate D2E/DX2                !
 ! D20   D(18,6,7,8)            52.8356         estimate D2E/DX2                !
 ! D21   D(18,6,7,9)           -63.6086         estimate D2E/DX2                !
 ! D22   D(18,6,7,13)          167.9026         estimate D2E/DX2                !
 ! D23   D(6,7,9,10)           168.6983         estimate D2E/DX2                !
 ! D24   D(6,7,9,19)           -70.289          estimate D2E/DX2                !
 ! D25   D(6,7,9,20)            48.7126         estimate D2E/DX2                !
 ! D26   D(8,7,9,10)            52.7064         estimate D2E/DX2                !
 ! D27   D(8,7,9,19)           173.7191         estimate D2E/DX2                !
 ! D28   D(8,7,9,20)           -67.2794         estimate D2E/DX2                !
 ! D29   D(13,7,9,10)          -61.9258         estimate D2E/DX2                !
 ! D30   D(13,7,9,19)           59.0869         estimate D2E/DX2                !
 ! D31   D(13,7,9,20)          178.0885         estimate D2E/DX2                !
 ! D32   D(6,7,13,12)         -166.1222         estimate D2E/DX2                !
 ! D33   D(6,7,13,14)          -49.4468         estimate D2E/DX2                !
 ! D34   D(6,7,13,15)           75.0216         Frozen                          !
 ! D35   D(8,7,13,12)          -51.4297         estimate D2E/DX2                !
 ! D36   D(8,7,13,14)           65.2456         estimate D2E/DX2                !
 ! D37   D(8,7,13,15)         -170.2859         estimate D2E/DX2                !
 ! D38   D(9,7,13,12)           63.309          estimate D2E/DX2                !
 ! D39   D(9,7,13,14)          179.9843         estimate D2E/DX2                !
 ! D40   D(9,7,13,15)          -55.5472         estimate D2E/DX2                !
 ! D41   D(7,9,10,11)           54.8123         Frozen                          !
 ! D42   D(7,9,10,21)          176.6033         estimate D2E/DX2                !
 ! D43   D(7,9,10,22)          -65.183          estimate D2E/DX2                !
 ! D44   D(19,9,10,11)         -66.3148         estimate D2E/DX2                !
 ! D45   D(19,9,10,21)          55.4761         estimate D2E/DX2                !
 ! D46   D(19,9,10,22)         173.6899         estimate D2E/DX2                !
 ! D47   D(20,9,10,11)         175.4295         estimate D2E/DX2                !
 ! D48   D(20,9,10,21)         -62.7796         estimate D2E/DX2                !
 ! D49   D(20,9,10,22)          55.4342         estimate D2E/DX2                !
 ! D50   D(9,10,11,12)         -52.8226         Frozen                          !
 ! D51   D(9,10,11,23)          67.8098         estimate D2E/DX2                !
 ! D52   D(9,10,11,24)        -174.6561         estimate D2E/DX2                !
 ! D53   D(21,10,11,12)       -174.7076         estimate D2E/DX2                !
 ! D54   D(21,10,11,23)        -54.0752         estimate D2E/DX2                !
 ! D55   D(21,10,11,24)         63.459          estimate D2E/DX2                !
 ! D56   D(22,10,11,12)         67.3935         estimate D2E/DX2                !
 ! D57   D(22,10,11,23)       -171.9741         estimate D2E/DX2                !
 ! D58   D(22,10,11,24)        -54.44           estimate D2E/DX2                !
 ! D59   D(10,11,12,13)         56.6248         estimate D2E/DX2                !
 ! D60   D(10,11,12,25)        177.4545         estimate D2E/DX2                !
 ! D61   D(10,11,12,26)        -64.7845         estimate D2E/DX2                !
 ! D62   D(23,11,12,13)        -63.8652         estimate D2E/DX2                !
 ! D63   D(23,11,12,25)         56.9645         estimate D2E/DX2                !
 ! D64   D(23,11,12,26)        174.7255         estimate D2E/DX2                !
 ! D65   D(24,11,12,13)        178.5279         estimate D2E/DX2                !
 ! D66   D(24,11,12,25)        -60.6424         estimate D2E/DX2                !
 ! D67   D(24,11,12,26)         57.1186         estimate D2E/DX2                !
 ! D68   D(11,12,13,7)         -60.3808         estimate D2E/DX2                !
 ! D69   D(11,12,13,14)       -179.2127         estimate D2E/DX2                !
 ! D70   D(11,12,13,15)         61.9431         estimate D2E/DX2                !
 ! D71   D(25,12,13,7)         178.7923         estimate D2E/DX2                !
 ! D72   D(25,12,13,14)         59.9603         estimate D2E/DX2                !
 ! D73   D(25,12,13,15)        -58.8838         estimate D2E/DX2                !
 ! D74   D(26,12,13,7)          61.0076         estimate D2E/DX2                !
 ! D75   D(26,12,13,14)        -57.8244         estimate D2E/DX2                !
 ! D76   D(26,12,13,15)       -176.6686         estimate D2E/DX2                !
 ! D77   D(7,13,15,16)         -67.1603         Frozen                          !
 ! D78   D(12,13,15,16)        175.4824         estimate D2E/DX2                !
 ! D79   D(14,13,15,16)         57.9386         estimate D2E/DX2                !
 ! D80   D(13,15,16,4)           8.8946         estimate D2E/DX2                !
 ! D81   D(13,15,16,27)       -170.9461         estimate D2E/DX2                !
 --------------------------------------------------------------------------------
 Trust Radius=3.00D-01 FncErr=1.00D-07 GrdErr=1.00D-07 EigMax=2.50D+02 EigMin=1.00D-04
 Number of steps in this run=     20 maximum allowed number of steps=    162.
 GradGradGradGradGradGradGradGradGradGradGradGradGradGradGradGradGradGrad

                          Input orientation:                          
 ---------------------------------------------------------------------
 Center     Atomic      Atomic             Coordinates (Angstroms)
 Number     Number       Type             X           Y           Z
 ---------------------------------------------------------------------
      1          8           0       -3.601990   -1.463440   -0.080930
      2          7           0       -3.250340   -0.288890    0.015420
      3          8           0       -4.035410    0.651220    0.144510
      4          6           0       -1.756200    0.013810   -0.072640
      5          6           0       -1.367980    1.324260    0.227470
      6          7           0       -0.082080    1.767210    0.398150
      7          6           0        1.196120    0.993520    0.366880
      8          1           0        1.857940    1.483740    1.127350
      9          6           0        1.965450    1.055040   -0.976360
     10          6           0        3.375970    0.465010   -0.786760
     11          6           0        3.309890   -0.955850   -0.204610
     12          6           0        2.456830   -0.999100    1.081530
     13          6           0        1.021630   -0.459450    0.833210
     14          1           0        0.468120   -0.505380    1.800390
     15          7           0        0.368270   -1.321000   -0.154900
     16          6           0       -0.871800   -1.117110   -0.456480
     17          1           0       -2.156230    2.083900    0.359670
     18          1           0        0.157220    2.753930    0.274380
     19          1           0        1.418000    0.485730   -1.757390
     20          1           0        2.054310    2.107880   -1.318810
     21          1           0        3.914220    0.448520   -1.759680
     22          1           0        3.951440    1.112140   -0.087680
     23          1           0        2.864570   -1.638190   -0.963460
     24          1           0        4.336540   -1.322940    0.013190
     25          1           0        2.395540   -2.048380    1.444850
     26          1           0        2.948610   -0.395180    1.872660
     27          1           0       -1.375610   -1.868990   -1.082980
 ---------------------------------------------------------------------
                    Distance matrix (angstroms):
                    1          2          3          4          5
     1  O    0.000000
     2  N    1.229841   0.000000
     3  O    2.170360   1.231587   0.000000
     4  C    2.364165   1.527035   2.376603   0.000000
     5  C    3.585691   2.488071   2.752281   1.399307   0.000000
     6  N    4.801706   3.796301   4.115651   2.469561   1.370721
     7  C    5.409163   4.641024   5.247430   3.141529   2.589099
     8  H    6.321127   5.520247   6.032465   4.081994   3.352876
     9  C    6.175834   5.476700   6.117985   3.968822   3.554355
    10  C    7.273860   6.717131   7.471980   5.201223   4.926666
    11  C    6.931596   6.597717   7.527150   5.159741   5.221883
    12  C    6.186778   5.849169   6.763930   4.484163   4.555940
    13  C    4.818870   4.352884   5.223174   2.959878   3.042824
    14  H    4.585089   4.130367   4.935731   2.953879   3.031983
    15  N    3.973503   3.766776   4.834428   2.510350   3.187189
    16  C    2.777574   2.562438   3.673773   1.486094   2.583461
    17  H    3.855901   2.635473   2.372801   2.152252   1.102664
    18  H    5.660752   4.575727   4.692164   3.360038   2.091027
    19  H    5.640043   5.053344   5.777914   3.624450   3.522000
    20  H    6.802970   5.971933   6.430230   4.523058   3.836289
    21  H    7.935188   7.417929   8.177019   5.932010   5.711158
    22  H    7.980474   7.337517   8.003508   5.812376   5.332968
    23  H    6.528843   6.338055   7.353823   4.987402   5.301783
    24  H    7.940331   7.657024   8.602564   6.238249   6.292466
    25  H    6.216150   6.083998   7.094776   4.877740   5.198153
    26  H    6.918674   6.472065   7.270350   5.107514   4.929105
    27  H    2.474943   2.686598   3.864289   2.170385   3.451693
                    6          7          8          9         10
     6  N    0.000000
     7  C    1.494446   0.000000
     8  H    2.091833   1.120998   0.000000
     9  C    2.566874   1.549176   2.149637   0.000000
    10  C    3.880444   2.522291   2.646893   1.540666   0.000000
    11  C    4.391336   2.931666   3.135901   2.539054   1.536915
    12  C    3.816483   2.463869   2.554459   2.948874   2.545377
    13  C    2.522988   1.535914   2.135865   2.541460   3.003639
    14  H    2.726474   2.198098   2.518170   3.519552   4.011308
    15  N    3.169498   2.512885   3.424887   2.978481   3.554622
    16  C    3.110201   3.067405   4.089550   3.610886   4.544858
    17  H    2.098540   3.525228   4.130749   4.453288   5.877103
    18  H    1.022839   2.046195   2.287660   2.778538   4.089685
    19  H    2.922120   2.195360   3.084039   1.110776   2.185452
    20  H    2.761914   2.195413   2.532155   1.110694   2.174600
    21  H    4.729227   3.493902   3.692548   2.186129   1.112006
    22  H    4.115147   2.795082   2.448903   2.176504   1.112949
    23  H    4.704623   3.388130   3.889889   2.839379   2.171682
    24  H    5.405684   3.918331   3.906695   3.500866   2.181600
    25  H    4.668288   3.442932   3.586878   3.959602   3.501208
    26  H    4.004397   2.695753   2.296821   3.344646   2.827557
    27  H    4.133874   4.112159   5.155793   4.441171   5.302152
                   11         12         13         14         15
    11  C    0.000000
    12  C    1.543936   0.000000
    13  C    2.561175   1.553282   0.000000
    14  H    3.506937   2.171517   1.115312   0.000000
    15  N    2.964614   2.448359   1.464756   2.120935   0.000000
    16  C    4.192371   3.668675   2.383463   2.695007   1.292399
    17  H    6.279885   5.595203   4.097763   3.958189   4.269804
    18  H    4.891955   4.474923   3.374212   3.612266   4.102911
    19  H    2.840515   3.367990   2.785980   3.813446   2.633283
    20  H    3.493475   3.946768   3.505539   4.367440   3.994325
    21  H    2.180760   3.506004   3.989306   5.045754   4.275545
    22  H    2.168373   2.838705   3.449887   4.279567   4.331720
    23  H    1.113441   2.180980   2.830880   3.829504   2.643084
    24  H    1.111846   2.186214   3.522311   4.339028   3.971829
    25  H    2.179536   1.112091   2.187791   2.494435   2.682929
    26  H    2.181725   1.110159   2.190397   2.483988   3.409736
    27  H    4.853789   4.486581   3.377180   3.684100   2.050059
                   16         17         18         19         20
    16  C    0.000000
    17  H    3.544337   0.000000
    18  H    4.071608   2.410034   0.000000
    19  H    3.082961   4.450979   3.295814   0.000000
    20  H    4.439177   4.532827   2.560192   1.796834   0.000000
    21  H    5.201492   6.634491   4.854623   2.496498   2.531226
    22  H    5.326276   6.200651   4.150020   3.098167   2.471089
    23  H    3.806444   6.388510   5.305913   2.689596   3.849134
    24  H    5.233523   7.340482   5.844297   3.863174   4.330511
    25  H    3.893306   6.242753   5.426072   4.199005   5.002874
    26  H    4.532285   5.873191   4.501472   4.036834   4.153380
    27  H    1.100750   4.279713   5.056024   3.715345   5.256944
                   21         22         23         24         25
    21  H    0.000000
    22  H    1.799267   0.000000
    23  H    2.467811   3.084249   0.000000
    24  H    2.541553   2.467406   1.794415   0.000000
    25  H    4.337039   3.841661   2.487610   2.518610   0.000000
    26  H    3.852029   2.668448   3.097695   2.498943   1.794987
    27  H    5.814729   6.185080   4.248138   5.841953   4.543531
                   26         27
    26  H    0.000000
    27  H    5.441213   0.000000
 Symmetry turned off by external request.
 Stoichiometry    C9H13N3O2
 Framework group  C1[X(C9H13N3O2)]
 Deg. of freedom    75
 Full point group                 C1      NOp   1
 Rotational constants (GHZ):           1.6742802           0.4015210           0.3554846
 Standard basis: 6-31G(d) (6D, 7F)
   236 basis functions,   444 primitive gaussians,   236 cartesian basis functions
    52 alpha electrons       52 beta electrons
       nuclear repulsion energy       917.6838346519 Hartrees.
 NAtoms=   27 NActive=   27 NUniq=   27 SFac= 1.00D+00 NAtFMM=   60 NAOKFM=F Big=F
 Integral buffers will be    131072 words long.
 Raffenetti 1 integral format.
 Two-electron integral symmetry is turned off.
 One-electron integrals computed using PRISM.
 NBasis=   236 RedAO= T EigKep=  1.30D-03  NBF=   236
 NBsUse=   236 1.00D-06 EigRej= -1.00D+00 NBFU=   236
 ExpMin= 1.61D-01 ExpMax= 5.48D+03 ExpMxC= 8.25D+02 IAcc=3 IRadAn=         5 AccDes= 0.00D+00
 Harris functional with IExCor=  205 and IRadAn=       5 diagonalized for initial guess.
 HarFok:  IExCor=  205 AccDes= 0.00D+00 IRadAn=         5 IDoV= 1 UseB2=F ITyADJ=14
 ICtDFT=  3500011 ScaDFX=  1.000000  1.000000  1.000000  1.000000
 FoFCou: FMM=F IPFlag=           0 FMFlag=      100000 FMFlg1=           0
         NFxFlg=           0 DoJE=T BraDBF=F KetDBF=T FulRan=T
         wScrn=  0.000000 ICntrl=       500 IOpCl=  0 I1Cent=   200000004 NGrid=           0
         NMat0=    1 NMatS0=      1 NMatT0=    0 NMatD0=    1 NMtDS0=    0 NMtDT0=    0
 Symmetry not used in FoFCou.
 Keep R1 ints in memory in canonical form, NReq=397720213.
 Requested convergence on RMS density matrix=1.00D-08 within 128 cycles.
 Requested convergence on MAX density matrix=1.00D-06.
 Requested convergence on             energy=1.00D-06.
 No special actions if energy rises.
 SCF Done:  E(RHF) =  -661.281336898     A.U. after   16 cycles
            NFock= 16  Conv=0.83D-08     -V/T= 2.0037
 ExpMin= 1.61D-01 ExpMax= 5.48D+03 ExpMxC= 8.25D+02 IAcc=3 IRadAn=         5 AccDes= 0.00D+00
 HarFok:  IExCor=  205 AccDes= 0.00D+00 IRadAn=         5 IDoV=-2 UseB2=F ITyADJ=14
 ICtDFT= 12500011 ScaDFX=  1.000000  1.000000  1.000000  1.000000
 Range of M.O.s used for correlation:    15   236
 NBasis=   236 NAE=    52 NBE=    52 NFC=    14 NFV=     0
 NROrb=    222 NOA=    38 NOB=    38 NVA=   184 NVB=   184
 Fully direct method using O(ONN) memory.
 JobTyp=1 Pass  1:  I=  15 to  52 NPSUse=  4 ParTrn=T ParDer=T DoDerP=T.
 Spin components of T(2) and E(2):
     alpha-alpha T2 =       0.9197178891D-01 E2=     -0.2717701581D+00
     alpha-beta  T2 =       0.4996239650D+00 E2=     -0.1493743265D+01
     beta-beta   T2 =       0.9197178891D-01 E2=     -0.2717701581D+00
 ANorm=    0.1297523619D+01
 E2 =    -0.2037283581D+01 EUMP2 =    -0.66331862047869D+03
          IDoAtm=111111111111111111111111111
          Differentiating once with respect to electric field.
                with respect to dipole field.
          Differentiating once with respect to nuclear coordinates.
 Keep R1 ints in memory in canonical form, NReq=397723379.
          There are     1 degrees of freedom in the 1st order CPHF.  IDoFFX=0 NUNeed=     1.
 LinEq1:  Iter=  0 NonCon=     1 RMS=4.61D-03 Max=1.14D-01 NDo=     1
 AX will form     1 AO Fock derivatives at one time.
 LinEq1:  Iter=  1 NonCon=     1 RMS=1.57D-03 Max=3.05D-02 NDo=     1
 LinEq1:  Iter=  2 NonCon=     1 RMS=6.40D-04 Max=1.85D-02 NDo=     1
 LinEq1:  Iter=  3 NonCon=     1 RMS=2.93D-04 Max=9.22D-03 NDo=     1
 LinEq1:  Iter=  4 NonCon=     1 RMS=9.00D-05 Max=2.05D-03 NDo=     1
 LinEq1:  Iter=  5 NonCon=     1 RMS=3.73D-05 Max=1.87D-03 NDo=     1
 LinEq1:  Iter=  6 NonCon=     1 RMS=1.52D-05 Max=5.71D-04 NDo=     1
 LinEq1:  Iter=  7 NonCon=     1 RMS=5.83D-06 Max=9.78D-05 NDo=     1
 LinEq1:  Iter=  8 NonCon=     1 RMS=2.31D-06 Max=5.85D-05 NDo=     1
 LinEq1:  Iter=  9 NonCon=     1 RMS=8.44D-07 Max=2.40D-05 NDo=     1
 LinEq1:  Iter= 10 NonCon=     1 RMS=4.21D-07 Max=1.56D-05 NDo=     1
 LinEq1:  Iter= 11 NonCon=     1 RMS=1.51D-07 Max=5.73D-06 NDo=     1
 LinEq1:  Iter= 12 NonCon=     1 RMS=5.30D-08 Max=8.10D-07 NDo=     1
 LinEq1:  Iter= 13 NonCon=     1 RMS=1.65D-08 Max=2.74D-07 NDo=     1
 LinEq1:  Iter= 14 NonCon=     1 RMS=4.99D-09 Max=8.94D-08 NDo=     1
 LinEq1:  Iter= 15 NonCon=     1 RMS=1.78D-09 Max=3.80D-08 NDo=     1
 LinEq1:  Iter= 16 NonCon=     1 RMS=6.94D-10 Max=1.14D-08 NDo=     1
 LinEq1:  Iter= 17 NonCon=     1 RMS=2.32D-10 Max=3.65D-09 NDo=     1
 LinEq1:  Iter= 18 NonCon=     1 RMS=8.22D-11 Max=1.10D-09 NDo=     1
 LinEq1:  Iter= 19 NonCon=     0 RMS=2.79D-11 Max=4.94D-10 NDo=     1
 Linear equations converged to 1.000D-10 1.000D-09 after    19 iterations.
 End of Minotr F.D. properties file   721 does not exist.
 End of Minotr F.D. properties file   722 does not exist.
 End of Minotr F.D. properties file   788 does not exist.

 **********************************************************************

            Population analysis using the SCF Density.

 **********************************************************************

 Alpha  occ. eigenvalues --  -20.59772 -20.59313 -15.85208 -15.63576 -15.56758
 Alpha  occ. eigenvalues --  -11.35908 -11.30453 -11.30138 -11.29945 -11.27676
 Alpha  occ. eigenvalues --  -11.24669 -11.23906 -11.23395 -11.22859  -1.58415
 Alpha  occ. eigenvalues --   -1.37923  -1.28686  -1.22714  -1.13291  -1.08369
 Alpha  occ. eigenvalues --   -1.01820  -1.00695  -0.93615  -0.88953  -0.84956
 Alpha  occ. eigenvalues --   -0.81554  -0.77989  -0.76985  -0.74313  -0.71243
 Alpha  occ. eigenvalues --   -0.70281  -0.69690  -0.67364  -0.64395  -0.63262
 Alpha  occ. eigenvalues --   -0.61800  -0.60182  -0.57325  -0.56554  -0.54882
 Alpha  occ. eigenvalues --   -0.53778  -0.50712  -0.49470  -0.48440  -0.47825
 Alpha  occ. eigenvalues --   -0.47658  -0.46164  -0.45692  -0.43954  -0.42055
 Alpha  occ. eigenvalues --   -0.39856  -0.33743
 Alpha virt. eigenvalues --    0.07587   0.11832   0.17942   0.21172   0.23164
 Alpha virt. eigenvalues --    0.24187   0.26464   0.27944   0.28558   0.28870
 Alpha virt. eigenvalues --    0.29908   0.31022   0.31849   0.32288   0.33344
 Alpha virt. eigenvalues --    0.33793   0.34412   0.35487   0.37565   0.38608
 Alpha virt. eigenvalues --    0.40558   0.41643   0.44342   0.45226   0.45589
 Alpha virt. eigenvalues --    0.46296   0.49763   0.53186   0.57509   0.59087
 Alpha virt. eigenvalues --    0.63186   0.69096   0.69169   0.72222   0.74051
 Alpha virt. eigenvalues --    0.74880   0.75741   0.75838   0.77898   0.79047
 Alpha virt. eigenvalues --    0.80667   0.83669   0.84917   0.85375   0.87987
 Alpha virt. eigenvalues --    0.88984   0.90188   0.90521   0.91810   0.93937
 Alpha virt. eigenvalues --    0.94789   0.97272   0.98863   1.00425   1.01966
 Alpha virt. eigenvalues --    1.02784   1.05025   1.06421   1.06987   1.08715
 Alpha virt. eigenvalues --    1.09631   1.10434   1.11175   1.12204   1.13266
 Alpha virt. eigenvalues --    1.13822   1.14054   1.15434   1.16312   1.17176
 Alpha virt. eigenvalues --    1.17893   1.19917   1.21319   1.22130   1.22854
 Alpha virt. eigenvalues --    1.23330   1.24036   1.25643   1.27081   1.27780
 Alpha virt. eigenvalues --    1.29355   1.31420   1.33188   1.36342   1.39904
 Alpha virt. eigenvalues --    1.42826   1.46420   1.47482   1.48883   1.53193
 Alpha virt. eigenvalues --    1.54441   1.55988   1.59584   1.61626   1.65168
 Alpha virt. eigenvalues --    1.68653   1.70572   1.72438   1.73975   1.76218
 Alpha virt. eigenvalues --    1.78054   1.79701   1.84593   1.89378   1.92039
 Alpha virt. eigenvalues --    1.93483   1.95685   1.97499   1.98976   2.00778
 Alpha virt. eigenvalues --    2.02825   2.03892   2.06026   2.08966   2.12003
 Alpha virt. eigenvalues --    2.13018   2.13518   2.17695   2.19037   2.19535
 Alpha virt. eigenvalues --    2.20565   2.22087   2.24163   2.25470   2.26287
 Alpha virt. eigenvalues --    2.29536   2.32249   2.33350   2.35602   2.36186
 Alpha virt. eigenvalues --    2.38855   2.39662   2.41359   2.43159   2.46575
 Alpha virt. eigenvalues --    2.48752   2.49746   2.50632   2.56560   2.57464
 Alpha virt. eigenvalues --    2.60619   2.62957   2.65815   2.68510   2.68966
 Alpha virt. eigenvalues --    2.69680   2.70126   2.74419   2.77370   2.81286
 Alpha virt. eigenvalues --    2.84777   2.86779   2.89946   2.91209   2.95168
 Alpha virt. eigenvalues --    2.97460   2.98106   3.01976   3.03917   3.05582
 Alpha virt. eigenvalues --    3.07249   3.12989   3.19001   3.22553   3.27052
 Alpha virt. eigenvalues --    3.30496   3.33716   3.37352   3.43323   3.59935
 Alpha virt. eigenvalues --    4.09691   4.23084   4.31534   4.36188   4.43012
 Alpha virt. eigenvalues --    4.52706   4.59639   4.60338   4.70725   4.77485
 Alpha virt. eigenvalues --    4.96551   4.99234   5.02929   5.09861
          Condensed to atoms (all electrons):
               1          2          3          4          5          6
     1  O    8.299160   0.314736  -0.089764  -0.079602   0.003529  -0.000012
     2  N    0.314736   5.680955   0.307593   0.267647  -0.046512   0.000830
     3  O   -0.089764   0.307593   8.332838  -0.087612   0.008102   0.000457
     4  C   -0.079602   0.267647  -0.087612   5.250396   0.564891  -0.047781
     5  C    0.003529  -0.046512   0.008102   0.564891   4.672794   0.308331
     6  N   -0.000012   0.000830   0.000457  -0.047781   0.308331   7.182030
     7  C    0.000003  -0.000093   0.000003   0.004062  -0.029056   0.199447
     8  H   -0.000000   0.000002  -0.000000  -0.000192   0.002590  -0.049219
     9  C   -0.000000  -0.000003   0.000000   0.000487   0.001225  -0.056478
    10  C   -0.000000   0.000000  -0.000000  -0.000020  -0.000050   0.003335
    11  C   -0.000000  -0.000000  -0.000000  -0.000015   0.000015  -0.000155
    12  C   -0.000000   0.000002  -0.000000  -0.000104  -0.000147   0.003619
    13  C   -0.000020  -0.000027  -0.000003  -0.010129   0.000498  -0.045263
    14  H   -0.000003  -0.000054   0.000000   0.003072   0.004364  -0.005497
    15  N    0.000122   0.001709  -0.000015  -0.061931  -0.003447   0.001723
    16  C    0.003954  -0.027888   0.001925   0.318870  -0.041326  -0.001131
    17  H    0.000134  -0.004252   0.012221  -0.026717   0.376849  -0.033736
    18  H    0.000000  -0.000035   0.000007   0.001124  -0.024493   0.328307
    19  H    0.000000   0.000000   0.000000  -0.000778   0.000772   0.000516
    20  H    0.000000  -0.000000   0.000000  -0.000025   0.000036  -0.001519
    21  H   -0.000000  -0.000000   0.000000   0.000000   0.000001  -0.000060
    22  H   -0.000000   0.000000  -0.000000  -0.000000  -0.000002  -0.000096
    23  H    0.000000  -0.000000   0.000000   0.000025  -0.000000  -0.000024
    24  H    0.000000   0.000000   0.000000   0.000000  -0.000000   0.000005
    25  H    0.000000  -0.000000   0.000000   0.000019  -0.000000  -0.000071
    26  H    0.000000  -0.000000   0.000000   0.000006  -0.000000  -0.000069
    27  H    0.005022  -0.000513  -0.000013  -0.066657   0.002209   0.000034
               7          8          9         10         11         12
     1  O    0.000003  -0.000000  -0.000000  -0.000000  -0.000000  -0.000000
     2  N   -0.000093   0.000002  -0.000003   0.000000  -0.000000   0.000002
     3  O    0.000003  -0.000000   0.000000  -0.000000  -0.000000  -0.000000
     4  C    0.004062  -0.000192   0.000487  -0.000020  -0.000015  -0.000104
     5  C   -0.029056   0.002590   0.001225  -0.000050   0.000015  -0.000147
     6  N    0.199447  -0.049219  -0.056478   0.003335  -0.000155   0.003619
     7  C    5.008707   0.416098   0.341246  -0.049311  -0.007758  -0.064245
     8  H    0.416098   0.545979  -0.060018   0.001387  -0.000321  -0.002890
     9  C    0.341246  -0.060018   5.180378   0.318136  -0.053088  -0.006115
    10  C   -0.049311   0.001387   0.318136   5.126725   0.332692  -0.060241
    11  C   -0.007758  -0.000321  -0.053088   0.332692   5.124302   0.330488
    12  C   -0.064245  -0.002890  -0.006115  -0.060241   0.330488   5.137698
    13  C    0.330867  -0.039946  -0.051366  -0.001571  -0.047852   0.368277
    14  H   -0.040188  -0.000968   0.003856  -0.000390   0.003960  -0.040845
    15  N   -0.058023   0.004000  -0.012659   0.001419  -0.007749  -0.074281
    16  C   -0.002303   0.000019  -0.000894  -0.000025   0.000003   0.002477
    17  H    0.001365  -0.000021  -0.000070   0.000001   0.000000   0.000001
    18  H   -0.028657  -0.002843   0.000769  -0.000115   0.000011  -0.000138
    19  H   -0.035108   0.004076   0.386215  -0.032610  -0.002246   0.000616
    20  H   -0.041775  -0.001844   0.397211  -0.037305   0.004134  -0.000365
    21  H    0.004049  -0.000079  -0.035830   0.400115  -0.035814   0.004214
    22  H   -0.004260   0.003509  -0.045709   0.395975  -0.045617  -0.001220
    23  H    0.000432   0.000034  -0.002006  -0.040086   0.396669  -0.036587
    24  H   -0.000142  -0.000100   0.004400  -0.038496   0.400287  -0.037871
    25  H    0.004998  -0.000005  -0.000372   0.004098  -0.033883   0.395382
    26  H   -0.004472   0.001592   0.001051  -0.002411  -0.042351   0.394637
    27  H   -0.000400   0.000009  -0.000062   0.000005   0.000005  -0.000019
              13         14         15         16         17         18
     1  O   -0.000020  -0.000003   0.000122   0.003954   0.000134   0.000000
     2  N   -0.000027  -0.000054   0.001709  -0.027888  -0.004252  -0.000035
     3  O   -0.000003   0.000000  -0.000015   0.001925   0.012221   0.000007
     4  C   -0.010129   0.003072  -0.061931   0.318870  -0.026717   0.001124
     5  C    0.000498   0.004364  -0.003447  -0.041326   0.376849  -0.024493
     6  N   -0.045263  -0.005497   0.001723  -0.001131  -0.033736   0.328307
     7  C    0.330867  -0.040188  -0.058023  -0.002303   0.001365  -0.028657
     8  H   -0.039946  -0.000968   0.004000   0.000019  -0.000021  -0.002843
     9  C   -0.051366   0.003856  -0.012659  -0.000894  -0.000070   0.000769
    10  C   -0.001571  -0.000390   0.001419  -0.000025   0.000001  -0.000115
    11  C   -0.047852   0.003960  -0.007749   0.000003   0.000000   0.000011
    12  C    0.368277  -0.040845  -0.074281   0.002477   0.000001  -0.000138
    13  C    5.022140   0.402857   0.240337  -0.069353  -0.000025   0.003728
    14  H    0.402857   0.518148  -0.035566  -0.004963   0.000056   0.000004
    15  N    0.240337  -0.035566   6.937254   0.588142  -0.000058  -0.000123
    16  C   -0.069353  -0.004963   0.588142   4.695895   0.001660  -0.000204
    17  H   -0.000025   0.000056  -0.000058   0.001660   0.386031  -0.001836
    18  H    0.003728   0.000004  -0.000123  -0.000204  -0.001836   0.325304
    19  H   -0.006200   0.000065   0.006909   0.002521   0.000012  -0.000123
    20  H    0.003874  -0.000050   0.000078  -0.000031  -0.000001   0.002744
    21  H   -0.000383   0.000009  -0.000031   0.000002  -0.000000  -0.000000
    22  H    0.000319  -0.000044   0.000003  -0.000001   0.000000   0.000002
    23  H   -0.005889   0.000008   0.006819   0.000064   0.000000   0.000000
    24  H    0.004142  -0.000058   0.000044   0.000005   0.000000  -0.000000
    25  H   -0.034397  -0.002668   0.000817  -0.000060  -0.000000   0.000002
    26  H   -0.044855  -0.000889   0.004192  -0.000053   0.000000  -0.000001
    27  H    0.004903  -0.000176  -0.040109   0.402768  -0.000059   0.000002
              19         20         21         22         23         24
     1  O    0.000000   0.000000  -0.000000  -0.000000   0.000000   0.000000
     2  N    0.000000  -0.000000  -0.000000   0.000000  -0.000000   0.000000
     3  O    0.000000   0.000000   0.000000  -0.000000   0.000000   0.000000
     4  C   -0.000778  -0.000025   0.000000  -0.000000   0.000025   0.000000
     5  C    0.000772   0.000036   0.000001  -0.000002  -0.000000  -0.000000
     6  N    0.000516  -0.001519  -0.000060  -0.000096  -0.000024   0.000005
     7  C   -0.035108  -0.041775   0.004049  -0.004260   0.000432  -0.000142
     8  H    0.004076  -0.001844  -0.000079   0.003509   0.000034  -0.000100
     9  C    0.386215   0.397211  -0.035830  -0.045709  -0.002006   0.004400
    10  C   -0.032610  -0.037305   0.400115   0.395975  -0.040086  -0.038496
    11  C   -0.002246   0.004134  -0.035814  -0.045617   0.396669   0.400287
    12  C    0.000616  -0.000365   0.004214  -0.001220  -0.036587  -0.037871
    13  C   -0.006200   0.003874  -0.000383   0.000319  -0.005889   0.004142
    14  H    0.000065  -0.000050   0.000009  -0.000044   0.000008  -0.000058
    15  N    0.006909   0.000078  -0.000031   0.000003   0.006819   0.000044
    16  C    0.002521  -0.000031   0.000002  -0.000001   0.000064   0.000005
    17  H    0.000012  -0.000001  -0.000000   0.000000   0.000000   0.000000
    18  H   -0.000123   0.002744  -0.000000   0.000002   0.000000  -0.000000
    19  H    0.506737  -0.023987  -0.002593   0.003756   0.001643  -0.000070
    20  H   -0.023987   0.549784  -0.002627  -0.002961  -0.000049  -0.000090
    21  H   -0.002593  -0.002627   0.525937  -0.024684  -0.002812  -0.002065
    22  H    0.003756  -0.002961  -0.024684   0.568901   0.004060  -0.003595
    23  H    0.001643  -0.000049  -0.002812   0.004060   0.509413  -0.024971
    24  H   -0.000070  -0.000090  -0.002065  -0.003595  -0.024971   0.541019
    25  H   -0.000027   0.000011  -0.000086  -0.000082  -0.002086  -0.002384
    26  H    0.000022  -0.000035  -0.000074   0.002465   0.003820  -0.002759
    27  H    0.000077   0.000000  -0.000000   0.000000  -0.000022  -0.000000
              25         26         27
     1  O    0.000000   0.000000   0.005022
     2  N   -0.000000  -0.000000  -0.000513
     3  O    0.000000   0.000000  -0.000013
     4  C    0.000019   0.000006  -0.066657
     5  C   -0.000000  -0.000000   0.002209
     6  N   -0.000071  -0.000069   0.000034
     7  C    0.004998  -0.004472  -0.000400
     8  H   -0.000005   0.001592   0.000009
     9  C   -0.000372   0.001051  -0.000062
    10  C    0.004098  -0.002411   0.000005
    11  C   -0.033883  -0.042351   0.000005
    12  C    0.395382   0.394637  -0.000019
    13  C   -0.034397  -0.044855   0.004903
    14  H   -0.002668  -0.000889  -0.000176
    15  N    0.000817   0.004192  -0.040109
    16  C   -0.000060  -0.000053   0.402768
    17  H   -0.000000   0.000000  -0.000059
    18  H    0.000002  -0.000001   0.000002
    19  H   -0.000027   0.000022   0.000077
    20  H    0.000011  -0.000035   0.000000
    21  H   -0.000086  -0.000074  -0.000000
    22  H   -0.000082   0.002465   0.000000
    23  H   -0.002086   0.003820  -0.000022
    24  H   -0.002384  -0.002759  -0.000000
    25  H    0.509926  -0.023083  -0.000011
    26  H   -0.023083   0.561292   0.000001
    27  H   -0.000011   0.000001   0.455745
 Mulliken charges:
               1
     1  O   -0.457259
     2  N    0.505905
     3  O   -0.485739
     4  C   -0.029037
     5  C    0.198826
     6  N   -0.787523
     7  C    0.054514
     8  H    0.179151
     9  C   -0.310306
    10  C   -0.321257
    11  C   -0.315716
    12  C   -0.312341
    13  C   -0.024664
    14  H    0.195959
    15  N   -0.499574
    16  C    0.129930
    17  H    0.288445
    18  H    0.396564
    19  H    0.189803
    20  H    0.154792
    21  H    0.172810
    22  H    0.149281
    23  H    0.191544
    24  H    0.162699
    25  H    0.183962
    26  H    0.151974
    27  H    0.237260
 Sum of Mulliken charges =  -0.00000
 Mulliken charges with hydrogens summed into heavy atoms:
               1
     1  O   -0.457259
     2  N    0.505905
     3  O   -0.485739
     4  C   -0.029037
     5  C    0.487271
     6  N   -0.390959
     7  C    0.233665
     9  C    0.034289
    10  C    0.000834
    11  C    0.038527
    12  C    0.023595
    13  C    0.171295
    15  N   -0.499574
    16  C    0.367190
 Electronic spatial extent (au):  <R**2>=           3121.1380
 Charge=              0.0000 electrons
 Dipole moment (field-independent basis, Debye):
    X=              5.4043    Y=              4.5952    Z=              0.3677  Tot=              7.1034
 Quadrupole moment (field-independent basis, Debye-Ang):
   XX=           -105.4375   YY=            -80.0946   ZZ=            -82.3175
   XY=             -1.9461   XZ=              1.6470   YZ=              0.2428
 Traceless Quadrupole moment (field-independent basis, Debye-Ang):
   XX=            -16.1543   YY=              9.1886   ZZ=              6.9657
   XY=             -1.9461   XZ=              1.6470   YZ=              0.2428
 Octapole moment (field-independent basis, Debye-Ang**2):
  XXX=            100.9598  YYY=             37.9802  ZZZ=             -6.0981  XYY=             -1.4355
  XXY=             12.1599  XXZ=             -3.1967  XZZ=             -8.1850  YZZ=             -2.9907
  YYZ=              0.2732  XYZ=             -1.7637
 Hexadecapole moment (field-independent basis, Debye-Ang**3):
 XXXX=          -3551.0059 YYYY=           -622.1672 ZZZZ=           -296.3637 XXXY=            -43.2021
 XXXZ=             41.2838 YYYX=            -23.4606 YYYZ=             15.6676 ZZZX=             26.8304
 ZZZY=             11.4620 XXYY=           -656.2730 XXZZ=           -541.9084 YYZZ=           -164.8796
 XXYZ=              5.5795 YYXZ=             15.0988 ZZXY=              3.0855
 N-N= 9.176838346519D+02 E-N=-3.381384313560D+03  KE= 6.588575355435D+02
 Calling FoFJK, ICntrl=  10002127 FMM=F ISym2X=0 I1Cent= 0 IOpClX= 0 NMat=1 NMatS=1 NMatT=0.
 -------------------------------------------------------------------
 Center     Atomic                   Forces (Hartrees/Bohr)
 Number     Number              X              Y              Z
 -------------------------------------------------------------------
      1        8           0.002810219   -0.019375453   -0.001138220
      2        7           0.038880628    0.015182591   -0.009582126
      3        8          -0.005683531    0.015955297    0.004012107
      4        6          -0.003247382    0.007322923    0.012680606
      5        6           0.003831456   -0.015573446   -0.005053173
      6        7           0.014136911   -0.008636524   -0.008586943
      7        6          -0.004739441    0.004876298    0.003605201
      8        1          -0.010398477   -0.001620107   -0.007719713
      9        6          -0.003987717    0.000492862   -0.002266284
     10        6           0.002794929   -0.000970479    0.001036613
     11        6          -0.000959751   -0.004599312   -0.002398327
     12        6           0.000727979   -0.008799537   -0.003027303
     13        6           0.008582865   -0.002018640    0.004587540
     14        1           0.001100482    0.004424484   -0.009910287
     15        7           0.000353822    0.000026836    0.001419213
     16        6          -0.020589908    0.007402846    0.005156603
     17        1           0.007601300   -0.007138247   -0.001204953
     18        1          -0.017659767   -0.001924098    0.003899775
     19        1           0.003061898    0.005801323    0.007745037
     20        1          -0.003263840   -0.007407065    0.002540294
     21        1          -0.004399762    0.002359115    0.009612063
     22        1          -0.003976541   -0.003907607   -0.007438349
     23        1           0.003941100    0.006062550    0.009366462
     24        1          -0.009359767    0.002647757   -0.002148515
     25        1          -0.000773023    0.010624076   -0.002360293
     26        1          -0.004754961   -0.004742117   -0.004401467
     27        1           0.005970281    0.003533672    0.001574439
 -------------------------------------------------------------------
 Cartesian Forces:  Max     0.038880628 RMS     0.008441120

 GradGradGradGradGradGradGradGradGradGradGradGradGradGradGradGradGradGrad
 Berny optimization.
 FormGI is forming the generalized inverse of G from B-inverse, IUseBI=4.
 Internal  Forces:  Max     0.037950135 RMS     0.006901106
 Search for a local minimum.
 Step number   1 out of a maximum of   20
 All quantities printed in internal units (Hartrees-Bohrs-Radians)
 Mixed Optimization -- RFO/linear search
 Second derivative matrix not updated -- first step.
 ITU=  0
     Eigenvalues ---    0.00233   0.00771   0.01074   0.01173   0.01413
     Eigenvalues ---    0.01516   0.01534   0.01596   0.01981   0.02021
     Eigenvalues ---    0.02688   0.03665   0.04507   0.04695   0.04837
     Eigenvalues ---    0.05076   0.05138   0.05304   0.05886   0.06261
     Eigenvalues ---    0.07212   0.07699   0.07721   0.07863   0.07993
     Eigenvalues ---    0.08049   0.08050   0.10457   0.11734   0.12264
     Eigenvalues ---    0.13416   0.15196   0.15592   0.15998   0.16000
     Eigenvalues ---    0.20041   0.22017   0.23124   0.24999   0.25000
     Eigenvalues ---    0.25000   0.25361   0.26200   0.26650   0.27979
     Eigenvalues ---    0.28082   0.28462   0.29699   0.31463   0.31734
     Eigenvalues ---    0.32044   0.32238   0.32290   0.32380   0.32389
     Eigenvalues ---    0.32405   0.32518   0.32527   0.32583   0.33385
     Eigenvalues ---    0.33389   0.33599   0.35319   0.43888   0.44282
     Eigenvalues ---    0.49278   0.67093   0.90428   0.911531000.00000
     Eigenvalues --- 1000.000001000.000001000.000001000.000001000.00000
     Eigenvalues --- 1000.000001000.000001000.000001000.000001000.00000
     Eigenvalues --- 1000.000001000.000001000.000001000.000001000.00000
     Eigenvalues --- 1000.000001000.000001000.000001000.000001000.00000
     Eigenvalues --- 1000.000001000.000001000.000001000.000001000.00000
     Eigenvalues --- 1000.000001000.000001000.000001000.000001000.00000
     Eigenvalues --- 1000.000001000.000001000.000001000.000001000.00000
     Eigenvalues --- 1000.000001000.000001000.000001000.000001000.00000
     Eigenvalues --- 1000.000001000.000001000.000001000.000001000.00000
     Eigenvalues --- 1000.000001000.000001000.000001000.000001000.00000
     Eigenvalues --- 1000.000001000.000001000.000001000.000001000.00000
     Eigenvalues --- 1000.000001000.000001000.000001000.000001000.00000
     Eigenvalues --- 1000.000001000.000001000.000001000.000001000.00000
     Eigenvalues --- 1000.000001000.000001000.000001000.000001000.00000
     Eigenvalues --- 1000.000001000.000001000.000001000.000001000.00000
     Eigenvalues --- 1000.000001000.000001000.000001000.000001000.00000
     Eigenvalues --- 1000.000001000.000001000.000001000.000001000.00000
     Eigenvalues --- 1000.000001000.000001000.000001000.000001000.00000
     Eigenvalues --- 1000.00000
 RFO step:  Lambda=-2.38433534D-02 EMin= 2.33466113D-03
 Linear search not attempted -- first point.
 Iteration  1 RMS(Cart)=  0.05679619 RMS(Int)=  0.00111006
 Iteration  2 RMS(Cart)=  0.00134350 RMS(Int)=  0.00026201
 Iteration  3 RMS(Cart)=  0.00000115 RMS(Int)=  0.00026201
 Iteration  4 RMS(Cart)=  0.00000000 RMS(Int)=  0.00026201
 Iteration  1 RMS(Cart)=  0.00002379 RMS(Int)=  0.00002470
 Iteration  2 RMS(Cart)=  0.00001481 RMS(Int)=  0.00002675
 Iteration  3 RMS(Cart)=  0.00001063 RMS(Int)=  0.00003010
 Iteration  4 RMS(Cart)=  0.00000838 RMS(Int)=  0.00003336
 Iteration  5 RMS(Cart)=  0.00000692 RMS(Int)=  0.00003627
 Iteration  6 RMS(Cart)=  0.00000584 RMS(Int)=  0.00003883
 Iteration  7 RMS(Cart)=  0.00000496 RMS(Int)=  0.00004104
 Iteration  8 RMS(Cart)=  0.00000422 RMS(Int)=  0.00004296
 Iteration  9 RMS(Cart)=  0.00000359 RMS(Int)=  0.00004461
 Iteration 10 RMS(Cart)=  0.00000305 RMS(Int)=  0.00004602
 Iteration 11 RMS(Cart)=  0.00000259 RMS(Int)=  0.00004722
 Iteration 12 RMS(Cart)=  0.00000220 RMS(Int)=  0.00004825
 Iteration 13 RMS(Cart)=  0.00000186 RMS(Int)=  0.00004912
 Iteration 14 RMS(Cart)=  0.00000157 RMS(Int)=  0.00004987
 Iteration 15 RMS(Cart)=  0.00000133 RMS(Int)=  0.00005050
 Iteration 16 RMS(Cart)=  0.00000113 RMS(Int)=  0.00005104
 Iteration 17 RMS(Cart)=  0.00000095 RMS(Int)=  0.00005149
 Variable       Old X    -DE/DX   Delta X   Delta X   Delta X     New X
                                 (Linear)    (Quad)   (Total)
    R1        2.32406   0.01779   0.00000   0.01902   0.01902   2.34308
    R2        2.32736   0.01622   0.00000   0.01748   0.01748   2.34484
    R3        2.88568  -0.03795   0.00000  -0.11829  -0.11829   2.76739
    R4        2.64431  -0.03393   0.00000  -0.07316  -0.07293   2.57138
    R5        2.80831  -0.02134   0.00000  -0.06109  -0.06082   2.74749
    R6        2.59029  -0.02556   0.00000  -0.04939  -0.04935   2.54094
    R7        2.08373  -0.01050   0.00000  -0.02934  -0.02934   2.05439
    R8        2.82409  -0.01928   0.00000  -0.05359  -0.05376   2.77033
    R9        1.93289  -0.00646   0.00000  -0.01396  -0.01396   1.91893
   R10        2.11838  -0.01208   0.00000  -0.03570  -0.03570   2.08268
   R11        2.92752  -0.01298   0.00000  -0.04397  -0.04398   2.88354
   R12        2.90246  -0.00386   0.00000  -0.00746  -0.00750   2.89495
   R13        2.91144  -0.00455   0.00000  -0.01433  -0.01436   2.89707
   R14        2.09906  -0.00993   0.00000  -0.02845  -0.02845   2.07062
   R15        2.09891  -0.00807   0.00000  -0.02310  -0.02310   2.07580
   R16        2.90435  -0.00177   0.00000  -0.00715  -0.00723   2.89712
   R17        2.10139  -0.01057   0.00000  -0.03041  -0.03041   2.07098
   R18        2.10317  -0.00900   0.00000  -0.02596  -0.02596   2.07721
   R19        2.91762  -0.00909   0.00000  -0.02899  -0.02899   2.88863
   R20        2.10410  -0.01168   0.00000  -0.03372  -0.03372   2.07038
   R21        2.10108  -0.00994   0.00000  -0.02856  -0.02856   2.07252
   R22        2.93528  -0.01070   0.00000  -0.03655  -0.03652   2.89875
   R23        2.10155  -0.01075   0.00000  -0.03093  -0.03093   2.07062
   R24        2.09790  -0.00782   0.00000  -0.02237  -0.02237   2.07553
   R25        2.10763  -0.00932   0.00000  -0.02708  -0.02708   2.08056
   R26        2.76799  -0.00544   0.00000  -0.01110  -0.01136   2.75663
   R27        2.44228  -0.00590   0.00000  -0.00790  -0.00785   2.43443
   R28        2.08012  -0.00604   0.00000  -0.01679  -0.01679   2.06332
    A1        2.15911   0.01090   0.00000   0.04042   0.03952   2.19863
    A2        2.05394  -0.00810   0.00000  -0.02898  -0.02988   2.02406
    A3        2.06968  -0.00271   0.00000  -0.00927  -0.01017   2.05951
    A4        2.03167  -0.00714   0.00000  -0.02340  -0.02376   2.00791
    A5        2.03347  -0.00317   0.00000  -0.00900  -0.00936   2.02411
    A6        2.21801   0.01033   0.00000   0.03258   0.03307   2.25108
    A7        2.20137   0.00611   0.00000   0.01940   0.01958   2.22095
    A8        2.06298  -0.00292   0.00000  -0.00882  -0.00924   2.05374
    A9        2.01869  -0.00318   0.00000  -0.00996  -0.01038   2.00831
   A10        2.25553  -0.00559   0.00000  -0.01936  -0.01943   2.23610
   A11        2.11315  -0.01263   0.00000  -0.07194  -0.07231   2.04083
   A12        1.87213   0.01846   0.00000   0.09931   0.09944   1.97157
   A13        1.83834  -0.00190   0.00000  -0.01826  -0.01809   1.82025
   A14        2.00681  -0.00103   0.00000  -0.01438  -0.01452   1.99230
   A15        1.96734   0.00122   0.00000   0.00204   0.00171   1.96905
   A16        1.85215   0.00278   0.00000   0.02416   0.02402   1.87617
   A17        1.84917   0.00091   0.00000   0.02088   0.02064   1.86981
   A18        1.93611  -0.00166   0.00000  -0.00979  -0.00950   1.92661
   A19        1.91001   0.00009   0.00000  -0.00517  -0.00529   1.90472
   A20        1.92257  -0.00071   0.00000  -0.01316  -0.01314   1.90943
   A21        1.92272  -0.00165   0.00000  -0.00675  -0.00674   1.91598
   A22        1.91927  -0.00040   0.00000   0.00551   0.00547   1.92474
   A23        1.90469   0.00309   0.00000   0.02490   0.02490   1.92958
   A24        1.88439  -0.00039   0.00000  -0.00491  -0.00516   1.87923
   A25        1.94046  -0.00079   0.00000   0.00577   0.00568   1.94614
   A26        1.91894  -0.00076   0.00000  -0.00714  -0.00716   1.91178
   A27        1.90499   0.00029   0.00000  -0.00298  -0.00305   1.90195
   A28        1.91612   0.00076   0.00000   0.00711   0.00715   1.92327
   A29        1.89849   0.00173   0.00000   0.01127   0.01129   1.90977
   A30        1.88379  -0.00121   0.00000  -0.01450  -0.01459   1.86921
   A31        1.94463   0.00077   0.00000   0.00552   0.00562   1.95025
   A32        1.90243   0.00054   0.00000   0.00575   0.00572   1.90815
   A33        1.91743   0.00039   0.00000   0.00517   0.00514   1.92256
   A34        1.90667  -0.00118   0.00000  -0.01447  -0.01451   1.89215
   A35        1.91533  -0.00050   0.00000   0.00022   0.00013   1.91546
   A36        1.87599  -0.00004   0.00000  -0.00257  -0.00261   1.87338
   A37        1.94724  -0.00309   0.00000  -0.01863  -0.01866   1.92858
   A38        1.90607   0.00252   0.00000   0.01656   0.01641   1.92248
   A39        1.91096   0.00147   0.00000   0.01373   0.01370   1.92466
   A40        1.90616   0.00028   0.00000  -0.00296  -0.00281   1.90334
   A41        1.91159  -0.00023   0.00000  -0.00450  -0.00442   1.90717
   A42        1.88060  -0.00088   0.00000  -0.00370  -0.00388   1.87671
   A43        1.84651   0.00472   0.00000   0.02341   0.02346   1.86997
   A44        1.93760  -0.00434   0.00000  -0.02998  -0.03044   1.90716
   A45        1.98480   0.00062   0.00000   0.01001   0.01032   1.99512
   A46        1.88138   0.00219   0.00000   0.02974   0.03003   1.91141
   A47        1.89193  -0.00407   0.00000  -0.02894  -0.02903   1.86289
   A48        1.91708   0.00109   0.00000  -0.00199  -0.00187   1.91520
   A49        2.08589  -0.00647   0.00000  -0.01423  -0.01476   2.07113
   A50        2.25339  -0.00461   0.00000  -0.01907  -0.01934   2.23404
   A51        1.97625   0.00552   0.00000   0.02707   0.02636   2.00261
   A52        2.05355  -0.00090   0.00000  -0.00787  -0.00855   2.04500
    D1       -2.98892  -0.00015   0.00000  -0.02230  -0.02186  -3.01078
    D2        0.14413   0.00216   0.00000   0.00000  -0.00000   0.14413
    D3        0.18367  -0.00342   0.00000  -0.09785  -0.09760   0.08606
    D4       -2.96646  -0.00111   0.00000  -0.07554  -0.07575  -3.04221
    D5        2.96819   0.00268   0.00000   0.04060   0.04089   3.00908
    D6       -0.15431   0.00237   0.00000   0.00000   0.00000  -0.15431
    D7       -0.16383   0.00018   0.00000   0.01586   0.01591  -0.14792
    D8        2.99686  -0.00013   0.00000  -0.02474  -0.02498   2.97188
    D9       -2.65129  -0.00328   0.00000  -0.05336  -0.05344  -2.70473
   D10        0.48763  -0.00017   0.00000   0.01102   0.01103   0.49866
   D11        0.48072  -0.00079   0.00000  -0.02867  -0.02833   0.45239
   D12       -2.66355   0.00231   0.00000   0.03571   0.03614  -2.62741
   D13       -0.04687  -0.00128   0.00000  -0.01272  -0.01230  -0.05917
   D14        2.74488   0.00294   0.00000   0.03677   0.03577   2.78065
   D15        3.07606  -0.00097   0.00000   0.02697   0.02768   3.10373
   D16       -0.41538   0.00325   0.00000   0.07646   0.07575  -0.33963
   D17       -2.53191  -0.00045   0.00000  -0.00591  -0.00564  -2.53756
   D18        1.71894  -0.00205   0.00000  -0.01585  -0.01562   1.70331
   D19       -0.52362   0.00013   0.00000   0.00925   0.00910  -0.51452
   D20        0.92215   0.00012   0.00000  -0.02576  -0.02621   0.89595
   D21       -1.11018  -0.00148   0.00000  -0.03569  -0.03619  -1.14637
   D22        2.93045   0.00070   0.00000  -0.01060  -0.01146   2.91899
   D23        2.94434   0.00222   0.00000   0.02651   0.02630   2.97064
   D24       -1.22677   0.00133   0.00000   0.02171   0.02154  -1.20524
   D25        0.85019  -0.00063   0.00000   0.00325   0.00314   0.85333
   D26        0.91990   0.00330   0.00000   0.04097   0.04096   0.96086
   D27        3.03197   0.00241   0.00000   0.03617   0.03619   3.06816
   D28       -1.17425   0.00045   0.00000   0.01770   0.01779  -1.15645
   D29       -1.08081   0.00150   0.00000   0.00781   0.00784  -1.07296
   D30        1.03126   0.00062   0.00000   0.00301   0.00308   1.03434
   D31        3.10823  -0.00134   0.00000  -0.01546  -0.01532   3.09291
   D32       -2.89938  -0.00082   0.00000  -0.01454  -0.01435  -2.91373
   D33       -0.86301   0.00226   0.00000   0.01885   0.01867  -0.84434
   D34        1.30937   0.00073   0.00000   0.00000  -0.00001   1.30936
   D35       -0.89762  -0.00194   0.00000  -0.02298  -0.02289  -0.92051
   D36        1.13875   0.00114   0.00000   0.01041   0.01013   1.14888
   D37       -2.97205  -0.00039   0.00000  -0.00844  -0.00855  -2.98060
   D38        1.10495   0.00102   0.00000   0.01222   0.01231   1.11726
   D39        3.14132   0.00410   0.00000   0.04561   0.04533  -3.09653
   D40       -0.96948   0.00258   0.00000   0.02675   0.02665  -0.94283
   D41        0.95666   0.00071   0.00000   0.00000   0.00000   0.95666
   D42        3.08231   0.00062   0.00000   0.00796   0.00792   3.09023
   D43       -1.13766  -0.00112   0.00000  -0.01566  -0.01563  -1.15329
   D44       -1.15741   0.00179   0.00000   0.01609   0.01616  -1.14126
   D45        0.96824   0.00170   0.00000   0.02405   0.02407   0.99232
   D46        3.03146  -0.00005   0.00000   0.00043   0.00053   3.03199
   D47        3.06182   0.00065   0.00000   0.00390   0.00386   3.06568
   D48       -1.09571   0.00056   0.00000   0.01186   0.01177  -1.08394
   D49        0.96751  -0.00119   0.00000  -0.01176  -0.01177   0.95574
   D50       -0.92193  -0.00080   0.00000   0.00000   0.00000  -0.92193
   D51        1.18350  -0.00144   0.00000  -0.01076  -0.01077   1.17274
   D52       -3.04832  -0.00095   0.00000  -0.00751  -0.00755  -3.05587
   D53       -3.04922   0.00016   0.00000   0.00034   0.00036  -3.04887
   D54       -0.94379  -0.00047   0.00000  -0.01041  -0.01041  -0.95420
   D55        1.10757   0.00002   0.00000  -0.00717  -0.00719   1.10038
   D56        1.17624   0.00018   0.00000   0.00717   0.00720   1.18344
   D57       -3.00151  -0.00046   0.00000  -0.00359  -0.00357  -3.00508
   D58       -0.95016   0.00003   0.00000  -0.00034  -0.00035  -0.95050
   D59        0.98829  -0.00094   0.00000  -0.01169  -0.01171   0.97658
   D60        3.09717  -0.00089   0.00000  -0.01629  -0.01643   3.08074
   D61       -1.13070   0.00038   0.00000  -0.00313  -0.00309  -1.13379
   D62       -1.11466  -0.00132   0.00000  -0.01282  -0.01279  -1.12745
   D63        0.99422  -0.00126   0.00000  -0.01741  -0.01751   0.97671
   D64        3.04954  -0.00000   0.00000  -0.00425  -0.00417   3.04537
   D65        3.11590  -0.00028   0.00000  -0.00132  -0.00131   3.11459
   D66       -1.05841  -0.00023   0.00000  -0.00592  -0.00603  -1.06444
   D67        0.99691   0.00104   0.00000   0.00724   0.00731   1.00422
   D68       -1.05384   0.00009   0.00000  -0.00072  -0.00067  -1.05452
   D69       -3.12785   0.00159   0.00000   0.00707   0.00670  -3.12115
   D70        1.08111   0.00131   0.00000   0.00879   0.00875   1.08986
   D71        3.12051  -0.00127   0.00000  -0.00752  -0.00740   3.11311
   D72        1.04651   0.00022   0.00000   0.00027  -0.00003   1.04648
   D73       -1.02772  -0.00005   0.00000   0.00199   0.00202  -1.02570
   D74        1.06478  -0.00024   0.00000   0.00129   0.00145   1.06623
   D75       -1.00923   0.00125   0.00000   0.00908   0.00883  -1.00040
   D76       -3.08345   0.00098   0.00000   0.01080   0.01087  -3.07258
   D77       -1.17217   0.00426   0.00000   0.00000  -0.00001  -1.17218
   D78        3.06275   0.00071   0.00000  -0.01592  -0.01586   3.04689
   D79        1.01122  -0.00017   0.00000  -0.03378  -0.03404   0.97718
   D80        0.15524   0.00137   0.00000   0.02268   0.02217   0.17741
   D81       -2.98357  -0.00186   0.00000  -0.04416  -0.04369  -3.02726
         Item               Value     Threshold  Converged?
 Maximum Force            0.037950     0.000450     NO 
 RMS     Force            0.006980     0.000300     NO 
 Maximum Displacement     0.292013     0.001800     NO 
 RMS     Displacement     0.056901     0.001200     NO 
 Predicted change in Energy=-1.337507D-02
 GradGradGradGradGradGradGradGradGradGradGradGradGradGradGradGradGradGrad

                          Input orientation:                          
 ---------------------------------------------------------------------
 Center     Atomic      Atomic             Coordinates (Angstroms)
 Number     Number       Type             X           Y           Z
 ---------------------------------------------------------------------
      1          8           0       -3.465434   -1.440092   -0.145797
      2          7           0       -3.122517   -0.254946   -0.022504
      3          8           0       -3.880883    0.705842    0.181071
      4          6           0       -1.681792    0.003735   -0.067028
      5          6           0       -1.316459    1.280809    0.228206
      6          7           0       -0.068548    1.751691    0.398359
      7          6           0        1.191885    1.003380    0.376421
      8          1           0        1.824011    1.513233    1.121472
      9          6           0        1.925679    1.055521   -0.960446
     10          6           0        3.325309    0.453861   -0.789185
     11          6           0        3.260817   -0.961553   -0.203685
     12          6           0        2.437679   -1.004828    1.083630
     13          6           0        1.029415   -0.447749    0.839759
     14          1           0        0.458229   -0.466958    1.780790
     15          7           0        0.395045   -1.323385   -0.139410
     16          6           0       -0.843180   -1.125571   -0.434782
     17          1           0       -2.105576    2.022542    0.323049
     18          1           0        0.063394    2.753093    0.293825
     19          1           0        1.358677    0.491106   -1.709147
     20          1           0        1.992747    2.095624   -1.307316
     21          1           0        3.839148    0.439861   -1.757070
     22          1           0        3.912518    1.099462   -0.120863
     23          1           0        2.797793   -1.635053   -0.933302
     24          1           0        4.272936   -1.336497   -0.009137
     25          1           0        2.356771   -2.035924    1.445437
     26          1           0        2.929323   -0.416060    1.869726
     27          1           0       -1.323958   -1.859135   -1.085092
 ---------------------------------------------------------------------
                    Distance matrix (angstroms):
                    1          2          3          4          5
     1  O    0.000000
     2  N    1.239905   0.000000
     3  O    2.210085   1.240836   0.000000
     4  C    2.296132   1.464441   2.321747   0.000000
     5  C    3.487302   2.383956   2.628513   1.360716   0.000000
     6  N    4.692806   3.678375   3.959156   2.423736   1.344605
     7  C    5.285253   4.511828   5.085241   3.074729   2.527988
     8  H    6.189211   5.376177   5.837984   3.997721   3.273300
     9  C    5.996319   5.299183   5.928027   3.862422   3.460506
    10  C    7.079210   6.531820   7.275583   5.078897   4.823374
    11  C    6.743501   6.424880   7.343850   5.037841   5.115288
    12  C    6.045469   5.718535   6.607967   4.394457   4.477659
    13  C    4.707413   4.244904   5.086813   2.894261   2.977420
    14  H    4.478154   4.014793   4.771001   2.866299   2.935085
    15  N    3.862248   3.678107   4.743841   2.465713   3.137867
    16  C    2.656813   2.474539   3.600138   1.453907   2.540514
    17  H    3.749516   2.518040   2.214853   2.099365   1.087138
    18  H    5.498064   4.392994   4.445366   3.276410   2.018891
    19  H    5.426384   4.845871   5.574229   3.489777   3.396074
    20  H    6.606222   5.774240   6.216617   4.406422   3.737993
    21  H    7.712804   7.208069   7.964046   5.790271   5.588273
    22  H    7.802829   7.164902   7.809175   5.700862   5.243752
    23  H    6.315551   6.146895   7.164240   4.847962   5.174786
    24  H    7.740271   7.474133   8.407860   6.103963   6.176403
    25  H    6.065073   5.945530   6.929952   4.770508   5.096566
    26  H    6.782618   6.342812   7.105570   5.018927   4.858046
    27  H    2.375667   2.633882   3.836684   2.152855   3.403535
                    6          7          8          9         10
     6  N    0.000000
     7  C    1.465996   0.000000
     8  H    2.039984   1.102104   0.000000
     9  C    2.511562   1.525905   2.134062   0.000000
    10  C    3.822682   2.492410   2.650807   1.533066   0.000000
    11  C    4.336915   2.911694   3.153573   2.534535   1.533090
    12  C    3.788030   2.466788   2.592036   2.947105   2.534383
    13  C    2.497578   1.531944   2.134525   2.510746   2.955925
    14  H    2.666649   2.161573   2.494237   3.462041   3.958893
    15  N    3.155980   2.512941   3.417334   2.945528   3.488160
    16  C    3.093997   3.054827   4.061911   3.563715   4.471745
    17  H    2.056335   3.451780   4.042094   4.339758   5.761279
    18  H    1.015452   2.083701   2.306951   2.814791   4.135151
    19  H    2.840358   2.154029   3.045272   1.095723   2.171488
    20  H    2.697510   2.160868   2.503331   1.098468   2.177055
    21  H    4.651544   3.446352   3.674087   2.162178   1.095914
    22  H    4.067418   2.767376   2.465049   2.157396   1.099213
    23  H    4.632415   3.354942   3.883561   2.828517   2.159306
    24  H    5.343356   3.888001   3.923834   3.483727   2.170680
    25  H    4.617854   3.425948   3.603512   3.940957   3.482906
    26  H    3.981369   2.695080   2.346011   3.344058   2.825487
    27  H    4.100579   4.081602   5.113854   4.367024   5.201269
                   11         12         13         14         15
    11  C    0.000000
    12  C    1.528597   0.000000
    13  C    2.516332   1.533955   0.000000
    14  H    3.469477   2.166462   1.100983   0.000000
    15  N    2.889239   2.402012   1.458745   2.103480   0.000000
    16  C    4.113769   3.617207   2.364425   2.652583   1.288245
    17  H    6.162827   5.512224   4.024611   3.859496   4.202642
    18  H    4.926421   4.514752   3.387718   3.568710   4.112829
    19  H    2.827502   3.346889   2.736198   3.729391   2.585544
    20  H    3.488887   3.940481   3.465067   4.296275   3.950479
    21  H    2.170584   3.481497   3.927591   4.976886   4.193770
    22  H    2.163183   2.837956   3.410124   4.242885   4.271201
    23  H    1.095597   2.143567   2.771388   3.768859   2.549627
    24  H    1.096730   2.161554   3.468563   4.302550   3.880101
    25  H    2.165912   1.095724   2.156622   2.485675   2.620653
    26  H    2.169444   1.098321   2.161363   2.473218   3.358934
    27  H    4.754229   4.425281   3.351928   3.650702   2.033792
                   16         17         18         19         20
    16  C    0.000000
    17  H    3.475423   0.000000
    18  H    4.049294   2.288884   0.000000
    19  H    3.014270   4.298391   3.287285   0.000000
    20  H    4.379486   4.411313   2.591973   1.771437   0.000000
    21  H    5.111088   6.493960   4.879911   2.481463   2.520521
    22  H    5.259846   6.104637   4.209776   3.068362   2.466887
    23  H    3.710091   6.244953   5.314000   2.682077   3.834832
    24  H    5.138123   7.216572   5.876800   3.837065   4.320184
    25  H    3.821472   6.135424   5.433275   4.163348   4.977937
    26  H    4.477269   5.804239   4.554179   4.012257   4.156841
    27  H    1.091864   4.202523   5.009871   3.620719   5.166240
                   21         22         23         24         25
    21  H    0.000000
    22  H    1.765681   0.000000
    23  H    2.463389   3.062718   0.000000
    24  H    2.529603   2.465011   1.766144   0.000000
    25  H    4.310801   3.834618   2.452263   2.505329   0.000000
    26  H    3.835888   2.688108   3.059446   2.486489   1.769689
    27  H    5.691625   6.091282   4.130627   5.723290   4.470189
                   26         27
    26  H    0.000000
    27  H    5.376227   0.000000
 Symmetry turned off by external request.
 Stoichiometry    C9H13N3O2
 Framework group  C1[X(C9H13N3O2)]
 Deg. of freedom    75
 Full point group                 C1      NOp   1
 Rotational constants (GHZ):           1.6852445           0.4230664           0.3727590
 Standard basis: 6-31G(d) (6D, 7F)
   236 basis functions,   444 primitive gaussians,   236 cartesian basis functions
    52 alpha electrons       52 beta electrons
       nuclear repulsion energy       932.3964378689 Hartrees.
 NAtoms=   27 NActive=   27 NUniq=   27 SFac= 1.00D+00 NAtFMM=   60 NAOKFM=F Big=F
 Integral buffers will be    131072 words long.
 Raffenetti 1 integral format.
 Two-electron integral symmetry is turned off.
 One-electron integrals computed using PRISM.
 NBasis=   236 RedAO= T EigKep=  1.01D-03  NBF=   236
 NBsUse=   236 1.00D-06 EigRej= -1.00D+00 NBFU=   236
 Initial guess from the checkpoint file:  "/home/alexey/tmp/Gau-1415594.chk"
 B after Tr=     0.055406    0.006022   -0.000366
         Rot=    0.999997   -0.002023    0.000815    0.001203 Ang=  -0.29 deg.
 ExpMin= 1.61D-01 ExpMax= 5.48D+03 ExpMxC= 8.25D+02 IAcc=3 IRadAn=         5 AccDes= 0.00D+00
 Harris functional with IExCor=  205 and IRadAn=       5 diagonalized for initial guess.
 HarFok:  IExCor=  205 AccDes= 0.00D+00 IRadAn=         5 IDoV= 1 UseB2=F ITyADJ=14
 ICtDFT=  3500011 ScaDFX=  1.000000  1.000000  1.000000  1.000000
 FoFCou: FMM=F IPFlag=           0 FMFlag=      100000 FMFlg1=           0
         NFxFlg=           0 DoJE=T BraDBF=F KetDBF=T FulRan=T
         wScrn=  0.000000 ICntrl=       500 IOpCl=  0 I1Cent=   200000004 NGrid=           0
         NMat0=    1 NMatS0=      1 NMatT0=    0 NMatD0=    1 NMtDS0=    0 NMtDT0=    0
 Symmetry not used in FoFCou.
 Keep R1 ints in memory in canonical form, NReq=397720213.
 Requested convergence on RMS density matrix=1.00D-08 within 128 cycles.
 Requested convergence on MAX density matrix=1.00D-06.
 Requested convergence on             energy=1.00D-06.
 No special actions if energy rises.
 SCF Done:  E(RHF) =  -661.298252175     A.U. after   15 cycles
            NFock= 15  Conv=0.48D-08     -V/T= 2.0024
 ExpMin= 1.61D-01 ExpMax= 5.48D+03 ExpMxC= 8.25D+02 IAcc=3 IRadAn=         5 AccDes= 0.00D+00
 HarFok:  IExCor=  205 AccDes= 0.00D+00 IRadAn=         5 IDoV=-2 UseB2=F ITyADJ=14
 ICtDFT= 12500011 ScaDFX=  1.000000  1.000000  1.000000  1.000000
 Range of M.O.s used for correlation:    15   236
 NBasis=   236 NAE=    52 NBE=    52 NFC=    14 NFV=     0
 NROrb=    222 NOA=    38 NOB=    38 NVA=   184 NVB=   184
 Fully direct method using O(ONN) memory.
 JobTyp=1 Pass  1:  I=  15 to  52 NPSUse=  4 ParTrn=T ParDer=T DoDerP=T.
 Spin components of T(2) and E(2):
     alpha-alpha T2 =       0.9124630376D-01 E2=     -0.2723323651D+00
     alpha-beta  T2 =       0.4912289469D+00 E2=     -0.1488017249D+01
     beta-beta   T2 =       0.9124630376D-01 E2=     -0.2723323651D+00
 ANorm=    0.1293723910D+01
 E2 =    -0.2032681979D+01 EUMP2 =    -0.66333093415427D+03
          IDoAtm=111111111111111111111111111
          Differentiating once with respect to electric field.
                with respect to dipole field.
          Differentiating once with respect to nuclear coordinates.
 Keep R1 ints in memory in canonical form, NReq=397723379.
          There are     1 degrees of freedom in the 1st order CPHF.  IDoFFX=0 NUNeed=     1.
 LinEq1:  Iter=  0 NonCon=     1 RMS=4.57D-03 Max=1.07D-01 NDo=     1
 AX will form     1 AO Fock derivatives at one time.
 LinEq1:  Iter=  1 NonCon=     1 RMS=1.54D-03 Max=2.55D-02 NDo=     1
 LinEq1:  Iter=  2 NonCon=     1 RMS=6.42D-04 Max=1.82D-02 NDo=     1
[...]
    27  H    4.726336   4.418159   3.356264   3.653370   2.029322
                   16         17         18         19         20
    16  C    0.000000
    17  H    3.464037   0.000000
    18  H    4.090955   2.237508   0.000000
    19  H    2.993328   4.277432   3.495763   0.000000
    20  H    4.377783   4.423331   2.860866   1.768524   0.000000
    21  H    5.098254   6.492268   5.072778   2.499324   2.520798
    22  H    5.249755   6.093856   4.306618   3.070332   2.461351
    23  H    3.694919   6.228569   5.416748   2.704139   3.842745
    24  H    5.133328   7.200934   5.935343   3.849616   4.316985
    25  H    3.818792   6.104769   5.378507   4.171063   4.984667
    26  H    4.493742   5.798308   4.495096   4.035691   4.181948
    27  H    1.090073   4.210149   5.081186   3.590440   5.154531
                   21         22         23         24         25
    21  H    0.000000
    22  H    1.758893   0.000000
    23  H    2.469555   3.062366   0.000000
    24  H    2.517495   2.460005   1.764569   0.000000
    25  H    4.311968   3.839485   2.443971   2.519693   0.000000
    26  H    3.846722   2.704325   3.060474   2.491880   1.768089
    27  H    5.658889   6.064556   4.093180   5.696480   4.451591
                   26         27
    26  H    0.000000
    27  H    5.377724   0.000000
 Symmetry turned off by external request.
 Stoichiometry    C9H13N3O2
 Framework group  C1[X(C9H13N3O2)]
 Deg. of freedom    75
 Full point group                 C1      NOp   1
 Rotational constants (GHZ):           1.6815893           0.4209695           0.3721679

 **********************************************************************

            Population analysis using the SCF Density.

 **********************************************************************

 Alpha  occ. eigenvalues --  -20.59233 -20.58894 -15.84693 -15.64087 -15.56162
 Alpha  occ. eigenvalues --  -11.35014 -11.29607 -11.29606 -11.28606 -11.27144
 Alpha  occ. eigenvalues --  -11.23747 -11.23217 -11.22690 -11.22095  -1.57092
 Alpha  occ. eigenvalues --   -1.36700  -1.30942  -1.23082  -1.14701  -1.09824
 Alpha  occ. eigenvalues --   -1.02805  -1.01319  -0.94496  -0.89679  -0.85579
 Alpha  occ. eigenvalues --   -0.82458  -0.78542  -0.77434  -0.75212  -0.71980
 Alpha  occ. eigenvalues --   -0.69818  -0.69368  -0.67788  -0.64958  -0.63759
 Alpha  occ. eigenvalues --   -0.62500  -0.60279  -0.57577  -0.56994  -0.55079
 Alpha  occ. eigenvalues --   -0.54606  -0.50758  -0.50077  -0.48645  -0.48105
 Alpha  occ. eigenvalues --   -0.47395  -0.46093  -0.46081  -0.43649  -0.41697
 Alpha  occ. eigenvalues --   -0.39884  -0.33812
 Alpha virt. eigenvalues --    0.07476   0.11854   0.17319   0.21722   0.23901
 Alpha virt. eigenvalues --    0.25467   0.27165   0.28907   0.29021   0.29737
 Alpha virt. eigenvalues --    0.30579   0.31716   0.32070   0.32736   0.33953
 Alpha virt. eigenvalues --    0.34361   0.35909   0.37365   0.38520   0.40310
 Alpha virt. eigenvalues --    0.41359   0.42359   0.44975   0.46096   0.46683
 Alpha virt. eigenvalues --    0.47065   0.48992   0.53922   0.57597   0.59650
 Alpha virt. eigenvalues --    0.63776   0.69430   0.70046   0.72843   0.74227
 Alpha virt. eigenvalues --    0.74805   0.75760   0.76778   0.78682   0.79425
 Alpha virt. eigenvalues --    0.81554   0.84720   0.85628   0.85939   0.88701
 Alpha virt. eigenvalues --    0.89331   0.91002   0.91883   0.92855   0.94637
 Alpha virt. eigenvalues --    0.95179   0.98032   0.99729   1.01762   1.02493
 Alpha virt. eigenvalues --    1.03003   1.05960   1.06594   1.07950   1.09223
 Alpha virt. eigenvalues --    1.10385   1.11066   1.11792   1.12588   1.14006
 Alpha virt. eigenvalues --    1.14772   1.15006   1.15769   1.16853   1.18762
 Alpha virt. eigenvalues --    1.19055   1.21221   1.22519   1.23590   1.24090
 Alpha virt. eigenvalues --    1.24659   1.26259   1.27024   1.27441   1.29483
 Alpha virt. eigenvalues --    1.30264   1.33160   1.35854   1.37373   1.41059
 Alpha virt. eigenvalues --    1.43458   1.47972   1.48467   1.50401   1.54415
 Alpha virt. eigenvalues --    1.56167   1.58098   1.59301   1.63736   1.63874
 Alpha virt. eigenvalues --    1.67506   1.68331   1.73572   1.75305   1.77473
 Alpha virt. eigenvalues --    1.81845   1.84712   1.87350   1.90837   1.93041
 Alpha virt. eigenvalues --    1.95330   1.96829   1.99361   2.01092   2.02546
 Alpha virt. eigenvalues --    2.04833   2.06358   2.08163   2.09384   2.12564
 Alpha virt. eigenvalues --    2.13502   2.15628   2.19014   2.19966   2.22497
 Alpha virt. eigenvalues --    2.22911   2.24409   2.25270   2.28264   2.29446
 Alpha virt. eigenvalues --    2.32443   2.33838   2.35244   2.36447   2.38020
 Alpha virt. eigenvalues --    2.40245   2.42124   2.43014   2.45369   2.47378
 Alpha virt. eigenvalues --    2.50752   2.52071   2.53148   2.55927   2.61279
 Alpha virt. eigenvalues --    2.62411   2.65196   2.67484   2.70056   2.70509
 Alpha virt. eigenvalues --    2.72279   2.72690   2.77324   2.78486   2.83631
 Alpha virt. eigenvalues --    2.88473   2.88973   2.92731   2.93328   2.96133
 Alpha virt. eigenvalues --    2.99719   3.01098   3.04042   3.05725   3.07674
 Alpha virt. eigenvalues --    3.09308   3.14922   3.21331   3.24660   3.27463
 Alpha virt. eigenvalues --    3.32620   3.37241   3.38761   3.52237   3.65955
 Alpha virt. eigenvalues --    4.12927   4.27780   4.34723   4.39073   4.45802
 Alpha virt. eigenvalues --    4.55995   4.61767   4.62269   4.73469   4.79236
 Alpha virt. eigenvalues --    4.99524   5.00897   5.05328   5.10911
          Condensed to atoms (all electrons):
               1          2          3          4          5          6
     1  O    8.316060   0.308716  -0.082626  -0.086759   0.004575  -0.000016
     2  N    0.308716   5.717957   0.301437   0.266239  -0.054298   0.000951
     3  O   -0.082626   0.301437   8.353742  -0.093496   0.005010   0.000769
     4  C   -0.086759   0.266239  -0.093496   5.225947   0.564431  -0.048422
     5  C    0.004575  -0.054298   0.005010   0.564431   4.704632   0.317448
     6  N   -0.000016   0.000951   0.000769  -0.048422   0.317448   7.195615
     7  C    0.000004  -0.000144   0.000003   0.003773  -0.029829   0.169654
     8  H   -0.000000   0.000003  -0.000000  -0.000211   0.002963  -0.051030
     9  C   -0.000000  -0.000004   0.000000   0.000827   0.000589  -0.061916
    10  C    0.000000   0.000000   0.000000  -0.000037  -0.000047   0.003748
    11  C   -0.000000  -0.000000  -0.000000  -0.000035   0.000027  -0.000189
    12  C   -0.000000   0.000002  -0.000000  -0.000095  -0.000208   0.003884
    13  C   -0.000028  -0.000048  -0.000004  -0.011615  -0.000504  -0.047118
    14  H   -0.000005  -0.000092   0.000000   0.002976   0.005949  -0.006826
    15  N    0.000265   0.002496  -0.000017  -0.062446  -0.007190   0.001807
    16  C    0.001958  -0.029030   0.002436   0.329250  -0.049792  -0.001454
    17  H    0.000216  -0.007010   0.016866  -0.023209   0.374835  -0.034188
    18  H    0.000001  -0.000051   0.000011   0.001481  -0.031363   0.338539
    19  H    0.000000  -0.000001   0.000000  -0.001078   0.001120  -0.000258
    20  H    0.000000  -0.000000   0.000000  -0.000079   0.000155  -0.000504
    21  H   -0.000000  -0.000000   0.000000   0.000001   0.000001  -0.000077
    22  H   -0.000000   0.000000  -0.000000   0.000000  -0.000004  -0.000117
    23  H    0.000000  -0.000000   0.000000   0.000042   0.000000  -0.000030
    24  H    0.000000   0.000000   0.000000   0.000000  -0.000000   0.000006
    25  H    0.000000  -0.000000   0.000000   0.000025   0.000001  -0.000090
    26  H    0.000000  -0.000000   0.000000   0.000006  -0.000001  -0.000063
    27  H    0.005182  -0.001059  -0.000006  -0.063219   0.002349   0.000019
               7          8          9         10         11         12
     1  O    0.000004  -0.000000  -0.000000   0.000000  -0.000000  -0.000000
     2  N   -0.000144   0.000003  -0.000004   0.000000  -0.000000   0.000002
     3  O    0.000003  -0.000000   0.000000   0.000000  -0.000000  -0.000000
     4  C    0.003773  -0.000211   0.000827  -0.000037  -0.000035  -0.000095
     5  C   -0.029829   0.002963   0.000589  -0.000047   0.000027  -0.000208
     6  N    0.169654  -0.051030  -0.061916   0.003748  -0.000189   0.003884
     7  C    5.015011   0.418903   0.350376  -0.054591  -0.009033  -0.061137
     8  H    0.418903   0.538316  -0.055442   0.000826  -0.000325  -0.002338
     9  C    0.350376  -0.055442   5.159530   0.324730  -0.050461  -0.005340
    10  C   -0.054591   0.000826   0.324730   5.119122   0.337030  -0.060986
    11  C   -0.009033  -0.000325  -0.050461   0.337030   5.120112   0.335885
    12  C   -0.061137  -0.002338  -0.005340  -0.060986   0.335885   5.118866
    13  C    0.339109  -0.038024  -0.059896  -0.000401  -0.050667   0.372119
    14  H   -0.046400  -0.000787   0.004425  -0.000404   0.004191  -0.036318
    15  N   -0.058077   0.003905  -0.014490   0.001584  -0.013126  -0.082084
    16  C   -0.001365  -0.000021  -0.001257  -0.000026   0.000047   0.002569
    17  H    0.001576  -0.000049  -0.000077   0.000001   0.000000   0.000000
    18  H   -0.021109  -0.004264   0.001198  -0.000082   0.000004  -0.000114
    19  H   -0.036792   0.004376   0.389984  -0.032053  -0.002213   0.000686
    20  H   -0.042399  -0.002062   0.399441  -0.035308   0.003933  -0.000414
    21  H    0.004594  -0.000077  -0.036384   0.402425  -0.034901   0.004348
    22  H   -0.004843   0.003558  -0.046934   0.397770  -0.045351  -0.001025
    23  H    0.000570   0.000035  -0.001961  -0.039040   0.399179  -0.037896
    24  H   -0.000131  -0.000102   0.004392  -0.038440   0.402336  -0.038665
    25  H    0.005163  -0.000022  -0.000424   0.004190  -0.033417   0.398338
    26  H   -0.003929   0.001710   0.000961  -0.002230  -0.041451   0.396749
    27  H   -0.000404   0.000009  -0.000060   0.000007   0.000012  -0.000037
              13         14         15         16         17         18
     1  O   -0.000028  -0.000005   0.000265   0.001958   0.000216   0.000001
     2  N   -0.000048  -0.000092   0.002496  -0.029030  -0.007010  -0.000051
     3  O   -0.000004   0.000000  -0.000017   0.002436   0.016866   0.000011
     4  C   -0.011615   0.002976  -0.062446   0.329250  -0.023209   0.001481
     5  C   -0.000504   0.005949  -0.007190  -0.049792   0.374835  -0.031363
     6  N   -0.047118  -0.006826   0.001807  -0.001454  -0.034188   0.338539
     7  C    0.339109  -0.046400  -0.058077  -0.001365   0.001576  -0.021109
     8  H   -0.038024  -0.000787   0.003905  -0.000021  -0.000049  -0.004264
     9  C   -0.059896   0.004425  -0.014490  -0.001257  -0.000077   0.001198
    10  C   -0.000401  -0.000404   0.001584  -0.000026   0.000001  -0.000082
    11  C   -0.050667   0.004191  -0.013126   0.000047   0.000000   0.000004
    12  C    0.372119  -0.036318  -0.082084   0.002569   0.000000  -0.000114
    13  C    5.040546   0.402982   0.244019  -0.070809   0.000027   0.002991
    14  H    0.402982   0.525755  -0.037014  -0.005011   0.000088  -0.000099
    15  N    0.244019  -0.037014   6.962994   0.585976  -0.000089  -0.000129
    16  C   -0.070809  -0.005011   0.585976   4.701502   0.001900  -0.000192
    17  H    0.000027   0.000088  -0.000089   0.001900   0.377612  -0.002791
    18  H    0.002991  -0.000099  -0.000129  -0.000192  -0.002791   0.310716
    19  H   -0.007644   0.000106   0.007787   0.002850   0.000014  -0.000143
    20  H    0.004334  -0.000067   0.000122  -0.000036   0.000004   0.000893
    21  H   -0.000431   0.000010  -0.000042   0.000003  -0.000000   0.000001
    22  H    0.000050  -0.000055   0.000019  -0.000002   0.000000   0.000001
    23  H   -0.007511   0.000003   0.008586   0.000111   0.000000   0.000000
    24  H    0.004694  -0.000056   0.000135   0.000006   0.000000  -0.000000
    25  H   -0.035619  -0.002834   0.000439  -0.000021  -0.000000   0.000002
    26  H   -0.047370  -0.001046   0.004897  -0.000061   0.000000  -0.000000
    27  H    0.005140  -0.000181  -0.040747   0.403795  -0.000079   0.000001
              19         20         21         22         23         24
     1  O    0.000000   0.000000  -0.000000  -0.000000   0.000000   0.000000
     2  N   -0.000001  -0.000000  -0.000000   0.000000  -0.000000   0.000000
     3  O    0.000000   0.000000   0.000000  -0.000000   0.000000   0.000000
     4  C   -0.001078  -0.000079   0.000001   0.000000   0.000042   0.000000
     5  C    0.001120   0.000155   0.000001  -0.000004   0.000000  -0.000000
     6  N   -0.000258  -0.000504  -0.000077  -0.000117  -0.000030   0.000006
     7  C   -0.036792  -0.042399   0.004594  -0.004843   0.000570  -0.000131
     8  H    0.004376  -0.002062  -0.000077   0.003558   0.000035  -0.000102
     9  C    0.389984   0.399441  -0.036384  -0.046934  -0.001961   0.004392
    10  C   -0.032053  -0.035308   0.402425   0.397770  -0.039040  -0.038440
    11  C   -0.002213   0.003933  -0.034901  -0.045351   0.399179   0.402336
    12  C    0.000686  -0.000414   0.004348  -0.001025  -0.037896  -0.038665
    13  C   -0.007644   0.004334  -0.000431   0.000050  -0.007511   0.004694
    14  H    0.000106  -0.000067   0.000010  -0.000055   0.000003  -0.000056
    15  N    0.007787   0.000122  -0.000042   0.000019   0.008586   0.000135
    16  C    0.002850  -0.000036   0.000003  -0.000002   0.000111   0.000006
    17  H    0.000014   0.000004  -0.000000   0.000000   0.000000   0.000000
    18  H   -0.000143   0.000893   0.000001   0.000001   0.000000  -0.000000
    19  H    0.505512  -0.024789  -0.002785   0.003958   0.001518  -0.000066
    20  H   -0.024789   0.541726  -0.002696  -0.002985  -0.000045  -0.000083
    21  H   -0.002785  -0.002696   0.524158  -0.027401  -0.002901  -0.002245
    22  H    0.003958  -0.002985  -0.027401   0.571055   0.004136  -0.003652
    23  H    0.001518  -0.000045  -0.002901   0.004136   0.499094  -0.025430
    24  H   -0.000066  -0.000083  -0.002245  -0.003652  -0.025430   0.538011
    25  H   -0.000029   0.000012  -0.000086  -0.000080  -0.002316  -0.002294
    26  H    0.000020  -0.000030  -0.000081   0.002377   0.004064  -0.003027
    27  H    0.000079   0.000000  -0.000000   0.000000  -0.000035  -0.000000
              25         26         27
     1  O    0.000000   0.000000   0.005182
     2  N   -0.000000  -0.000000  -0.001059
     3  O    0.000000   0.000000  -0.000006
     4  C    0.000025   0.000006  -0.063219
     5  C    0.000001  -0.000001   0.002349
     6  N   -0.000090  -0.000063   0.000019
     7  C    0.005163  -0.003929  -0.000404
     8  H   -0.000022   0.001710   0.000009
     9  C   -0.000424   0.000961  -0.000060
    10  C    0.004190  -0.002230   0.000007
    11  C   -0.033417  -0.041451   0.000012
    12  C    0.398338   0.396749  -0.000037
    13  C   -0.035619  -0.047370   0.005140
    14  H   -0.002834  -0.001046  -0.000181
    15  N    0.000439   0.004897  -0.040747
    16  C   -0.000021  -0.000061   0.403795
    17  H   -0.000000   0.000000  -0.000079
    18  H    0.000002  -0.000000   0.000001
    19  H   -0.000029   0.000020   0.000079
    20  H    0.000012  -0.000030   0.000000
    21  H   -0.000086  -0.000081  -0.000000
    22  H   -0.000080   0.002377   0.000000
    23  H   -0.002316   0.004064  -0.000035
    24  H   -0.002294  -0.003027  -0.000000
    25  H    0.505750  -0.024019  -0.000013
    26  H   -0.024019   0.561926   0.000001
    27  H   -0.000013   0.000001   0.445362
 Mulliken charges:
               1
     1  O   -0.467545
     2  N    0.493937
     3  O   -0.504126
     4  C   -0.004297
     5  C    0.189149
     6  N   -0.780143
     7  C    0.061448
     8  H    0.180151
     9  C   -0.301808
    10  C   -0.327788
    11  C   -0.321589
    12  C   -0.306790
    13  C   -0.038321
    14  H    0.190710
    15  N   -0.509582
    16  C    0.126672
    17  H    0.294354
    18  H    0.404498
    19  H    0.189841
    20  H    0.160875
    21  H    0.174568
    22  H    0.149523
    23  H    0.199827
    24  H    0.164612
    25  H    0.187343
    26  H    0.150599
    27  H    0.243884
 Sum of Mulliken charges =  -0.00000
 Mulliken charges with hydrogens summed into heavy atoms:
               1
     1  O   -0.467545
     2  N    0.493937
     3  O   -0.504126
     4  C   -0.004297
     5  C    0.483503
     6  N   -0.375645
     7  C    0.241599
     9  C    0.048907
    10  C   -0.003697
    11  C    0.042850
    12  C    0.031152
    13  C    0.152389
    15  N   -0.509582
    16  C    0.370556
 Electronic spatial extent (au):  <R**2>=           3000.7298
 Charge=             -0.0000 electrons
 Dipole moment (field-independent basis, Debye):
    X=              5.4103    Y=              4.8582    Z=              1.0311  Tot=              7.3441
 Quadrupole moment (field-independent basis, Debye-Ang):
   XX=           -106.0523   YY=            -79.2781   ZZ=            -81.4322
   XY=             -2.0339   XZ=              0.9037   YZ=              1.9200
 Traceless Quadrupole moment (field-independent basis, Debye-Ang):
   XX=            -17.1314   YY=              9.6428   ZZ=              7.4886
   XY=             -2.0339   XZ=              0.9037   YZ=              1.9200
 Octapole moment (field-independent basis, Debye-Ang**2):
  XXX=             91.7898  YYY=             37.7711  ZZZ=             -2.9867  XYY=             -4.2242
  XXY=             10.5226  XXZ=              0.3676  XZZ=            -10.3143  YZZ=             -0.8635
  YYZ=              6.4324  XYZ=             -0.6796
 Hexadecapole moment (field-independent basis, Debye-Ang**3):
 XXXX=          -3374.4341 YYYY=           -605.3947 ZZZZ=           -298.2676 XXXY=            -27.8420
 XXXZ=             13.9070 YYYX=            -15.3317 YYYZ=             26.5644 ZZZX=             13.3441
 ZZZY=              9.9228 XXYY=           -628.8054 XXZZ=           -520.1788 YYZZ=           -157.6842
 XXYZ=             -0.0899 YYXZ=              8.2425 ZZXY=              4.9237
 N-N= 9.315059700519D+02 E-N=-3.409727560581D+03  KE= 6.596280126461D+02
 Unable to Open any file for archive entry.
 1\1\GINC-LOTUS\FOpt\RMP2-FC\6-31G(d)\C9H13N3O2\ALEXEY\02-Jul-2023\0\\#
 MP2/6-31G* SCF=Tight Opt=(ModRedun, MaxCycle=20 ) NoSymm\\MolName:\\0,
 1\O,-3.487050311,-1.4289710523,-0.2187921036\N,-3.116097863,-0.2490839
 038,-0.0620626484\O,-3.9004501777,0.7062009032,0.0974933677\C,-1.68429
 55569,-0.0073157796,-0.0611374427\C,-1.3015669557,1.2692719038,0.25783
 73095\N,-0.0561152632,1.7551463273,0.377435401\C,1.2034404687,1.023737
 8899,0.3587213235\H,1.8457729283,1.5427295582,1.0863011656\C,1.9218034
 305,1.044891622,-0.9893720372\C,3.3165567517,0.4327485611,-0.815516114
 8\C,3.257443876,-0.9687247984,-0.2020096375\C,2.4480544881,-0.98834172
 13,1.0964494776\C,1.0427125393,-0.4284873083,0.8492286708\H,0.45603244
 31,-0.4144987873,1.7813689342\N,0.404313242,-1.3145172661,-0.120498955
 4\C,-0.8392611766,-1.1278180721,-0.4258245503\H,-2.0920288379,2.011312
 6326,0.3331103951\H,0.0066252773,2.7442134015,0.5879616621\H,1.3335980
 224,0.4757024787,-1.7171104348\H,1.9950292564,2.0759380727,-1.35734335
 95\H,3.8309648938,0.401801838,-1.7828217924\H,3.9112373962,1.091551215
 2,-0.1668059519\H,2.785349874,-1.657863206,-0.909224212\H,4.2734754171
 ,-1.3370153125,-0.0168993899\H,2.3551364886,-2.0133631419,1.4701729163
 \H,2.9511076811,-0.3988060052,1.8753402111\H,-1.2987583324,-1.87843004
 94,-1.0690222043\\Version=ES64L-G16RevC.02\HF=-661.29942\MP2=-663.3338
 562\RMSD=6.540e-09\RMSF=1.321e-03\Dipole=1.9773564,1.7102996,0.3831922
 \PG=C01 [X(C9H13N3O2)]\\@
 The archive entry for this job was punched.


 ... IT IS NO ONE DREAME THAT
     CAN PLEASE THESE ALL ...

                -- BEN JONSON
 Job cpu time:       0 days  1 hours 11 minutes 24.3 seconds.
 Elapsed time:       0 days  0 hours 21 minutes 22.0 seconds.
 File lengths (MBytes):  RWF=     36 Int=      0 D2E=      0 Chk=      7 Scr=      1
 Normal termination of Gaussian 16 at Sun Jul  2 00:50:14 2023.
