 Entering Gaussian System, Link 0=g16
 Initial command:
 /home/alexey/programs//g16/l1.exe "/home/alexey/tmp/Gau-1406694.inp" -scrdir="/home/alexey/tmp/"
 Entering Link 1 = /home/alexey/programs//g16/l1.exe PID=   1406696.
  
 Copyright (c) 1988-2021, Gaussian, Inc.  All Rights Reserved.
  
 This is part of the Gaussian(R) 16 program.  It is based on
 the Gaussian(R) 09 system (copyright 2009, Gaussian, Inc.),
 the Gaussian(R) 03 system (copyright 2003, Gaussian, Inc.),
 the Gaussian(R) 98 system (copyright 1998, Gaussian, Inc.),
 the Gaussian(R) 94 system (copyright 1995, Gaussian, Inc.),
 the Gaussian 92(TM) system (copyright 1992, Gaussian, Inc.),
 the Gaussian 90(TM) system (copyright 1990, Gaussian, Inc.),
 the Gaussian 88(TM) system (copyright 1988, Gaussian, Inc.),
 the Gaussian 86(TM) system (copyright 1986, Carnegie Mellon
 University), and the Gaussian 82(TM) system (copyright 1983,
 Carnegie Mellon University). Gaussian is a federally registered
 trademark of Gaussian, Inc.
  
 This software contains proprietary and confidential information,
 including trade secrets, belonging to Gaussian, Inc.
  
 This software is provided under written license and may be
 used, copied, transmitted, or stored only in accord with that
 written license.
  
 The following legend is applicable only to US Government
 contracts under FAR:
  
                    RESTRICTED RIGHTS LEGEND
  
 Use, reproduction and disclosure by the US Government is
 subject to restrictions as set forth in subparagraphs (a)
 and (c) of the Commercial Computer Software - Restricted
 Rights clause in FAR 52.227-19.
  
 Gaussian, Inc.
 340 Quinnipiac St., Bldg. 40, Wallingford CT 06492
  
  
 ---------------------------------------------------------------
 Warning -- This program may not be used in any manner that
 competes with the business of Gaussian, Inc. or will provide
 assistance to any competitor of Gaussian, Inc.  The licensee
 of this program is prohibited from giving any competitor of
 Gaussian, Inc. access to this program.  By using this program,
 the user acknowledges that Gaussian, Inc. is engaged in the
 business of creating and licensing software in the field of
 computational chemistry and represents and warrants to the
 licensee that it is not a competitor of Gaussian, Inc. and that
 it will not use this program in any manner prohibited above.
 ---------------------------------------------------------------
  

 Cite this work as:
 Gaussian 16, Revision C.02,
 M. J. Frisch, G. W. Trucks, H. B. Schlegel, G. E. Scuseria, 
 M. A. Robb, J. R. Cheeseman, G. Scalmani, V. Barone, 
 G. A. Petersson, H. Nakatsuji, X. Li, M. Caricato, A. V. Marenich, 
 J. Bloino, B. G. Janesko, R. Gomperts, B. Mennucci, H. P. Hratchian, 
 J. V. Ortiz, A. F. Izmaylov, J. L. Sonnenberg, D. Williams-Young, 
 F. Ding, F. Lipparini, F. Egidi, J. Goings, B. Peng, A. Petrone, 
 T. Henderson, D. Ranasinghe, V. G. Zakrzewski, J. Gao, N. Rega, 
 G. Zheng, W. Liang, M. Hada, M. Ehara, K. Toyota, R. Fukuda, 
 J. Hasegawa, M. Ishida, T. Nakajima, Y. Honda, O. Kitao, H. Nakai, 
 T. Vreven, K. Throssell, J. A. Montgomery, Jr., J. E. Peralta, 
 F. Ogliaro, M. J. Bearpark, J. J. Heyd, E. N. Brothers, K. N. Kudin, 
 V. N. Staroverov, T. A. Keith, R. Kobayashi, J. Normand, 
 K. Raghavachari, A. P. Rendell, J. C. Burant, S. S. Iyengar, 
 J. Tomasi, M. Cossi, J. M. Millam, M. Klene, C. Adamo, R. Cammi, 
 J. W. Ochterski, R. L. Martin, K. Morokuma, O. Farkas, 
 J. B. Foresman, and D. J. Fox, Gaussian, Inc., Wallingford CT, 2019.
 
 ******************************************
 Gaussian 16:  ES64L-G16RevC.02  7-Dec-2021
                 1-Jul-2023 
 ******************************************
 %mem=8GB
 %NPROCS=4
 Will use up to    4 processors via shared memory.
 %NoSave
 ---------------------------------------------------------
 #MP2/6-31G* SCF=Tight Opt=(ModRedun, MaxCycle=20 ) NoSymm
 ---------------------------------------------------------
 1/6=20,18=120,19=15,38=1/1,3;
 2/9=110,12=2,15=1,17=6,18=5,40=1/2;
 3/5=1,6=6,7=1,11=9,25=1,30=1,71=1/1,2,3;
 4//1;
 5/5=2,32=2,38=5/2;
 8/6=4,10=2/1;
 9/15=2,16=-3/6;
 10/5=1,31=1/2;
 6/7=2,8=2,9=2,10=2/1;
 7/12=2,30=1/1,2,3,16;
 1/6=20,18=20,19=15/3(2);
 2/9=110,15=1/2;
 99//99;
 2/9=110,15=1/2;
 3/5=1,6=6,7=1,11=9,25=1,30=1,71=1/1,2,3;
 4/5=5,16=3,69=1/1;
 5/5=2,32=2,38=5/2;
 8/6=4,10=2/1;
 9/15=2,16=-3/6;
 10/5=1,31=1/2;
 7/12=2,30=1/1,2,3,16;
 1/6=20,18=20,19=15/3(-8);
 2/9=110,15=1/2;
 6/7=2,8=2,9=2,10=2/1;
 99/9=10/99;
 --------
 MolName:
 --------
 Symbolic Z-matrix:
 Charge =  0 Multiplicity = 1
 8                    0    -3.62226  -1.43932  -0.21737 
 7                    0    -3.25984  -0.27862  -0.03338 
 8                    0    -4.038     0.66062   0.13733 
 6                    0    -1.75835   0.00393  -0.03073 
 6                    0    -1.37003   1.31013   0.28935 
 7                    0    -0.08156   1.76907   0.38326 
 6                    0     1.19775   0.99652   0.3569 
 1                    0     1.86042   1.49559   1.11089 
 6                    0     1.96429   1.04598  -0.98833 
 6                    0     3.3758    0.45923  -0.7962 
 6                    0     3.31239  -0.95608  -0.20049 
 6                    0     2.46211  -0.9881    1.08789 
 6                    0     1.02573  -0.45169   0.83915 
 1                    0     0.47632  -0.48948   1.80898 
 7                    0     0.37046  -1.32142  -0.14054 
 6                    0    -0.87058  -1.11695  -0.43917 
 1                    0    -2.15543   2.04087   0.54428 
 1                    0     0.14744   2.7493    0.20159 
 1                    0     1.41582   0.46879  -1.76287 
 1                    0     2.05164   2.09557  -1.34101 
 1                    0     3.91198   0.43407  -1.77008 
 1                    0     3.95208   1.11354  -0.10452 
 1                    0     2.86591  -1.64591  -0.95187 
 1                    0     4.33986  -1.32021   0.01844 
 1                    0     2.40264  -2.03406   1.46094 
 1                    0     2.95556  -0.37661   1.87217 
 1                    0    -1.37115  -1.86175  -1.07663 
 
 The following ModRedundant input section has been read:
 D       2       4       5      17 F                                           
 D       1       2       4      16 F                                           
 D       7      13      15      16 F                                           
 D       7       9      10      11 F                                           
 D       9      10      11      12 F                                           
 D       6       7      13      15 F                                           
 

 GradGradGradGradGradGradGradGradGradGradGradGradGradGradGradGradGradGrad
 Berny optimization.
 Initialization pass.
                           ----------------------------
                           !    Initial Parameters    !
                           ! (Angstroms and Degrees)  !
 --------------------------                            --------------------------
 ! Name  Definition              Value          Derivative Info.                !
 --------------------------------------------------------------------------------
 ! R1    R(1,2)                  1.2298         estimate D2E/DX2                !
 ! R2    R(2,3)                  1.2316         estimate D2E/DX2                !
 ! R3    R(2,4)                  1.5278         estimate D2E/DX2                !
 ! R4    R(4,5)                  1.3998         estimate D2E/DX2                !
 ! R5    R(4,16)                 1.4871         estimate D2E/DX2                !
 ! R6    R(5,6)                  1.371          estimate D2E/DX2                !
 ! R7    R(5,17)                 1.1026         estimate D2E/DX2                !
 ! R8    R(6,7)                  1.4947         estimate D2E/DX2                !
 ! R9    R(6,18)                 1.0229         estimate D2E/DX2                !
 ! R10   R(7,8)                  1.121          estimate D2E/DX2                !
 ! R11   R(7,9)                  1.5491         estimate D2E/DX2                !
 ! R12   R(7,13)                 1.5361         estimate D2E/DX2                !
 ! R13   R(9,10)                 1.5406         estimate D2E/DX2                !
 ! R14   R(9,19)                 1.1108         estimate D2E/DX2                !
 ! R15   R(9,20)                 1.1107         estimate D2E/DX2                !
 ! R16   R(10,11)                1.5369         estimate D2E/DX2                !
 ! R17   R(10,21)                1.112          estimate D2E/DX2                !
 ! R18   R(10,22)                1.1129         estimate D2E/DX2                !
 ! R19   R(11,12)                1.544          estimate D2E/DX2                !
 ! R20   R(11,23)                1.1135         estimate D2E/DX2                !
 ! R21   R(11,24)                1.1119         estimate D2E/DX2                !
 ! R22   R(12,13)                1.5533         estimate D2E/DX2                !
 ! R23   R(12,25)                1.1121         estimate D2E/DX2                !
 ! R24   R(12,26)                1.1102         estimate D2E/DX2                !
 ! R25   R(13,14)                1.1153         estimate D2E/DX2                !
 ! R26   R(13,15)                1.4648         estimate D2E/DX2                !
 ! R27   R(15,16)                1.2927         estimate D2E/DX2                !
 ! R28   R(16,27)                1.1008         estimate D2E/DX2                !
 ! A1    A(1,2,3)              123.6626         estimate D2E/DX2                !
 ! A2    A(1,2,4)              117.6723         estimate D2E/DX2                !
 ! A3    A(3,2,4)              118.6628         estimate D2E/DX2                !
 ! A4    A(2,4,5)              116.4614         estimate D2E/DX2                !
 ! A5    A(2,4,16)             116.5404         estimate D2E/DX2                !
 ! A6    A(5,4,16)             126.9096         estimate D2E/DX2                !
 ! A7    A(4,5,6)              126.0685         estimate D2E/DX2                !
 ! A8    A(4,5,17)             118.2732         estimate D2E/DX2                !
 ! A9    A(6,5,17)             115.5777         estimate D2E/DX2                !
 ! A10   A(5,6,7)              129.0613         estimate D2E/DX2                !
 ! A11   A(5,6,18)             121.2671         estimate D2E/DX2                !
 ! A12   A(7,6,18)             107.491          estimate D2E/DX2                !
 ! A13   A(6,7,8)              105.3064         estimate D2E/DX2                !
 ! A14   A(6,7,9)              114.9821         estimate D2E/DX2                !
 ! A15   A(6,7,13)             112.7003         estimate D2E/DX2                !
 ! A16   A(8,7,9)              106.1023         estimate D2E/DX2                !
 ! A17   A(8,7,13)             105.9482         estimate D2E/DX2                !
 ! A18   A(9,7,13)             110.987          estimate D2E/DX2                !
 ! A19   A(7,9,10)             109.4451         estimate D2E/DX2                !
 ! A20   A(7,9,19)             110.1574         estimate D2E/DX2                !
 ! A21   A(7,9,20)             110.1715         estimate D2E/DX2                !
 ! A22   A(10,9,19)            109.9646         estimate D2E/DX2                !
 ! A23   A(10,9,20)            109.1136         estimate D2E/DX2                !
 ! A24   A(19,9,20)            107.9659         estimate D2E/DX2                !
 ! A25   A(9,10,11)            111.1777         estimate D2E/DX2                !
 ! A26   A(9,10,21)            109.9476         estimate D2E/DX2                !
 ! A27   A(9,10,22)            109.1474         estimate D2E/DX2                !
 ! A28   A(11,10,21)           109.7868         estimate D2E/DX2                !
 ! A29   A(11,10,22)           108.7763         estimate D2E/DX2                !
 ! A30   A(21,10,22)           107.9341         estimate D2E/DX2                !
 ! A31   A(10,11,12)           111.4235         estimate D2E/DX2                !
 ! A32   A(10,11,23)           108.9966         estimate D2E/DX2                !
 ! A33   A(10,11,24)           109.864          estimate D2E/DX2                !
 ! A34   A(12,11,23)           109.234          estimate D2E/DX2                !
 ! A35   A(12,11,24)           109.7434         estimate D2E/DX2                !
 ! A36   A(23,11,24)           107.4895         estimate D2E/DX2                !
 ! A37   A(11,12,13)           111.6205         estimate D2E/DX2                !
 ! A38   A(11,12,25)           109.2002         estimate D2E/DX2                !
 ! A39   A(11,12,26)           109.4686         estimate D2E/DX2                !
 ! A40   A(13,12,25)           109.212          estimate D2E/DX2                !
 ! A41   A(13,12,26)           109.5076         estimate D2E/DX2                !
 ! A42   A(25,12,26)           107.7487         estimate D2E/DX2                !
 ! A43   A(7,13,12)            105.8012         estimate D2E/DX2                !
 ! A44   A(7,13,14)            111.1077         estimate D2E/DX2                !
 ! A45   A(7,13,15)            113.5731         estimate D2E/DX2                !
 ! A46   A(12,13,14)           107.7331         estimate D2E/DX2                !
 ! A47   A(12,13,15)           108.4049         estimate D2E/DX2                !
 ! A48   A(14,13,15)           109.9445         estimate D2E/DX2                !
 ! A49   A(13,15,16)           119.3437         estimate D2E/DX2                !
 ! A50   A(4,16,15)            128.9688         estimate D2E/DX2                !
 ! A51   A(4,16,27)            113.4276         estimate D2E/DX2                !
 ! A52   A(15,16,27)           117.6019         estimate D2E/DX2                !
 ! D1    D(1,2,4,5)           -174.9253         estimate D2E/DX2                !
 ! D2    D(1,2,4,16)             8.2589         Frozen                          !
 ! D3    D(3,2,4,5)              5.6037         estimate D2E/DX2                !
 ! D4    D(3,2,4,16)          -171.2121         estimate D2E/DX2                !
 ! D5    D(2,4,5,6)            178.2214         estimate D2E/DX2                !
 ! D6    D(2,4,5,17)             1.6415         Frozen                          !
 ! D7    D(16,4,5,6)            -5.3417         estimate D2E/DX2                !
 ! D8    D(16,4,5,17)          178.0783         estimate D2E/DX2                !
 ! D9    D(2,4,16,15)         -155.6315         estimate D2E/DX2                !
 ! D10   D(2,4,16,27)           23.863          estimate D2E/DX2                !
 ! D11   D(5,4,16,15)           27.9341         estimate D2E/DX2                !
 ! D12   D(5,4,16,27)         -152.5714         estimate D2E/DX2                !
 ! D13   D(4,5,6,7)             -9.0043         estimate D2E/DX2                !
 ! D14   D(4,5,6,18)           152.0186         estimate D2E/DX2                !
 ! D15   D(17,5,6,7)           167.6565         estimate D2E/DX2                !
 ! D16   D(17,5,6,18)          -31.3205         estimate D2E/DX2                !
 ! D17   D(5,6,7,8)           -141.2772         estimate D2E/DX2                !
 ! D18   D(5,6,7,9)            102.3153         estimate D2E/DX2                !
 ! D19   D(5,6,7,13)           -26.2353         estimate D2E/DX2                !
 ! D20   D(18,6,7,8)            55.6665         estimate D2E/DX2                !
 ! D21   D(18,6,7,9)           -60.741          estimate D2E/DX2                !
 ! D22   D(18,6,7,13)          170.7084         estimate D2E/DX2                !
 ! D23   D(6,7,9,10)           168.7129         estimate D2E/DX2                !
 ! D24   D(6,7,9,19)           -70.2687         estimate D2E/DX2                !
 ! D25   D(6,7,9,20)            48.7372         estimate D2E/DX2                !
 ! D26   D(8,7,9,10)            52.7606         estimate D2E/DX2                !
 ! D27   D(8,7,9,19)           173.779          estimate D2E/DX2                !
 ! D28   D(8,7,9,20)           -67.2151         estimate D2E/DX2                !
 ! D29   D(13,7,9,10)          -61.8875         estimate D2E/DX2                !
 ! D30   D(13,7,9,19)           59.1308         estimate D2E/DX2                !
 ! D31   D(13,7,9,20)          178.1367         estimate D2E/DX2                !
 ! D32   D(6,7,13,12)         -166.1958         estimate D2E/DX2                !
 ! D33   D(6,7,13,14)          -49.5449         estimate D2E/DX2                !
 ! D34   D(6,7,13,15)           75.022          Frozen                          !
 ! D35   D(8,7,13,12)          -51.5415         estimate D2E/DX2                !
 ! D36   D(8,7,13,14)           65.1093         estimate D2E/DX2                !
 ! D37   D(8,7,13,15)         -170.3238         estimate D2E/DX2                !
 ! D38   D(9,7,13,12)           63.2029         estimate D2E/DX2                !
 ! D39   D(9,7,13,14)          179.8538         estimate D2E/DX2                !
 ! D40   D(9,7,13,15)          -55.5794         estimate D2E/DX2                !
 ! D41   D(7,9,10,11)           54.8126         Frozen                          !
 ! D42   D(7,9,10,21)          176.6035         estimate D2E/DX2                !
 ! D43   D(7,9,10,22)          -65.1821         estimate D2E/DX2                !
 ! D44   D(19,9,10,11)         -66.3226         estimate D2E/DX2                !
 ! D45   D(19,9,10,21)          55.4683         estimate D2E/DX2                !
 ! D46   D(19,9,10,22)         173.6827         estimate D2E/DX2                !
 ! D47   D(20,9,10,11)         175.4345         estimate D2E/DX2                !
 ! D48   D(20,9,10,21)         -62.7746         estimate D2E/DX2                !
 ! D49   D(20,9,10,22)          55.4398         estimate D2E/DX2                !
 ! D50   D(9,10,11,12)         -52.8228         Frozen                          !
 ! D51   D(9,10,11,23)          67.797          estimate D2E/DX2                !
 ! D52   D(9,10,11,24)        -174.6658         estimate D2E/DX2                !
 ! D53   D(21,10,11,12)       -174.7072         estimate D2E/DX2                !
 ! D54   D(21,10,11,23)        -54.0874         estimate D2E/DX2                !
 ! D55   D(21,10,11,24)         63.4498         estimate D2E/DX2                !
 ! D56   D(22,10,11,12)         67.3918         estimate D2E/DX2                !
 ! D57   D(22,10,11,23)       -171.9884         estimate D2E/DX2                !
 ! D58   D(22,10,11,24)        -54.4512         estimate D2E/DX2                !
 ! D59   D(10,11,12,13)         56.5903         estimate D2E/DX2                !
 ! D60   D(10,11,12,25)        177.4435         estimate D2E/DX2                !
 ! D61   D(10,11,12,26)        -64.8155         estimate D2E/DX2                !
 ! D62   D(23,11,12,13)        -63.8901         estimate D2E/DX2                !
 ! D63   D(23,11,12,25)         56.9631         estimate D2E/DX2                !
 ! D64   D(23,11,12,26)        174.7042         estimate D2E/DX2                !
 ! D65   D(24,11,12,13)        178.5031         estimate D2E/DX2                !
 ! D66   D(24,11,12,25)        -60.6437         estimate D2E/DX2                !
 ! D67   D(24,11,12,26)         57.0974         estimate D2E/DX2                !
 ! D68   D(11,12,13,7)         -60.2752         estimate D2E/DX2                !
 ! D69   D(11,12,13,14)       -179.1848         estimate D2E/DX2                !
 ! D70   D(11,12,13,15)         61.8788         estimate D2E/DX2                !
 ! D71   D(25,12,13,7)         178.8785         estimate D2E/DX2                !
 ! D72   D(25,12,13,14)         59.9689         estimate D2E/DX2                !
 ! D73   D(25,12,13,15)        -58.9675         estimate D2E/DX2                !
 ! D74   D(26,12,13,7)          61.108          estimate D2E/DX2                !
 ! D75   D(26,12,13,14)        -57.8017         estimate D2E/DX2                !
 ! D76   D(26,12,13,15)       -176.7381         estimate D2E/DX2                !
 ! D77   D(7,13,15,16)         -67.1602         Frozen                          !
 ! D78   D(12,13,15,16)        175.5625         estimate D2E/DX2                !
 ! D79   D(14,13,15,16)         58.0314         estimate D2E/DX2                !
 ! D80   D(13,15,16,4)           7.2086         estimate D2E/DX2                !
 ! D81   D(13,15,16,27)       -172.268          estimate D2E/DX2                !
 --------------------------------------------------------------------------------
 Trust Radius=3.00D-01 FncErr=1.00D-07 GrdErr=1.00D-07 EigMax=2.50D+02 EigMin=1.00D-04
 Number of steps in this run=     20 maximum allowed number of steps=    162.
 GradGradGradGradGradGradGradGradGradGradGradGradGradGradGradGradGradGrad

                          Input orientation:                          
 ---------------------------------------------------------------------
 Center     Atomic      Atomic             Coordinates (Angstroms)
 Number     Number       Type             X           Y           Z
 ---------------------------------------------------------------------
      1          8           0       -3.622260   -1.439320   -0.217370
      2          7           0       -3.259840   -0.278620   -0.033380
      3          8           0       -4.038000    0.660620    0.137330
      4          6           0       -1.758350    0.003930   -0.030730
      5          6           0       -1.370030    1.310130    0.289350
      6          7           0       -0.081560    1.769070    0.383260
      7          6           0        1.197750    0.996520    0.356900
      8          1           0        1.860420    1.495590    1.110890
      9          6           0        1.964290    1.045980   -0.988330
     10          6           0        3.375800    0.459230   -0.796200
     11          6           0        3.312390   -0.956080   -0.200490
     12          6           0        2.462110   -0.988100    1.087890
     13          6           0        1.025730   -0.451690    0.839150
     14          1           0        0.476320   -0.489480    1.808980
     15          7           0        0.370460   -1.321420   -0.140540
     16          6           0       -0.870580   -1.116950   -0.439170
     17          1           0       -2.155430    2.040870    0.544280
     18          1           0        0.147440    2.749300    0.201590
     19          1           0        1.415820    0.468790   -1.762870
     20          1           0        2.051640    2.095570   -1.341010
     21          1           0        3.911980    0.434070   -1.770080
     22          1           0        3.952080    1.113540   -0.104520
     23          1           0        2.865910   -1.645910   -0.951870
     24          1           0        4.339860   -1.320210    0.018440
     25          1           0        2.402640   -2.034060    1.460940
     26          1           0        2.955560   -0.376610    1.872170
     27          1           0       -1.371150   -1.861750   -1.076630
 ---------------------------------------------------------------------
                    Distance matrix (angstroms):
                    1          2          3          4          5
     1  O    0.000000
     2  N    1.229807   0.000000
     3  O    2.169885   1.231603   0.000000
     4  C    2.364734   1.527846   2.378296   0.000000
     5  C    3.590095   2.489912   2.750098   1.399786   0.000000
     6  N    4.815712   3.803694   4.116134   2.469561   1.370985
     7  C    5.430985   4.652785   5.251106   3.142295   2.587742
     8  H    6.359068   5.538433   6.036253   4.077235   3.338432
     9  C    6.162843   5.473393   6.119077   3.982576   3.580493
    10  C    7.274090   6.719973   7.475056   5.210829   4.942201
    11  C    6.951487   6.609167   7.533663   5.163607   5.225008
    12  C    6.239139   5.873782   6.772981   4.477468   4.539254
    13  C    4.867798   4.376914   5.231744   2.952183   3.024228
    14  H    4.669759   4.171048   4.949367   2.936279   2.992805
    15  N    3.995199   3.778623   4.841509   2.510068   3.184206
    16  C    2.779363   2.564376   3.677588   1.487054   2.582810
    17  H    3.852716   2.633144   2.369550   2.153470   1.102644
    18  H    5.650726   4.564326   4.678100   3.350084   2.093234
    19  H    5.604615   5.040987   5.778556   3.645786   3.560958
    20  H    6.778728   5.963094   6.428708   4.539583   3.870764
    21  H    7.917403   7.413438   8.178736   5.946680   5.736581
    22  H    7.993776   7.345404   8.006560   5.817705   5.340284
    23  H    6.532880   6.343337   7.360055   4.995423   5.312437
    24  H    7.966502   7.670921   8.609667   6.240507   6.292450
    25  H    6.282504   6.113775   7.105990   4.867476   5.175835
    26  H    6.983069   6.501686   7.279794   5.097724   4.905216
    27  H    2.446277   2.676158   3.866282   2.173613   3.453509
                    6          7          8          9         10
     6  N    0.000000
     7  C    1.494711   0.000000
     8  H    2.091775   1.121028   0.000000
     9  C    2.567026   1.549088   2.149340   0.000000
    10  C    3.880740   2.522345   2.647151   1.540633   0.000000
    11  C    4.391595   2.931729   3.136657   2.538958   1.536878
    12  C    3.816903   2.464076   2.555636   2.948897   2.545464
    13  C    2.523034   1.536056   2.135989   2.542360   3.004492
    14  H    2.728545   2.199362   2.518644   3.520886   4.011733
    15  N    3.166989   2.510916   3.423683   2.977184   3.554247
    16  C    3.102911   3.062429   4.084901   3.607815   4.543518
    17  H    2.097794   3.517043   4.092118   4.506750   5.907028
    18  H    1.022886   2.049271   2.309311   2.760100   4.081950
    19  H    2.922114   2.195331   3.083907   1.110801   2.185421
    20  H    2.762291   2.195436   2.531473   1.110699   2.174357
    21  H    4.729425   3.493914   3.692656   2.186107   1.112009
    22  H    4.115568   2.795163   2.449127   2.176464   1.112943
    23  H    4.704491   3.387930   3.890374   2.839105   2.171597
    24  H    5.406080   3.918501   3.907659   3.500825   2.181618
    25  H    4.668666   3.443121   3.588170   3.959510   3.501174
    26  H    4.005608   2.696558   2.298698   3.344972   2.827619
    27  H    4.120337   4.101702   5.147817   4.425816   5.291420
                   11         12         13         14         15
    11  C    0.000000
    12  C    1.543996   0.000000
    13  C    2.562045   1.553317   0.000000
    14  H    3.506990   2.170704   1.115280   0.000000
    15  N    2.965134   2.448498   1.464787   2.122253   0.000000
    16  C    4.192861   3.668152   2.381736   2.694817   1.292737
    17  H    6.279606   5.549040   4.052108   3.863709   4.260762
    18  H    4.889623   4.484572   3.379972   3.630642   4.091155
    19  H    2.840469   3.368098   2.787465   3.815633   2.632410
    20  H    3.493257   3.946779   3.506298   4.368816   3.992908
    21  H    2.180743   3.506092   3.990375   5.046422   4.275454
    22  H    2.168350   2.838793   3.450215   4.279260   4.331089
    23  H    1.113455   2.180915   2.831992   3.830113   2.644016
    24  H    1.111852   2.186313   3.522975   4.338558   3.972583
    25  H    2.179458   1.112086   2.187784   2.493505   2.683719
    26  H    2.181521   1.110184   2.190208   2.482612   3.409752
    27  H    4.850093   4.488017   3.376909   3.690937   2.049738
                   16         17         18         19         20
    16  C    0.000000
    17  H    3.548217   0.000000
    18  H    4.049053   2.433623   0.000000
    19  H    3.081295   4.533013   3.266285   0.000000
    20  H    4.435422   4.610504   2.536327   1.796843   0.000000
    21  H    5.200948   6.689659   4.839373   2.496412   2.530918
    22  H    5.324014   6.211486   4.152674   3.098135   2.470822
    23  H    3.808414   6.406611   5.295132   2.689319   3.848784
    24  H    5.234444   7.332268   5.845583   3.863107   4.330313
    25  H    3.894288   6.182340   5.436214   4.198931   5.002796
    26  H    4.530976   5.807729   4.521912   4.037204   4.153706
    27  H    1.100751   4.298010   5.020134   3.697235   5.238871
                   21         22         23         24         25
    21  H    0.000000
    22  H    1.799271   0.000000
    23  H    2.467802   3.084207   0.000000
    24  H    2.541532   2.467515   1.794467   0.000000
    25  H    4.336965   3.841720   2.487354   2.518573   0.000000
    26  H    3.852003   2.668502   3.097477   2.498596   1.794985
    27  H    5.801993   6.175283   4.244388   5.840212   4.550873
                   26         27
    26  H    0.000000
    27  H    5.442562   0.000000
 Symmetry turned off by external request.
 Stoichiometry    C9H13N3O2
 Framework group  C1[X(C9H13N3O2)]
 Deg. of freedom    75
 Full point group                 C1      NOp   1
 Rotational constants (GHZ):           1.6766428           0.3996752           0.3550595
 Standard basis: 6-31G(d) (6D, 7F)
   236 basis functions,   444 primitive gaussians,   236 cartesian basis functions
    52 alpha electrons       52 beta electrons
       nuclear repulsion energy       917.3851576288 Hartrees.
 NAtoms=   27 NActive=   27 NUniq=   27 SFac= 1.00D+00 NAtFMM=   60 NAOKFM=F Big=F
 Integral buffers will be    131072 words long.
 Raffenetti 1 integral format.
 Two-electron integral symmetry is turned off.
 One-electron integrals computed using PRISM.
 NBasis=   236 RedAO= T EigKep=  1.27D-03  NBF=   236
 NBsUse=   236 1.00D-06 EigRej= -1.00D+00 NBFU=   236
 ExpMin= 1.61D-01 ExpMax= 5.48D+03 ExpMxC= 8.25D+02 IAcc=3 IRadAn=         5 AccDes= 0.00D+00
 Harris functional with IExCor=  205 and IRadAn=       5 diagonalized for initial guess.
 HarFok:  IExCor=  205 AccDes= 0.00D+00 IRadAn=         5 IDoV= 1 UseB2=F ITyADJ=14
 ICtDFT=  3500011 ScaDFX=  1.000000  1.000000  1.000000  1.000000
 FoFCou: FMM=F IPFlag=           0 FMFlag=      100000 FMFlg1=           0
         NFxFlg=           0 DoJE=T BraDBF=F KetDBF=T FulRan=T
         wScrn=  0.000000 ICntrl=       500 IOpCl=  0 I1Cent=   200000004 NGrid=           0
         NMat0=    1 NMatS0=      1 NMatT0=    0 NMatD0=    1 NMtDS0=    0 NMtDT0=    0
 Symmetry not used in FoFCou.
 Keep R1 ints in memory in canonical form, NReq=397720213.
 Requested convergence on RMS density matrix=1.00D-08 within 128 cycles.
 Requested convergence on MAX density matrix=1.00D-06.
 Requested convergence on             energy=1.00D-06.
 No special actions if energy rises.
 SCF Done:  E(RHF) =  -661.280457096     A.U. after   16 cycles
            NFock= 16  Conv=0.79D-08     -V/T= 2.0037
 ExpMin= 1.61D-01 ExpMax= 5.48D+03 ExpMxC= 8.25D+02 IAcc=3 IRadAn=         5 AccDes= 0.00D+00
 HarFok:  IExCor=  205 AccDes= 0.00D+00 IRadAn=         5 IDoV=-2 UseB2=F ITyADJ=14
 ICtDFT= 12500011 ScaDFX=  1.000000  1.000000  1.000000  1.000000
 Range of M.O.s used for correlation:    15   236
 NBasis=   236 NAE=    52 NBE=    52 NFC=    14 NFV=     0
 NROrb=    222 NOA=    38 NOB=    38 NVA=   184 NVB=   184
 Fully direct method using O(ONN) memory.
 JobTyp=1 Pass  1:  I=  15 to  52 NPSUse=  4 ParTrn=T ParDer=T DoDerP=T.
 Spin components of T(2) and E(2):
     alpha-alpha T2 =       0.9197723930D-01 E2=     -0.2717641934D+00
     alpha-beta  T2 =       0.4997507890D+00 E2=     -0.1493803302D+01
     beta-beta   T2 =       0.9197723930D-01 E2=     -0.2717641934D+00
 ANorm=    0.1297576690D+01
 E2 =    -0.2037331689D+01 EUMP2 =    -0.66331778878508D+03
          IDoAtm=111111111111111111111111111
          Differentiating once with respect to electric field.
                with respect to dipole field.
          Differentiating once with respect to nuclear coordinates.
 Keep R1 ints in memory in canonical form, NReq=397723379.
          There are     1 degrees of freedom in the 1st order CPHF.  IDoFFX=0 NUNeed=     1.
 LinEq1:  Iter=  0 NonCon=     1 RMS=4.61D-03 Max=1.11D-01 NDo=     1
 AX will form     1 AO Fock derivatives at one time.
 LinEq1:  Iter=  1 NonCon=     1 RMS=1.56D-03 Max=2.88D-02 NDo=     1
 LinEq1:  Iter=  2 NonCon=     1 RMS=6.41D-04 Max=1.77D-02 NDo=     1
 LinEq1:  Iter=  3 NonCon=     1 RMS=2.94D-04 Max=9.09D-03 NDo=     1
 LinEq1:  Iter=  4 NonCon=     1 RMS=9.05D-05 Max=2.12D-03 NDo=     1
 LinEq1:  Iter=  5 NonCon=     1 RMS=3.76D-05 Max=1.89D-03 NDo=     1
 LinEq1:  Iter=  6 NonCon=     1 RMS=1.55D-05 Max=5.89D-04 NDo=     1
 LinEq1:  Iter=  7 NonCon=     1 RMS=5.97D-06 Max=1.03D-04 NDo=     1
 LinEq1:  Iter=  8 NonCon=     1 RMS=2.39D-06 Max=6.02D-05 NDo=     1
 LinEq1:  Iter=  9 NonCon=     1 RMS=8.96D-07 Max=2.56D-05 NDo=     1
 LinEq1:  Iter= 10 NonCon=     1 RMS=4.38D-07 Max=1.48D-05 NDo=     1
 LinEq1:  Iter= 11 NonCon=     1 RMS=1.55D-07 Max=5.74D-06 NDo=     1
 LinEq1:  Iter= 12 NonCon=     1 RMS=5.46D-08 Max=7.82D-07 NDo=     1
 LinEq1:  Iter= 13 NonCon=     1 RMS=1.73D-08 Max=3.72D-07 NDo=     1
 LinEq1:  Iter= 14 NonCon=     1 RMS=5.57D-09 Max=1.57D-07 NDo=     1
 LinEq1:  Iter= 15 NonCon=     1 RMS=2.08D-09 Max=5.04D-08 NDo=     1
 LinEq1:  Iter= 16 NonCon=     1 RMS=7.77D-10 Max=1.27D-08 NDo=     1
 LinEq1:  Iter= 17 NonCon=     1 RMS=2.60D-10 Max=3.74D-09 NDo=     1
 LinEq1:  Iter= 18 NonCon=     1 RMS=8.92D-11 Max=1.03D-09 NDo=     1
 LinEq1:  Iter= 19 NonCon=     0 RMS=2.96D-11 Max=3.43D-10 NDo=     1
 Linear equations converged to 1.000D-10 1.000D-09 after    19 iterations.
 End of Minotr F.D. properties file   721 does not exist.
 End of Minotr F.D. properties file   722 does not exist.
 End of Minotr F.D. properties file   788 does not exist.

 **********************************************************************

            Population analysis using the SCF Density.

 **********************************************************************

 Alpha  occ. eigenvalues --  -20.59856 -20.59421 -15.85311 -15.63252 -15.56877
 Alpha  occ. eigenvalues --  -11.35861 -11.30480 -11.30131 -11.30063 -11.27699
 Alpha  occ. eigenvalues --  -11.24617 -11.23872 -11.23405 -11.22853  -1.58512
 Alpha  occ. eigenvalues --   -1.38012  -1.28553  -1.22736  -1.13273  -1.08375
 Alpha  occ. eigenvalues --   -1.01810  -1.00663  -0.93583  -0.88968  -0.84929
 Alpha  occ. eigenvalues --   -0.81537  -0.78039  -0.76950  -0.74321  -0.71077
 Alpha  occ. eigenvalues --   -0.70350  -0.69813  -0.67417  -0.64358  -0.63270
 Alpha  occ. eigenvalues --   -0.61598  -0.60439  -0.57456  -0.56446  -0.54888
 Alpha  occ. eigenvalues --   -0.53536  -0.50730  -0.49319  -0.48496  -0.47772
 Alpha  occ. eigenvalues --   -0.47687  -0.46144  -0.45691  -0.44031  -0.42111
 Alpha  occ. eigenvalues --   -0.39996  -0.33787
 Alpha virt. eigenvalues --    0.07257   0.11761   0.18240   0.21452   0.23483
 Alpha virt. eigenvalues --    0.24272   0.26209   0.27736   0.28557   0.28872
 Alpha virt. eigenvalues --    0.29922   0.31102   0.31847   0.32269   0.33335
 Alpha virt. eigenvalues --    0.33778   0.34195   0.35482   0.37587   0.38571
 Alpha virt. eigenvalues --    0.40644   0.41782   0.44482   0.45280   0.45690
 Alpha virt. eigenvalues --    0.45992   0.49694   0.53172   0.57604   0.58956
 Alpha virt. eigenvalues --    0.63330   0.69146   0.69270   0.72194   0.74009
 Alpha virt. eigenvalues --    0.74945   0.75683   0.75859   0.77736   0.79342
 Alpha virt. eigenvalues --    0.80489   0.83616   0.85045   0.85346   0.87975
 Alpha virt. eigenvalues --    0.89096   0.90170   0.90854   0.91853   0.93890
 Alpha virt. eigenvalues --    0.95322   0.97174   0.98845   1.00353   1.01946
 Alpha virt. eigenvalues --    1.02746   1.05105   1.06483   1.06998   1.08629
 Alpha virt. eigenvalues --    1.09546   1.10479   1.11369   1.11858   1.13252
 Alpha virt. eigenvalues --    1.13831   1.14219   1.15395   1.16363   1.17287
 Alpha virt. eigenvalues --    1.17994   1.19998   1.21181   1.22329   1.22886
 Alpha virt. eigenvalues --    1.23844   1.24462   1.25691   1.27034   1.27421
 Alpha virt. eigenvalues --    1.29432   1.31116   1.33003   1.35939   1.39591
 Alpha virt. eigenvalues --    1.42675   1.45920   1.47221   1.49518   1.52560
 Alpha virt. eigenvalues --    1.54340   1.55449   1.60784   1.61467   1.66265
 Alpha virt. eigenvalues --    1.68657   1.70195   1.72691   1.73405   1.77194
 Alpha virt. eigenvalues --    1.77818   1.80093   1.84290   1.88997   1.92751
 Alpha virt. eigenvalues --    1.93793   1.96279   1.97453   1.99041   2.00807
 Alpha virt. eigenvalues --    2.02945   2.03888   2.05954   2.08823   2.11870
 Alpha virt. eigenvalues --    2.12837   2.13809   2.17753   2.18797   2.19357
 Alpha virt. eigenvalues --    2.20839   2.22044   2.24073   2.24985   2.26431
 Alpha virt. eigenvalues --    2.29091   2.32275   2.33499   2.35528   2.35908
 Alpha virt. eigenvalues --    2.38484   2.39905   2.41676   2.43214   2.46246
 Alpha virt. eigenvalues --    2.48587   2.50356   2.51064   2.56721   2.57235
 Alpha virt. eigenvalues --    2.60822   2.62805   2.66012   2.68518   2.68731
 Alpha virt. eigenvalues --    2.69741   2.70196   2.74799   2.77051   2.80893
 Alpha virt. eigenvalues --    2.84652   2.86708   2.90033   2.91438   2.95261
 Alpha virt. eigenvalues --    2.97654   2.98539   3.02282   3.03470   3.05726
 Alpha virt. eigenvalues --    3.06936   3.12614   3.19282   3.22737   3.27191
 Alpha virt. eigenvalues --    3.30762   3.33752   3.37207   3.43399   3.59767
 Alpha virt. eigenvalues --    4.10030   4.23301   4.32161   4.36370   4.43194
 Alpha virt. eigenvalues --    4.52635   4.59663   4.60083   4.70868   4.77620
 Alpha virt. eigenvalues --    4.96299   4.99234   5.02759   5.09970
          Condensed to atoms (all electrons):
               1          2          3          4          5          6
     1  O    8.299948   0.312709  -0.089637  -0.079117   0.003497  -0.000013
     2  N    0.312709   5.683058   0.309385   0.264782  -0.045976   0.000867
     3  O   -0.089637   0.309385   8.330417  -0.087389   0.007977   0.000464
     4  C   -0.079117   0.264782  -0.087389   5.243255   0.568108  -0.048384
     5  C    0.003497  -0.045976   0.007977   0.568108   4.670225   0.307495
     6  N   -0.000013   0.000867   0.000464  -0.048384   0.307495   7.192454
     7  C    0.000003  -0.000094   0.000002   0.004162  -0.029382   0.198081
     8  H   -0.000000   0.000002  -0.000000  -0.000177   0.002195  -0.050228
     9  C   -0.000000  -0.000003   0.000000   0.000472   0.001794  -0.056055
    10  C   -0.000000   0.000000  -0.000000  -0.000019  -0.000066   0.003333
    11  C   -0.000000  -0.000000  -0.000000  -0.000014   0.000015  -0.000154
    12  C   -0.000000   0.000002  -0.000000  -0.000100  -0.000119   0.003594
    13  C   -0.000019  -0.000024  -0.000002  -0.010613   0.000446  -0.044097
    14  H   -0.000003  -0.000054   0.000000   0.002936   0.004966  -0.005590
    15  N    0.000195   0.001615  -0.000013  -0.061150  -0.003755   0.001914
    16  C    0.003297  -0.026554   0.001957   0.318238  -0.041291  -0.001306
    17  H    0.000121  -0.004057   0.011759  -0.027274   0.377485  -0.034058
    18  H    0.000000  -0.000035   0.000008   0.000892  -0.024295   0.328344
    19  H    0.000000   0.000000   0.000000  -0.000760   0.000620   0.000681
    20  H    0.000000  -0.000000   0.000000  -0.000027   0.000028  -0.001772
    21  H   -0.000000  -0.000000   0.000000   0.000000   0.000001  -0.000059
    22  H   -0.000000   0.000000  -0.000000  -0.000000  -0.000002  -0.000098
    23  H    0.000000  -0.000000   0.000000   0.000025  -0.000000  -0.000024
    24  H    0.000000   0.000000   0.000000   0.000000  -0.000000   0.000004
    25  H    0.000000  -0.000000   0.000000   0.000019  -0.000001  -0.000071
    26  H    0.000000  -0.000000   0.000000   0.000006  -0.000001  -0.000066
    27  H    0.005422  -0.000153   0.000007  -0.065932   0.002116   0.000048
               7          8          9         10         11         12
     1  O    0.000003  -0.000000  -0.000000  -0.000000  -0.000000  -0.000000
     2  N   -0.000094   0.000002  -0.000003   0.000000  -0.000000   0.000002
     3  O    0.000002  -0.000000   0.000000  -0.000000  -0.000000  -0.000000
     4  C    0.004162  -0.000177   0.000472  -0.000019  -0.000014  -0.000100
     5  C   -0.029382   0.002195   0.001794  -0.000066   0.000015  -0.000119
     6  N    0.198081  -0.050228  -0.056055   0.003333  -0.000154   0.003594
     7  C    5.001893   0.416944   0.340576  -0.049331  -0.007693  -0.064099
     8  H    0.416944   0.547936  -0.060745   0.001498  -0.000333  -0.002827
     9  C    0.340576  -0.060745   5.181524   0.317858  -0.053041  -0.006251
    10  C   -0.049331   0.001498   0.317858   5.126769   0.332770  -0.060119
    11  C   -0.007693  -0.000333  -0.053041   0.332770   5.123833   0.330714
    12  C   -0.064099  -0.002827  -0.006251  -0.060119   0.330714   5.136751
    13  C    0.332734  -0.040529  -0.050087  -0.001781  -0.047903   0.368201
    14  H   -0.040271  -0.000931   0.003867  -0.000391   0.003953  -0.040699
    15  N   -0.058283   0.004063  -0.012940   0.001472  -0.007726  -0.074122
    16  C   -0.002353   0.000023  -0.000897  -0.000025   0.000002   0.002523
    17  H    0.001451  -0.000018  -0.000064   0.000001   0.000000   0.000001
    18  H   -0.028384  -0.002613   0.000864  -0.000123   0.000011  -0.000135
    19  H   -0.034966   0.004105   0.385883  -0.032553  -0.002270   0.000634
    20  H   -0.041608  -0.001857   0.397251  -0.037386   0.004140  -0.000361
    21  H    0.004041  -0.000081  -0.035837   0.400156  -0.035850   0.004210
    22  H   -0.004206   0.003511  -0.045681   0.395973  -0.045620  -0.001233
    23  H    0.000427   0.000033  -0.002003  -0.040094   0.396709  -0.036643
    24  H   -0.000140  -0.000098   0.004394  -0.038477   0.400303  -0.037867
    25  H    0.004975  -0.000005  -0.000369   0.004097  -0.033936   0.395454
    26  H   -0.004447   0.001608   0.001038  -0.002400  -0.042304   0.394698
    27  H   -0.000402   0.000009  -0.000058   0.000005   0.000005  -0.000019
              13         14         15         16         17         18
     1  O   -0.000019  -0.000003   0.000195   0.003297   0.000121   0.000000
     2  N   -0.000024  -0.000054   0.001615  -0.026554  -0.004057  -0.000035
     3  O   -0.000002   0.000000  -0.000013   0.001957   0.011759   0.000008
     4  C   -0.010613   0.002936  -0.061150   0.318238  -0.027274   0.000892
     5  C    0.000446   0.004966  -0.003755  -0.041291   0.377485  -0.024295
     6  N   -0.044097  -0.005590   0.001914  -0.001306  -0.034058   0.328344
     7  C    0.332734  -0.040271  -0.058283  -0.002353   0.001451  -0.028384
     8  H   -0.040529  -0.000931   0.004063   0.000023  -0.000018  -0.002613
     9  C   -0.050087   0.003867  -0.012940  -0.000897  -0.000064   0.000864
    10  C   -0.001781  -0.000391   0.001472  -0.000025   0.000001  -0.000123
    11  C   -0.047903   0.003953  -0.007726   0.000002   0.000000   0.000011
    12  C    0.368201  -0.040699  -0.074122   0.002523   0.000001  -0.000135
    13  C    5.024962   0.402122   0.239708  -0.069879  -0.000048   0.003667
    14  H    0.402122   0.519705  -0.035905  -0.004803   0.000066   0.000011
    15  N    0.239708  -0.035905   6.935958   0.587304  -0.000060  -0.000118
    16  C   -0.069879  -0.004803   0.587304   4.701491   0.001661  -0.000217
    17  H   -0.000048   0.000066  -0.000060   0.001661   0.386554  -0.001882
    18  H    0.003667   0.000011  -0.000118  -0.000217  -0.001882   0.324069
    19  H   -0.006299   0.000065   0.006973   0.002536   0.000011  -0.000129
    20  H    0.003860  -0.000049   0.000079  -0.000031  -0.000001   0.002908
    21  H   -0.000374   0.000009  -0.000029   0.000002  -0.000000  -0.000000
    22  H    0.000319  -0.000044   0.000002  -0.000001   0.000000   0.000002
    23  H   -0.005850   0.000008   0.006745   0.000061   0.000000   0.000000
    24  H    0.004142  -0.000058   0.000044   0.000005   0.000000  -0.000000
    25  H   -0.034494  -0.002654   0.000747  -0.000062  -0.000000   0.000002
    26  H   -0.044799  -0.000911   0.004185  -0.000056   0.000000  -0.000001
    27  H    0.004871  -0.000174  -0.039689   0.402231  -0.000059   0.000002
              19         20         21         22         23         24
     1  O    0.000000   0.000000  -0.000000  -0.000000   0.000000   0.000000
     2  N    0.000000  -0.000000  -0.000000   0.000000  -0.000000   0.000000
     3  O    0.000000   0.000000   0.000000  -0.000000   0.000000   0.000000
     4  C   -0.000760  -0.000027   0.000000  -0.000000   0.000025   0.000000
     5  C    0.000620   0.000028   0.000001  -0.000002  -0.000000  -0.000000
     6  N    0.000681  -0.001772  -0.000059  -0.000098  -0.000024   0.000004
     7  C   -0.034966  -0.041608   0.004041  -0.004206   0.000427  -0.000140
     8  H    0.004105  -0.001857  -0.000081   0.003511   0.000033  -0.000098
     9  C    0.385883   0.397251  -0.035837  -0.045681  -0.002003   0.004394
    10  C   -0.032553  -0.037386   0.400156   0.395973  -0.040094  -0.038477
    11  C   -0.002270   0.004140  -0.035850  -0.045620   0.396709   0.400303
    12  C    0.000634  -0.000361   0.004210  -0.001233  -0.036643  -0.037867
    13  C   -0.006299   0.003860  -0.000374   0.000319  -0.005850   0.004142
    14  H    0.000065  -0.000049   0.000009  -0.000044   0.000008  -0.000058
    15  N    0.006973   0.000079  -0.000029   0.000002   0.006745   0.000044
    16  C    0.002536  -0.000031   0.000002  -0.000001   0.000061   0.000005
    17  H    0.000011  -0.000001  -0.000000   0.000000   0.000000   0.000000
    18  H   -0.000129   0.002908  -0.000000   0.000002   0.000000  -0.000000
    19  H    0.506855  -0.024035  -0.002593   0.003757   0.001640  -0.000069
    20  H   -0.024035   0.550247  -0.002610  -0.002968  -0.000050  -0.000090
    21  H   -0.002593  -0.002610   0.526117  -0.024697  -0.002813  -0.002058
    22  H    0.003757  -0.002968  -0.024697   0.568805   0.004061  -0.003596
    23  H    0.001640  -0.000050  -0.002813   0.004061   0.509709  -0.024996
    24  H   -0.000069  -0.000090  -0.002058  -0.003596  -0.024996   0.541023
    25  H   -0.000027   0.000011  -0.000086  -0.000082  -0.002095  -0.002378
    26  H    0.000023  -0.000035  -0.000074   0.002465   0.003821  -0.002769
    27  H    0.000075  -0.000000  -0.000000   0.000000  -0.000021  -0.000000
              25         26         27
     1  O    0.000000   0.000000   0.005422
     2  N   -0.000000  -0.000000  -0.000153
     3  O    0.000000   0.000000   0.000007
     4  C    0.000019   0.000006  -0.065932
     5  C   -0.000001  -0.000001   0.002116
     6  N   -0.000071  -0.000066   0.000048
     7  C    0.004975  -0.004447  -0.000402
     8  H   -0.000005   0.001608   0.000009
     9  C   -0.000369   0.001038  -0.000058
    10  C    0.004097  -0.002400   0.000005
    11  C   -0.033936  -0.042304   0.000005
    12  C    0.395454   0.394698  -0.000019
    13  C   -0.034494  -0.044799   0.004871
    14  H   -0.002654  -0.000911  -0.000174
    15  N    0.000747   0.004185  -0.039689
    16  C   -0.000062  -0.000056   0.402231
    17  H   -0.000000   0.000000  -0.000059
    18  H    0.000002  -0.000001   0.000002
    19  H   -0.000027   0.000023   0.000075
    20  H    0.000011  -0.000035  -0.000000
    21  H   -0.000086  -0.000074  -0.000000
    22  H   -0.000082   0.002465   0.000000
    23  H   -0.002095   0.003821  -0.000021
    24  H   -0.002378  -0.002769  -0.000000
    25  H    0.510525  -0.023105  -0.000010
    26  H   -0.023105   0.560849   0.000001
    27  H   -0.000010   0.000001   0.451111
 Mulliken charges:
               1
     1  O   -0.456404
     2  N    0.504529
     3  O   -0.484936
     4  C   -0.021940
     5  C    0.197922
     6  N   -0.795305
     7  C    0.060370
     8  H    0.178514
     9  C   -0.311490
    10  C   -0.321165
    11  C   -0.315611
    12  C   -0.312185
    13  C   -0.028234
    14  H    0.194829
    15  N   -0.497216
    16  C    0.126140
    17  H    0.288411
    18  H    0.397148
    19  H    0.189843
    20  H    0.154356
    21  H    0.172624
    22  H    0.149333
    23  H    0.191350
    24  H    0.162682
    25  H    0.183544
    26  H    0.152275
    27  H    0.240614
 Sum of Mulliken charges =  -0.00000
 Mulliken charges with hydrogens summed into heavy atoms:
               1
     1  O   -0.456404
     2  N    0.504529
     3  O   -0.484936
     4  C   -0.021940
     5  C    0.486333
     6  N   -0.398157
     7  C    0.238884
     9  C    0.032709
    10  C    0.000792
    11  C    0.038422
    12  C    0.023634
    13  C    0.166596
    15  N   -0.497216
    16  C    0.366754
 Electronic spatial extent (au):  <R**2>=           3127.5967
 Charge=             -0.0000 electrons
 Dipole moment (field-independent basis, Debye):
    X=              5.3432    Y=              4.4685    Z=              0.5450  Tot=              6.9867
 Quadrupole moment (field-independent basis, Debye-Ang):
   XX=           -105.4633   YY=            -80.3066   ZZ=            -82.2388
   XY=             -1.8346   XZ=              0.6939   YZ=             -0.0228
 Traceless Quadrupole moment (field-independent basis, Debye-Ang):
   XX=            -16.1270   YY=              9.0296   ZZ=              7.0974
   XY=             -1.8346   XZ=              0.6939   YZ=             -0.0228
 Octapole moment (field-independent basis, Debye-Ang**2):
  XXX=            101.5534  YYY=             36.3419  ZZZ=             -4.9972  XYY=             -1.4085
  XXY=             11.5714  XXZ=              0.3613  XZZ=             -8.3162  YZZ=             -2.7983
  YYZ=              0.8982  XYZ=             -1.3110
 Hexadecapole moment (field-independent basis, Debye-Ang**3):
 XXXX=          -3563.7818 YYYY=           -618.8080 ZZZZ=           -300.0960 XXXY=            -40.4849
 XXXZ=             22.5323 YYYX=            -19.8939 YYYZ=              9.8824 ZZZX=             19.9647
 ZZZY=              7.9632 XXYY=           -657.0828 XXZZ=           -544.2677 YYZZ=           -164.3688
 XXYZ=              1.2159 YYXZ=              8.8182 ZZXY=              2.0461
 N-N= 9.173851576288D+02 E-N=-3.380778864123D+03  KE= 6.588549522557D+02
 Calling FoFJK, ICntrl=  10002127 FMM=F ISym2X=0 I1Cent= 0 IOpClX= 0 NMat=1 NMatS=1 NMatT=0.
 -------------------------------------------------------------------
 Center     Atomic                   Forces (Hartrees/Bohr)
 Number     Number              X              Y              Z
 -------------------------------------------------------------------
      1        8           0.002265461   -0.019179746   -0.003820662
      2        7           0.039231473    0.013247548    0.000830705
      3        8          -0.005102140    0.015747583    0.003519689
      4        6          -0.002857325    0.009002704    0.008309751
      5        6           0.002934292   -0.016956523   -0.005217816
      6        7           0.015098290   -0.010625939   -0.005728255
      7        6          -0.004619420    0.005329843    0.002675236
      8        1          -0.009983189   -0.001765271   -0.007633688
      9        6          -0.003938613    0.000065841   -0.002075556
     10        6           0.002850094   -0.000842756    0.000959922
     11        6          -0.001078554   -0.004617220   -0.002413866
     12        6           0.000853116   -0.008745715   -0.002819972
     13        6           0.009060106   -0.001955928    0.004717658
     14        1           0.000809605    0.004487645   -0.009833873
     15        7          -0.000024226    0.001327760    0.001319236
     16        6          -0.021186577    0.007492542    0.003144869
     17        1           0.006840834   -0.005466719   -0.007953155
     18        1          -0.017538352   -0.001598389    0.006949895
     19        1           0.003114311    0.005912391    0.007679530
     20        1          -0.003245315   -0.007321081    0.002622879
     21        1          -0.004352564    0.002418567    0.009614626
     22        1          -0.003984169   -0.003999455   -0.007393365
     23        1           0.003994337    0.006154698    0.009277718
     24        1          -0.009386824    0.002612178   -0.002131881
     25        1          -0.000775770    0.010583727   -0.002428132
     26        1          -0.004782973   -0.004825082   -0.004360746
     27        1           0.005804093    0.003516795    0.002189253
 -------------------------------------------------------------------
 Cartesian Forces:  Max     0.039231473 RMS     0.008389001

 GradGradGradGradGradGradGradGradGradGradGradGradGradGradGradGradGradGrad
 Berny optimization.
 FormGI is forming the generalized inverse of G from B-inverse, IUseBI=4.
 Internal  Forces:  Max     0.037583078 RMS     0.006877336
 Search for a local minimum.
 Step number   1 out of a maximum of   20
 All quantities printed in internal units (Hartrees-Bohrs-Radians)
 Mixed Optimization -- RFO/linear search
 Second derivative matrix not updated -- first step.
 ITU=  0
     Eigenvalues ---    0.00230   0.00770   0.01069   0.01172   0.01419
     Eigenvalues ---    0.01506   0.01531   0.01609   0.01973   0.02017
     Eigenvalues ---    0.02688   0.03659   0.04505   0.04693   0.04838
     Eigenvalues ---    0.05079   0.05138   0.05304   0.05892   0.06263
     Eigenvalues ---    0.07217   0.07701   0.07726   0.07873   0.07993
     Eigenvalues ---    0.08050   0.08058   0.10459   0.11739   0.12268
     Eigenvalues ---    0.13476   0.15263   0.15732   0.15982   0.16000
     Eigenvalues ---    0.20069   0.21911   0.23144   0.24943   0.25000
     Eigenvalues ---    0.25000   0.25364   0.26195   0.26651   0.27979
     Eigenvalues ---    0.28083   0.28456   0.29623   0.31460   0.31607
     Eigenvalues ---    0.32047   0.32237   0.32290   0.32380   0.32388
     Eigenvalues ---    0.32405   0.32515   0.32526   0.32581   0.33298
     Eigenvalues ---    0.33391   0.33599   0.35308   0.43881   0.44217
     Eigenvalues ---    0.49125   0.66898   0.90422   0.911671000.00000
     Eigenvalues --- 1000.000001000.000001000.000001000.000001000.00000
     Eigenvalues --- 1000.000001000.000001000.000001000.000001000.00000
     Eigenvalues --- 1000.000001000.000001000.000001000.000001000.00000
     Eigenvalues --- 1000.000001000.000001000.000001000.000001000.00000
     Eigenvalues --- 1000.000001000.000001000.000001000.000001000.00000
     Eigenvalues --- 1000.000001000.000001000.000001000.000001000.00000
     Eigenvalues --- 1000.000001000.000001000.000001000.000001000.00000
     Eigenvalues --- 1000.000001000.000001000.000001000.000001000.00000
     Eigenvalues --- 1000.000001000.000001000.000001000.000001000.00000
     Eigenvalues --- 1000.000001000.000001000.000001000.000001000.00000
     Eigenvalues --- 1000.000001000.000001000.000001000.000001000.00000
     Eigenvalues --- 1000.000001000.000001000.000001000.000001000.00000
     Eigenvalues --- 1000.000001000.000001000.000001000.000001000.00000
     Eigenvalues --- 1000.000001000.000001000.000001000.000001000.00000
     Eigenvalues --- 1000.000001000.000001000.000001000.000001000.00000
     Eigenvalues --- 1000.000001000.000001000.000001000.000001000.00000
     Eigenvalues --- 1000.000001000.000001000.000001000.000001000.00000
     Eigenvalues --- 1000.000001000.000001000.000001000.000001000.00000
     Eigenvalues --- 1000.00000
 RFO step:  Lambda=-2.39284103D-02 EMin= 2.30306764D-03
 Linear search not attempted -- first point.
 Iteration  1 RMS(Cart)=  0.05535337 RMS(Int)=  0.00108201
 Iteration  2 RMS(Cart)=  0.00115680 RMS(Int)=  0.00023410
 Iteration  3 RMS(Cart)=  0.00000112 RMS(Int)=  0.00023410
 Iteration  4 RMS(Cart)=  0.00000000 RMS(Int)=  0.00023410
 Iteration  1 RMS(Cart)=  0.00003413 RMS(Int)=  0.00002648
 Iteration  2 RMS(Cart)=  0.00001581 RMS(Int)=  0.00002947
 Iteration  3 RMS(Cart)=  0.00000796 RMS(Int)=  0.00003233
 Iteration  4 RMS(Cart)=  0.00000434 RMS(Int)=  0.00003388
 Iteration  5 RMS(Cart)=  0.00000254 RMS(Int)=  0.00003469
 Iteration  6 RMS(Cart)=  0.00000159 RMS(Int)=  0.00003512
 Iteration  7 RMS(Cart)=  0.00000109 RMS(Int)=  0.00003537
 Iteration  8 RMS(Cart)=  0.00000081 RMS(Int)=  0.00003553
 Variable       Old X    -DE/DX   Delta X   Delta X   Delta X     New X
                                 (Linear)    (Quad)   (Total)
    R1        2.32400   0.01801   0.00000   0.01925   0.01925   2.34324
    R2        2.32739   0.01572   0.00000   0.01694   0.01694   2.34433
    R3        2.88721  -0.03758   0.00000  -0.11739  -0.11739   2.76982
    R4        2.64521  -0.03486   0.00000  -0.07527  -0.07503   2.57018
    R5        2.81013  -0.02197   0.00000  -0.06297  -0.06275   2.74738
    R6        2.59079  -0.02402   0.00000  -0.04654  -0.04644   2.54435
    R7        2.08369  -0.01033   0.00000  -0.02888  -0.02888   2.05482
    R8        2.82460  -0.01945   0.00000  -0.05386  -0.05395   2.77065
    R9        1.93297  -0.00669   0.00000  -0.01446  -0.01446   1.91851
   R10        2.11844  -0.01182   0.00000  -0.03492  -0.03492   2.08351
   R11        2.92735  -0.01300   0.00000  -0.04435  -0.04438   2.88297
   R12        2.90273  -0.00464   0.00000  -0.00919  -0.00922   2.89350
   R13        2.91137  -0.00466   0.00000  -0.01434  -0.01436   2.89702
   R14        2.09911  -0.00996   0.00000  -0.02855  -0.02855   2.07057
   R15        2.09892  -0.00801   0.00000  -0.02293  -0.02293   2.07599
   R16        2.90428  -0.00184   0.00000  -0.00713  -0.00716   2.89712
   R17        2.10139  -0.01057   0.00000  -0.03040  -0.03040   2.07099
   R18        2.10316  -0.00901   0.00000  -0.02598  -0.02598   2.07718
   R19        2.91773  -0.00908   0.00000  -0.02868  -0.02864   2.88909
   R20        2.10412  -0.01168   0.00000  -0.03372  -0.03372   2.07041
   R21        2.10110  -0.00995   0.00000  -0.02859  -0.02859   2.07250
   R22        2.93534  -0.01052   0.00000  -0.03633  -0.03632   2.89902
   R23        2.10154  -0.01073   0.00000  -0.03085  -0.03085   2.07069
   R24        2.09794  -0.00786   0.00000  -0.02249  -0.02249   2.07546
   R25        2.10757  -0.00910   0.00000  -0.02643  -0.02643   2.08114
   R26        2.76805  -0.00517   0.00000  -0.01103  -0.01137   2.75668
   R27        2.44292  -0.00569   0.00000  -0.00784  -0.00789   2.43503
   R28        2.08012  -0.00629   0.00000  -0.01747  -0.01747   2.06265
    A1        2.15832   0.01097   0.00000   0.04008   0.04005   2.19837
    A2        2.05377  -0.00749   0.00000  -0.02732  -0.02734   2.02642
    A3        2.07106  -0.00347   0.00000  -0.01265  -0.01267   2.05838
    A4        2.03263  -0.00750   0.00000  -0.02532  -0.02571   2.00692
    A5        2.03401  -0.00303   0.00000  -0.00916  -0.00963   2.02439
    A6        2.21499   0.01046   0.00000   0.03227   0.03233   2.24732
    A7        2.20031   0.00611   0.00000   0.01919   0.01949   2.21980
    A8        2.06426  -0.00337   0.00000  -0.01114  -0.01129   2.05296
    A9        2.01721  -0.00268   0.00000  -0.00757  -0.00776   2.00946
   A10        2.25254  -0.00547   0.00000  -0.01855  -0.01867   2.23388
   A11        2.11651  -0.01249   0.00000  -0.07186  -0.07217   2.04434
   A12        1.87607   0.01814   0.00000   0.09754   0.09774   1.97381
   A13        1.83794  -0.00149   0.00000  -0.01755  -0.01735   1.82059
   A14        2.00682  -0.00116   0.00000  -0.01198  -0.01193   1.99489
   A15        1.96699   0.00098   0.00000   0.00181   0.00126   1.96825
   A16        1.85183   0.00265   0.00000   0.02389   0.02372   1.87555
   A17        1.84914   0.00079   0.00000   0.01697   0.01683   1.86597
   A18        1.93709  -0.00144   0.00000  -0.00910  -0.00877   1.92832
   A19        1.91018   0.00016   0.00000  -0.00455  -0.00470   1.90548
   A20        1.92261  -0.00074   0.00000  -0.01287  -0.01283   1.90978
   A21        1.92285  -0.00165   0.00000  -0.00718  -0.00718   1.91568
   A22        1.91924  -0.00040   0.00000   0.00575   0.00571   1.92495
   A23        1.90439   0.00304   0.00000   0.02424   0.02427   1.92866
   A24        1.88436  -0.00038   0.00000  -0.00497  -0.00522   1.87914
   A25        1.94042  -0.00090   0.00000   0.00553   0.00541   1.94583
   A26        1.91895  -0.00068   0.00000  -0.00672  -0.00673   1.91221
   A27        1.90498   0.00031   0.00000  -0.00294  -0.00300   1.90199
   A28        1.91614   0.00080   0.00000   0.00709   0.00713   1.92327
   A29        1.89851   0.00170   0.00000   0.01107   0.01110   1.90961
   A30        1.88381  -0.00123   0.00000  -0.01450  -0.01459   1.86922
   A31        1.94471   0.00060   0.00000   0.00489   0.00502   1.94973
   A32        1.90235   0.00065   0.00000   0.00592   0.00587   1.90821
   A33        1.91749   0.00038   0.00000   0.00531   0.00529   1.92277
   A34        1.90649  -0.00111   0.00000  -0.01397  -0.01401   1.89248
   A35        1.91538  -0.00047   0.00000   0.00009   0.00000   1.91539
   A36        1.87605  -0.00007   0.00000  -0.00261  -0.00264   1.87340
   A37        1.94815  -0.00293   0.00000  -0.01779  -0.01781   1.93034
   A38        1.90590   0.00254   0.00000   0.01699   0.01685   1.92275
   A39        1.91059   0.00136   0.00000   0.01297   0.01294   1.92352
   A40        1.90611   0.00016   0.00000  -0.00290  -0.00274   1.90337
   A41        1.91127  -0.00020   0.00000  -0.00487  -0.00482   1.90645
   A42        1.88057  -0.00087   0.00000  -0.00392  -0.00411   1.87646
   A43        1.84658   0.00450   0.00000   0.02357   0.02360   1.87018
   A44        1.93920  -0.00432   0.00000  -0.03158  -0.03197   1.90722
   A45        1.98222   0.00088   0.00000   0.01179   0.01195   1.99418
   A46        1.88030   0.00225   0.00000   0.03017   0.03048   1.91078
   A47        1.89202  -0.00381   0.00000  -0.02810  -0.02812   1.86390
   A48        1.91889   0.00072   0.00000  -0.00353  -0.00339   1.91550
   A49        2.08294  -0.00610   0.00000  -0.01437  -0.01468   2.06826
   A50        2.25093  -0.00510   0.00000  -0.02142  -0.02139   2.22954
   A51        1.97968   0.00563   0.00000   0.02755   0.02713   2.00681
   A52        2.05254  -0.00052   0.00000  -0.00581  -0.00623   2.04631
    D1       -3.05302  -0.00095   0.00000  -0.03853  -0.03777  -3.09079
    D2        0.14415  -0.00023   0.00000   0.00000  -0.00000   0.14414
    D3        0.09780  -0.00120   0.00000  -0.05130  -0.05092   0.04688
    D4       -2.98821  -0.00048   0.00000  -0.01277  -0.01315  -3.00137
    D5        3.11055  -0.00013   0.00000   0.00985   0.00982   3.12037
    D6        0.02865  -0.00138   0.00000   0.00000   0.00000   0.02865
    D7       -0.09323  -0.00152   0.00000  -0.03508  -0.03565  -0.12888
    D8        3.10805  -0.00276   0.00000  -0.04492  -0.04547   3.06258
    D9       -2.71628  -0.00155   0.00000  -0.04494  -0.04574  -2.76202
   D10        0.41649   0.00063   0.00000  -0.00050  -0.00090   0.41558
   D11        0.48754  -0.00003   0.00000   0.00052   0.00059   0.48813
   D12       -2.66287   0.00215   0.00000   0.04496   0.04542  -2.61745
   D13       -0.15716   0.00026   0.00000   0.03513   0.03528  -0.12187
   D14        2.65323   0.00408   0.00000   0.08153   0.08060   2.73382
   D15        2.92616   0.00145   0.00000   0.04460   0.04475   2.97091
   D16       -0.54665   0.00526   0.00000   0.09100   0.09007  -0.45658
   D17       -2.46575  -0.00081   0.00000  -0.02223  -0.02181  -2.48757
   D18        1.78574  -0.00247   0.00000  -0.03360  -0.03324   1.75250
   D19       -0.45789  -0.00027   0.00000  -0.01144  -0.01138  -0.46928
   D20        0.97156  -0.00014   0.00000  -0.04068  -0.04119   0.93038
   D21       -1.06013  -0.00180   0.00000  -0.05205  -0.05262  -1.11275
   D22        2.97942   0.00040   0.00000  -0.02989  -0.03076   2.94867
   D23        2.94460   0.00239   0.00000   0.02476   0.02471   2.96930
   D24       -1.22642   0.00152   0.00000   0.02083   0.02078  -1.20564
   D25        0.85062  -0.00044   0.00000   0.00219   0.00222   0.85285
   D26        0.92085   0.00311   0.00000   0.03720   0.03720   0.95805
   D27        3.03302   0.00224   0.00000   0.03327   0.03327   3.06629
   D28       -1.17312   0.00028   0.00000   0.01463   0.01472  -1.15841
   D29       -1.08014   0.00142   0.00000   0.00843   0.00839  -1.07175
   D30        1.03203   0.00055   0.00000   0.00450   0.00446   1.03649
   D31        3.10907  -0.00141   0.00000  -0.01414  -0.01410   3.09498
   D32       -2.90066  -0.00111   0.00000  -0.01246  -0.01221  -2.91287
   D33       -0.86472   0.00193   0.00000   0.02078   0.02064  -0.84408
   D34        1.30938   0.00013   0.00000   0.00000  -0.00000   1.30938
   D35       -0.89957  -0.00193   0.00000  -0.02250  -0.02239  -0.92196
   D36        1.13637   0.00111   0.00000   0.01073   0.01046   1.14683
   D37       -2.97271  -0.00069   0.00000  -0.01004  -0.01018  -2.98290
   D38        1.10310   0.00092   0.00000   0.01059   0.01069   1.11379
   D39        3.13904   0.00397   0.00000   0.04382   0.04354  -3.10060
   D40       -0.97004   0.00216   0.00000   0.02305   0.02290  -0.94714
   D41        0.95666   0.00063   0.00000   0.00000   0.00001   0.95667
   D42        3.08231   0.00058   0.00000   0.00807   0.00802   3.09034
   D43       -1.13764  -0.00112   0.00000  -0.01529  -0.01525  -1.15290
   D44       -1.15755   0.00170   0.00000   0.01519   0.01527  -1.14228
   D45        0.96810   0.00165   0.00000   0.02326   0.02328   0.99139
   D46        3.03134  -0.00005   0.00000  -0.00009   0.00001   3.03134
   D47        3.06191   0.00059   0.00000   0.00334   0.00331   3.06522
   D48       -1.09562   0.00054   0.00000   0.01141   0.01132  -1.08430
   D49        0.96761  -0.00117   0.00000  -0.01194  -0.01195   0.95565
   D50       -0.92193  -0.00080   0.00000   0.00000   0.00001  -0.92192
   D51        1.18328  -0.00139   0.00000  -0.01041  -0.01042   1.17286
   D52       -3.04849  -0.00088   0.00000  -0.00703  -0.00707  -3.05556
   D53       -3.04922   0.00011   0.00000  -0.00002   0.00001  -3.04921
   D54       -0.94400  -0.00047   0.00000  -0.01042  -0.01042  -0.95442
   D55        1.10741   0.00004   0.00000  -0.00704  -0.00707   1.10034
   D56        1.17621   0.00013   0.00000   0.00694   0.00697   1.18318
   D57       -3.00176  -0.00045   0.00000  -0.00347  -0.00346  -3.00522
   D58       -0.95035   0.00006   0.00000  -0.00009  -0.00010  -0.95045
   D59        0.98769  -0.00079   0.00000  -0.01179  -0.01184   0.97584
   D60        3.09697  -0.00077   0.00000  -0.01547  -0.01562   3.08135
   D61       -1.13124   0.00046   0.00000  -0.00280  -0.00278  -1.13402
   D62       -1.11509  -0.00124   0.00000  -0.01306  -0.01306  -1.12815
   D63        0.99419  -0.00122   0.00000  -0.01675  -0.01684   0.97735
   D64        3.04916   0.00000   0.00000  -0.00408  -0.00400   3.04516
   D65        3.11547  -0.00023   0.00000  -0.00175  -0.00176   3.11371
   D66       -1.05843  -0.00020   0.00000  -0.00543  -0.00554  -1.06397
   D67        0.99654   0.00102   0.00000   0.00724   0.00731   1.00384
   D68       -1.05200   0.00003   0.00000   0.00009   0.00020  -1.05180
   D69       -3.12737   0.00159   0.00000   0.00943   0.00908  -3.11828
   D70        1.07999   0.00157   0.00000   0.01226   0.01216   1.09214
   D71        3.12202  -0.00138   0.00000  -0.00782  -0.00765   3.11437
   D72        1.04665   0.00018   0.00000   0.00152   0.00124   1.04789
   D73       -1.02918   0.00016   0.00000   0.00435   0.00431  -1.02487
   D74        1.06654  -0.00031   0.00000   0.00144   0.00165   1.06819
   D75       -1.00883   0.00124   0.00000   0.01078   0.01053  -0.99830
   D76       -3.08466   0.00123   0.00000   0.01361   0.01360  -3.07106
   D77       -1.17217   0.00360   0.00000   0.00000   0.00000  -1.17217
   D78        3.06414  -0.00000   0.00000  -0.01780  -0.01764   3.04650
   D79        1.01284  -0.00090   0.00000  -0.03577  -0.03602   0.97682
   D80        0.12581   0.00200   0.00000   0.01814   0.01792   0.14373
   D81       -3.00664  -0.00028   0.00000  -0.02801  -0.02793  -3.03458
         Item               Value     Threshold  Converged?
 Maximum Force            0.037583     0.000450     NO 
 RMS     Force            0.006978     0.000300     NO 
 Maximum Displacement     0.291803     0.001800     NO 
 RMS     Displacement     0.055612     0.001200     NO 
 Predicted change in Energy=-1.342700D-02
 GradGradGradGradGradGradGradGradGradGradGradGradGradGradGradGradGradGrad

                          Input orientation:                          
 ---------------------------------------------------------------------
 Center     Atomic      Atomic             Coordinates (Angstroms)
 Number     Number       Type             X           Y           Z
 ---------------------------------------------------------------------
      1          8           0       -3.484945   -1.418170   -0.254903
      2          7           0       -3.130014   -0.248311   -0.047461
      3          8           0       -3.883585    0.719532    0.138050
      4          6           0       -1.684329   -0.008625   -0.017450
      5          6           0       -1.319687    1.269081    0.272931
      6          7           0       -0.068122    1.752342    0.386358
      7          6           0        1.193181    1.005144    0.365335
      8          1           0        1.826844    1.519118    1.106898
      9          6           0        1.926344    1.048540   -0.971844
     10          6           0        3.327088    0.450368   -0.797754
     11          6           0        3.264986   -0.960961   -0.202228
     12          6           0        2.442754   -0.995464    1.086219
     13          6           0        1.033305   -0.441111    0.842082
     14          1           0        0.465759   -0.452181    1.785809
     15          7           0        0.394981   -1.324653   -0.127409
     16          6           0       -0.844825   -1.126296   -0.417109
     17          1           0       -2.111623    1.984399    0.481527
     18          1           0        0.057595    2.749818    0.245170
     19          1           0        1.359717    0.478737   -1.716698
     20          1           0        1.992416    2.086462   -1.325679
     21          1           0        3.840418    0.430275   -1.765810
     22          1           0        3.913811    1.101363   -0.134282
     23          1           0        2.802339   -1.640292   -0.926684
     24          1           0        4.277665   -1.333252   -0.005556
     25          1           0        2.363568   -2.023766    1.456375
     26          1           0        2.935411   -0.400246    1.866753
     27          1           0       -1.330052   -1.858841   -1.064660
 ---------------------------------------------------------------------
                    Distance matrix (angstroms):
                    1          2          3          4          5
     1  O    0.000000
     2  N    1.239991   0.000000
     3  O    2.209774   1.240566   0.000000
     4  C    2.299004   1.465727   2.321879   0.000000
     5  C    3.491170   2.383781   2.625598   1.360080   0.000000
     6  N    4.705108   3.683205   3.960569   2.424086   1.346411
     7  C    5.304904   4.520129   5.089871   3.074787   2.528381
     8  H    6.220713   5.387652   5.846965   3.990801   3.264764
     9  C    5.990051   5.301232   5.924136   3.881421   3.483508
    10  C    7.084483   6.537985   7.276124   5.092528   4.838303
    11  C    6.765603   6.436447   7.351321   5.043492   5.120361
    12  C    6.092200   5.735783   6.622899   4.384603   4.466045
    13  C    4.751063   4.261652   5.100839   2.882945   2.963994
    14  H    4.550352   4.041290   4.796333   2.841014   2.905058
    15  N    3.883146   3.686529   4.749241   2.463240   3.134935
    16  C    2.661153   2.475800   3.598520   1.453851   2.537614
    17  H    3.742435   2.510368   2.204022   2.098501   1.087362
    18  H    5.492885   4.385803   4.434685   3.272962   2.022439
    19  H    5.404243   4.844856   5.566892   3.520111   3.429647
    20  H    6.590181   5.772720   6.207929   4.429369   3.767452
    21  H    7.704578   7.211111   7.960438   5.811387   5.611305
    22  H    7.816916   7.172491   7.811488   5.708318   5.251995
    23  H    6.326971   6.156578   7.169659   4.859962   5.186003
    24  H    7.767077   7.486825   8.416682   6.107384   6.179000
    25  H    6.123751   5.966004   6.949143   4.755883   5.080330
    26  H    6.838024   6.362129   7.123273   5.004556   4.840742
    27  H    2.343813   2.620756   3.822963   2.155333   3.401933
                    6          7          8          9         10
     6  N    0.000000
     7  C    1.466163   0.000000
     8  H    2.040703   1.102549   0.000000
     9  C    2.513552   1.525601   2.133662   0.000000
    10  C    3.824226   2.492811   2.649652   1.533036   0.000000
    11  C    4.337979   2.912056   3.151644   2.534239   1.533087
    12  C    3.787445   2.466482   2.588995   2.946227   2.534133
    13  C    2.496410   1.531177   2.131274   2.511356   2.957235
    14  H    2.665223   2.161177   2.489878   3.462675   3.959367
    15  N    3.153779   2.511548   3.414789   2.947913   3.492464
    16  C    3.087942   3.051020   4.056924   3.566094   4.476116
    17  H    2.058836   3.448794   4.014860   4.392414   5.793910
    18  H    1.015233   2.085158   2.321086   2.804941   4.130950
    19  H    2.843174   2.153996   3.045208   1.095696   2.171592
    20  H    2.699726   2.160452   2.503342   1.098566   2.176433
    21  H    4.653640   3.446754   3.673215   2.162478   1.095922
    22  H    4.068246   2.767797   2.463834   2.157388   1.099197
    23  H    4.633961   3.355150   3.881870   2.828290   2.159362
    24  H    5.344188   3.888405   3.921745   3.483584   2.170823
    25  H    4.617039   3.425561   3.600311   3.940365   3.482930
    26  H    3.980756   2.695318   2.343130   3.342878   2.824279
    27  H    4.091279   4.076028   5.108059   4.366417   5.205058
                   11         12         13         14         15
    11  C    0.000000
    12  C    1.528841   0.000000
    13  C    2.518181   1.534098   0.000000
    14  H    3.470853   2.166354   1.101294   0.000000
    15  N    2.893924   2.403046   1.458773   2.103953   0.000000
    16  C    4.118745   3.617359   2.362713   2.650454   1.288561
    17  H    6.168517   5.476092   3.987941   3.779018   4.195676
    18  H    4.925181   4.519235   3.389741   3.576725   4.105358
    19  H    2.827791   3.347025   2.738617   3.732736   2.590129
    20  H    3.488319   3.939330   3.465214   4.296131   3.952639
    21  H    2.170587   3.481417   3.929415   4.978056   4.199424
    22  H    2.163047   2.837308   3.410254   4.241381   4.274081
    23  H    1.095614   2.144034   2.774176   3.772112   2.556137
    24  H    1.096722   2.161706   3.469911   4.303010   3.884605
    25  H    2.166350   1.095761   2.156793   2.485978   2.621539
    26  H    2.168802   1.098285   2.160933   2.471524   3.359315
    27  H    4.760709   4.427839   3.351280   3.650863   2.034585
                   16         17         18         19         20
    16  C    0.000000
    17  H    3.476888   0.000000
    18  H    4.034506   2.312410   0.000000
    19  H    3.020773   4.376005   3.271431   0.000000
    20  H    4.381467   4.485482   2.578980   1.771436   0.000000
    21  H    5.117949   6.549246   4.871763   2.481660   2.520274
    22  H    5.261851   6.120852   4.210913   3.068403   2.466091
    23  H    3.718288   6.266456   5.308477   2.682455   3.834563
    24  H    5.143161   7.215751   5.877356   3.837412   4.319668
    25  H    3.822196   6.086301   5.437981   4.163968   4.977103
    26  H    4.475864   5.751343   4.564456   4.012050   4.155066
    27  H    1.091508   4.215690   4.988081   3.622745   5.164527
                   21         22         23         24         25
    21  H    0.000000
    22  H    1.765681   0.000000
    23  H    2.463532   3.062670   0.000000
    24  H    2.529764   2.465017   1.766165   0.000000
    25  H    4.311134   3.834042   2.453271   2.505557   0.000000
    26  H    3.834621   2.686305   3.059201   2.485494   1.769529
    27  H    5.697843   6.093153   4.140466   5.731006   4.475003
                   26         27
    26  H    0.000000
    27  H    5.377254   0.000000
 Symmetry turned off by external request.
 Stoichiometry    C9H13N3O2
 Framework group  C1[X(C9H13N3O2)]
 Deg. of freedom    75
 Full point group                 C1      NOp   1
 Rotational constants (GHZ):           1.6881078           0.4211290           0.3720672
 Standard basis: 6-31G(d) (6D, 7F)
   236 basis functions,   444 primitive gaussians,   236 cartesian basis functions
    52 alpha electrons       52 beta electrons
       nuclear repulsion energy       932.0386641462 Hartrees.
 NAtoms=   27 NActive=   27 NUniq=   27 SFac= 1.00D+00 NAtFMM=   60 NAOKFM=F Big=F
 Integral buffers will be    131072 words long.
 Raffenetti 1 integral format.
 Two-electron integral symmetry is turned off.
 One-electron integrals computed using PRISM.
 NBasis=   236 RedAO= T EigKep=  1.01D-03  NBF=   236
 NBsUse=   236 1.00D-06 EigRej= -1.00D+00 NBFU=   236
 Initial guess from the checkpoint file:  "/home/alexey/tmp/Gau-1406696.chk"
 B after Tr=     0.055439    0.005556   -0.000544
         Rot=    0.999999   -0.000742    0.000779    0.001183 Ang=  -0.18 deg.
 ExpMin= 1.61D-01 ExpMax= 5.48D+03 ExpMxC= 8.25D+02 IAcc=3 IRadAn=         5 AccDes= 0.00D+00
 Harris functional with IExCor=  205 and IRadAn=       5 diagonalized for initial guess.
 HarFok:  IExCor=  205 AccDes= 0.00D+00 IRadAn=         5 IDoV= 1 UseB2=F ITyADJ=14
 ICtDFT=  3500011 ScaDFX=  1.000000  1.000000  1.000000  1.000000
 FoFCou: FMM=F IPFlag=           0 FMFlag=      100000 FMFlg1=           0
         NFxFlg=           0 DoJE=T BraDBF=F KetDBF=T FulRan=T
         wScrn=  0.000000 ICntrl=       500 IOpCl=  0 I1Cent=   200000004 NGrid=           0
         NMat0=    1 NMatS0=      1 NMatT0=    0 NMatD0=    1 NMtDS0=    0 NMtDT0=    0
 Symmetry not used in FoFCou.
 Keep R1 ints in memory in canonical form, NReq=397720213.
 Requested convergence on RMS density matrix=1.00D-08 within 128 cycles.
 Requested convergence on MAX density matrix=1.00D-06.
 Requested convergence on             energy=1.00D-06.
 No special actions if energy rises.
 SCF Done:  E(RHF) =  -661.297871780     A.U. after   14 cycles
            NFock= 14  Conv=0.93D-08     -V/T= 2.0024
 ExpMin= 1.61D-01 ExpMax= 5.48D+03 ExpMxC= 8.25D+02 IAcc=3 IRadAn=         5 AccDes= 0.00D+00
 HarFok:  IExCor=  205 AccDes= 0.00D+00 IRadAn=         5 IDoV=-2 UseB2=F ITyADJ=14
 ICtDFT= 12500011 ScaDFX=  1.000000  1.000000  1.000000  1.000000
 Range of M.O.s used for correlation:    15   236
 NBasis=   236 NAE=    52 NBE=    52 NFC=    14 NFV=     0
 NROrb=    222 NOA=    38 NOB=    38 NVA=   184 NVB=   184
 Fully direct method using O(ONN) memory.
 JobTyp=1 Pass  1:  I=  15 to  52 NPSUse=  4 ParTrn=T ParDer=T DoDerP=T.
 Spin components of T(2) and E(2):
     alpha-alpha T2 =       0.9125104009D-01 E2=     -0.2723313870D+00
     alpha-beta  T2 =       0.4913325424D+00 E2=     -0.1488076736D+01
     beta-beta   T2 =       0.9125104009D-01 E2=     -0.2723313870D+00
 ANorm=    0.1293767608D+01
 E2 =    -0.2032739510D+01 EUMP2 =    -0.66333061128973D+03
          IDoAtm=111111111111111111111111111
          Differentiating once with respect to electric field.
                with respect to dipole field.
          Differentiating once with respect to nuclear coordinates.
 Keep R1 ints in memory in canonical form, NReq=397723379.
          There are     1 degrees of freedom in the 1st order CPHF.  IDoFFX=0 NUNeed=     1.
 LinEq1:  Iter=  0 NonCon=     1 RMS=4.57D-03 Max=1.04D-01 NDo=     1
 AX will form     1 AO Fock derivatives at one time.
 LinEq1:  Iter=  1 NonCon=     1 RMS=1.53D-03 Max=2.85D-02 NDo=     1
 LinEq1:  Iter=  2 NonCon=     1 RMS=6.42D-04 Max=1.75D-02 NDo=     1
 LinEq1:  Iter=  3 NonCon=     1 RMS=2.80D-04 Max=8.15D-03 NDo=     1
 LinEq1:  Iter=  4 NonCon=     1 RMS=8.71D-05 Max=1.94D-03 NDo=     1
 LinEq1:  Iter=  5 NonCon=     1 RMS=3.64D-05 Max=1.78D-03 NDo=     1
 LinEq1:  Iter=  6 NonCon=     1 RMS=1.41D-05 Max=5.36D-04 NDo=     1
 LinEq1:  Iter=  7 NonCon=     1 RMS=5.39D-06 Max=9.70D-05 NDo=     1
 LinEq1:  Iter=  8 NonCon=     1 RMS=2.15D-06 Max=5.23D-05 NDo=     1
 LinEq1:  Iter=  9 NonCon=     1 RMS=7.68D-07 Max=2.31D-05 NDo=     1
[...]
    27  H    4.724079   4.418618   3.356651   3.656519   2.029371
                   16         17         18         19         20
    16  C    0.000000
    17  H    3.463940   0.000000
    18  H    4.088375   2.235938   0.000000
    19  H    2.990648   4.303393   3.511921   0.000000
    20  H    4.375158   4.449314   2.882052   1.768552   0.000000
    21  H    5.096546   6.511265   5.086489   2.499201   2.521004
    22  H    5.248727   6.100583   4.313193   3.070236   2.461450
    23  H    3.694972   6.235064   5.421181   2.704218   3.842935
    24  H    5.133820   7.200934   5.936630   3.849634   4.317116
    25  H    3.821479   6.088367   5.369650   4.171499   4.985087
    26  H    4.495245   5.781366   4.485211   4.036047   4.182377
    27  H    1.089669   4.215404   5.079513   3.583547   5.148165
                   21         22         23         24         25
    21  H    0.000000
    22  H    1.758870   0.000000
    23  H    2.469461   3.062294   0.000000
    24  H    2.517345   2.459896   1.764589   0.000000
    25  H    4.312008   3.839548   2.444060   2.519695   0.000000
    26  H    3.846760   2.704433   3.060430   2.491725   1.767998
    27  H    5.653132   6.060581   4.090491   5.694787   4.454296
                   26         27
    26  H    0.000000
    27  H    5.378492   0.000000
 Symmetry turned off by external request.
 Stoichiometry    C9H13N3O2
 Framework group  C1[X(C9H13N3O2)]
 Deg. of freedom    75
 Full point group                 C1      NOp   1
 Rotational constants (GHZ):           1.6800849           0.4193372           0.3721332

 **********************************************************************

            Population analysis using the SCF Density.

 **********************************************************************

 Alpha  occ. eigenvalues --  -20.59237 -20.58904 -15.84722 -15.64136 -15.56112
 Alpha  occ. eigenvalues --  -11.35017 -11.29623 -11.29560 -11.28628 -11.27134
 Alpha  occ. eigenvalues --  -11.23728 -11.23208 -11.22692 -11.22089  -1.57116
 Alpha  occ. eigenvalues --   -1.36709  -1.30977  -1.23065  -1.14702  -1.09818
 Alpha  occ. eigenvalues --   -1.02805  -1.01307  -0.94481  -0.89685  -0.85565
 Alpha  occ. eigenvalues --   -0.82448  -0.78610  -0.77411  -0.75202  -0.72019
 Alpha  occ. eigenvalues --   -0.69770  -0.69438  -0.67820  -0.64893  -0.63778
 Alpha  occ. eigenvalues --   -0.62367  -0.60281  -0.57700  -0.57001  -0.55077
 Alpha  occ. eigenvalues --   -0.54582  -0.50762  -0.50109  -0.48656  -0.48103
 Alpha  occ. eigenvalues --   -0.47372  -0.46146  -0.46044  -0.43677  -0.41696
 Alpha  occ. eigenvalues --   -0.39848  -0.33829
 Alpha virt. eigenvalues --    0.07465   0.11799   0.17307   0.21848   0.24113
 Alpha virt. eigenvalues --    0.25664   0.27134   0.28694   0.29044   0.29635
 Alpha virt. eigenvalues --    0.30683   0.31797   0.32036   0.32767   0.33950
 Alpha virt. eigenvalues --    0.34386   0.35850   0.37313   0.38580   0.40290
 Alpha virt. eigenvalues --    0.41384   0.42443   0.45024   0.46117   0.46731
 Alpha virt. eigenvalues --    0.47077   0.49001   0.53996   0.57579   0.59405
 Alpha virt. eigenvalues --    0.63912   0.69544   0.69908   0.72861   0.74243
 Alpha virt. eigenvalues --    0.74867   0.75780   0.76676   0.78660   0.79442
 Alpha virt. eigenvalues --    0.81386   0.84691   0.85717   0.85807   0.88530
 Alpha virt. eigenvalues --    0.89423   0.91052   0.92112   0.92854   0.94526
 Alpha virt. eigenvalues --    0.95642   0.98039   0.99638   1.01676   1.02471
 Alpha virt. eigenvalues --    1.03152   1.05873   1.06970   1.07902   1.09013
 Alpha virt. eigenvalues --    1.10284   1.11423   1.11855   1.12443   1.13916
 Alpha virt. eigenvalues --    1.14765   1.14990   1.15831   1.16902   1.18725
 Alpha virt. eigenvalues --    1.19136   1.21337   1.22576   1.23914   1.24537
 Alpha virt. eigenvalues --    1.24829   1.26041   1.26910   1.27484   1.29558
 Alpha virt. eigenvalues --    1.30007   1.33126   1.36070   1.37183   1.40862
 Alpha virt. eigenvalues --    1.41854   1.46492   1.48743   1.51693   1.54291
 Alpha virt. eigenvalues --    1.56370   1.58776   1.59558   1.63470   1.65627
 Alpha virt. eigenvalues --    1.68030   1.68630   1.72989   1.75226   1.77368
 Alpha virt. eigenvalues --    1.81580   1.84599   1.87680   1.90655   1.93492
 Alpha virt. eigenvalues --    1.95811   1.96957   1.99719   2.01568   2.02522
 Alpha virt. eigenvalues --    2.05104   2.05605   2.08497   2.09560   2.12394
 Alpha virt. eigenvalues --    2.13263   2.15297   2.18822   2.20012   2.22448
 Alpha virt. eigenvalues --    2.22635   2.24492   2.25492   2.28215   2.29549
 Alpha virt. eigenvalues --    2.31997   2.33725   2.34701   2.36398   2.38464
 Alpha virt. eigenvalues --    2.40482   2.41928   2.43865   2.45144   2.47362
 Alpha virt. eigenvalues --    2.50719   2.51949   2.53115   2.55570   2.61504
 Alpha virt. eigenvalues --    2.62310   2.65193   2.67626   2.70318   2.70495
 Alpha virt. eigenvalues --    2.72272   2.72649   2.76983   2.78441   2.83803
 Alpha virt. eigenvalues --    2.88565   2.88950   2.92943   2.93136   2.96057
 Alpha virt. eigenvalues --    2.99437   3.01342   3.04314   3.05723   3.07676
 Alpha virt. eigenvalues --    3.09415   3.15050   3.21210   3.25216   3.27459
 Alpha virt. eigenvalues --    3.33445   3.37783   3.38786   3.52158   3.65799
 Alpha virt. eigenvalues --    4.13672   4.28069   4.34719   4.38924   4.46293
 Alpha virt. eigenvalues --    4.56306   4.61873   4.62354   4.73464   4.79739
 Alpha virt. eigenvalues --    4.99414   5.00899   5.05023   5.11166
          Condensed to atoms (all electrons):
               1          2          3          4          5          6
     1  O    8.316068   0.306982  -0.082550  -0.085459   0.004638  -0.000016
     2  N    0.306982   5.722339   0.301230   0.264184  -0.053644   0.000970
     3  O   -0.082550   0.301230   8.353661  -0.092655   0.003626   0.000785
     4  C   -0.085459   0.264184  -0.092655   5.225632   0.560355  -0.047281
     5  C    0.004638  -0.053644   0.003626   0.560355   4.709991   0.317396
     6  N   -0.000016   0.000970   0.000785  -0.047281   0.317396   7.195606
     7  C    0.000004  -0.000140   0.000002   0.004630  -0.030205   0.169282
     8  H   -0.000000   0.000002  -0.000000  -0.000261   0.003096  -0.050665
     9  C   -0.000000  -0.000004  -0.000000   0.000855   0.000625  -0.061666
    10  C    0.000000   0.000000   0.000000  -0.000038  -0.000052   0.003749
    11  C   -0.000000  -0.000000  -0.000000  -0.000028   0.000025  -0.000190
    12  C   -0.000000   0.000002  -0.000000  -0.000127  -0.000176   0.003873
    13  C   -0.000025  -0.000039  -0.000004  -0.011555  -0.000582  -0.047702
    14  H   -0.000004  -0.000104   0.000001   0.002646   0.006075  -0.006958
    15  N    0.000382   0.002361  -0.000016  -0.063521  -0.006392   0.001595
    16  C    0.000856  -0.027267   0.002547   0.328470  -0.050320  -0.001857
    17  H    0.000220  -0.007234   0.017396  -0.023146   0.374510  -0.034180
    18  H    0.000001  -0.000050   0.000012   0.001506  -0.031446   0.338681
    19  H    0.000001  -0.000004   0.000000  -0.001226   0.001233  -0.000353
    20  H    0.000000  -0.000000   0.000000  -0.000079   0.000153  -0.000428
    21  H   -0.000000   0.000000   0.000000   0.000001   0.000001  -0.000077
    22  H   -0.000000   0.000000  -0.000000  -0.000000  -0.000003  -0.000117
    23  H    0.000000  -0.000000   0.000000   0.000041  -0.000000  -0.000031
    24  H    0.000000   0.000000   0.000000   0.000000  -0.000000   0.000006
    25  H    0.000000  -0.000000   0.000000   0.000024   0.000000  -0.000090
    26  H    0.000000  -0.000000   0.000000   0.000006  -0.000002  -0.000060
    27  H    0.006131  -0.000880   0.000018  -0.063408   0.002215   0.000016
               7          8          9         10         11         12
     1  O    0.000004  -0.000000  -0.000000   0.000000  -0.000000  -0.000000
     2  N   -0.000140   0.000002  -0.000004   0.000000  -0.000000   0.000002
     3  O    0.000002  -0.000000  -0.000000   0.000000  -0.000000  -0.000000
     4  C    0.004630  -0.000261   0.000855  -0.000038  -0.000028  -0.000127
     5  C   -0.030205   0.003096   0.000625  -0.000052   0.000025  -0.000176
     6  N    0.169282  -0.050665  -0.061666   0.003749  -0.000190   0.003873
     7  C    5.017590   0.418407   0.350538  -0.054679  -0.009029  -0.061070
     8  H    0.418407   0.538074  -0.055036   0.000776  -0.000325  -0.002229
     9  C    0.350538  -0.055036   5.158235   0.324774  -0.050413  -0.005342
    10  C   -0.054679   0.000776   0.324774   5.119318   0.337000  -0.060991
    11  C   -0.009029  -0.000325  -0.050413   0.337000   5.119931   0.335971
    12  C   -0.061070  -0.002229  -0.005342  -0.060991   0.335971   5.118639
    13  C    0.338597  -0.037933  -0.060246  -0.000283  -0.050692   0.371986
    14  H   -0.046591  -0.000745   0.004422  -0.000405   0.004195  -0.036324
    15  N   -0.057957   0.003900  -0.014619   0.001561  -0.013057  -0.082063
    16  C   -0.001775   0.000009  -0.001271  -0.000029   0.000029   0.002609
    17  H    0.001616  -0.000045  -0.000070   0.000001   0.000000   0.000000
    18  H   -0.021219  -0.004474   0.001328  -0.000083   0.000004  -0.000114
    19  H   -0.036858   0.004361   0.390225  -0.032070  -0.002212   0.000689
    20  H   -0.042412  -0.002077   0.399487  -0.035302   0.003931  -0.000415
    21  H    0.004599  -0.000076  -0.036359   0.402432  -0.034895   0.004349
    22  H   -0.004849   0.003559  -0.046956   0.397753  -0.045404  -0.001020
    23  H    0.000577   0.000035  -0.001958  -0.039019   0.399178  -0.037866
    24  H   -0.000130  -0.000102   0.004388  -0.038437   0.402340  -0.038691
    25  H    0.005152  -0.000025  -0.000423   0.004190  -0.033400   0.398272
    26  H   -0.003906   0.001685   0.000969  -0.002231  -0.041481   0.396729
    27  H   -0.000407   0.000009  -0.000058   0.000007   0.000012  -0.000036
              13         14         15         16         17         18
     1  O   -0.000025  -0.000004   0.000382   0.000856   0.000220   0.000001
     2  N   -0.000039  -0.000104   0.002361  -0.027267  -0.007234  -0.000050
     3  O   -0.000004   0.000001  -0.000016   0.002547   0.017396   0.000012
     4  C   -0.011555   0.002646  -0.063521   0.328470  -0.023146   0.001506
     5  C   -0.000582   0.006075  -0.006392  -0.050320   0.374510  -0.031446
     6  N   -0.047702  -0.006958   0.001595  -0.001857  -0.034180   0.338681
     7  C    0.338597  -0.046591  -0.057957  -0.001775   0.001616  -0.021219
     8  H   -0.037933  -0.000745   0.003900   0.000009  -0.000045  -0.004474
     9  C   -0.060246   0.004422  -0.014619  -0.001271  -0.000070   0.001328
    10  C   -0.000283  -0.000405   0.001561  -0.000029   0.000001  -0.000083
    11  C   -0.050692   0.004195  -0.013057   0.000029   0.000000   0.000004
    12  C    0.371986  -0.036324  -0.082063   0.002609   0.000000  -0.000114
    13  C    5.040232   0.403083   0.244782  -0.071083  -0.000009   0.002971
    14  H    0.403083   0.526764  -0.037363  -0.004543   0.000093  -0.000108
    15  N    0.244782  -0.037363   6.965094   0.585211  -0.000080  -0.000132
    16  C   -0.071083  -0.004543   0.585211   4.709904   0.002013  -0.000197
    17  H   -0.000009   0.000093  -0.000080   0.002013   0.376470  -0.002817
    18  H    0.002971  -0.000108  -0.000132  -0.000197  -0.002817   0.310603
    19  H   -0.007548   0.000106   0.007696   0.003002   0.000016  -0.000149
    20  H    0.004340  -0.000066   0.000126  -0.000036   0.000002   0.000806
    21  H   -0.000433   0.000010  -0.000041   0.000004  -0.000000   0.000001
    22  H    0.000045  -0.000055   0.000019  -0.000002   0.000000   0.000001
    23  H   -0.007524   0.000003   0.008590   0.000106   0.000000   0.000000
    24  H    0.004700  -0.000057   0.000135   0.000007   0.000000  -0.000000
    25  H   -0.035563  -0.002817   0.000410  -0.000022  -0.000000   0.000002
    26  H   -0.047409  -0.001046   0.004899  -0.000061   0.000000  -0.000000
    27  H    0.005060  -0.000174  -0.040317   0.403671  -0.000079   0.000001
              19         20         21         22         23         24
     1  O    0.000001   0.000000  -0.000000  -0.000000   0.000000   0.000000
     2  N   -0.000004  -0.000000   0.000000   0.000000  -0.000000   0.000000
     3  O    0.000000   0.000000   0.000000  -0.000000   0.000000   0.000000
     4  C   -0.001226  -0.000079   0.000001  -0.000000   0.000041   0.000000
     5  C    0.001233   0.000153   0.000001  -0.000003  -0.000000  -0.000000
     6  N   -0.000353  -0.000428  -0.000077  -0.000117  -0.000031   0.000006
     7  C   -0.036858  -0.042412   0.004599  -0.004849   0.000577  -0.000130
     8  H    0.004361  -0.002077  -0.000076   0.003559   0.000035  -0.000102
     9  C    0.390225   0.399487  -0.036359  -0.046956  -0.001958   0.004388
    10  C   -0.032070  -0.035302   0.402432   0.397753  -0.039019  -0.038437
    11  C   -0.002212   0.003931  -0.034895  -0.045404   0.399178   0.402340
    12  C    0.000689  -0.000415   0.004349  -0.001020  -0.037866  -0.038691
    13  C   -0.007548   0.004340  -0.000433   0.000045  -0.007524   0.004700
    14  H    0.000106  -0.000066   0.000010  -0.000055   0.000003  -0.000057
    15  N    0.007696   0.000126  -0.000041   0.000019   0.008590   0.000135
    16  C    0.003002  -0.000036   0.000004  -0.000002   0.000106   0.000007
    17  H    0.000016   0.000002  -0.000000   0.000000   0.000000   0.000000
    18  H   -0.000149   0.000806   0.000001   0.000001   0.000000  -0.000000
    19  H    0.504948  -0.024736  -0.002787   0.003959   0.001514  -0.000066
    20  H   -0.024736   0.541146  -0.002692  -0.002990  -0.000045  -0.000083
    21  H   -0.002787  -0.002692   0.524029  -0.027402  -0.002898  -0.002242
    22  H    0.003959  -0.002990  -0.027402   0.571323   0.004137  -0.003656
    23  H    0.001514  -0.000045  -0.002898   0.004137   0.498960  -0.025450
    24  H   -0.000066  -0.000083  -0.002242  -0.003656  -0.025450   0.538124
    25  H   -0.000029   0.000012  -0.000087  -0.000080  -0.002318  -0.002291
    26  H    0.000019  -0.000030  -0.000081   0.002380   0.004067  -0.003035
    27  H    0.000083   0.000000  -0.000000   0.000000  -0.000035  -0.000000
              25         26         27
     1  O    0.000000   0.000000   0.006131
     2  N   -0.000000  -0.000000  -0.000880
     3  O    0.000000   0.000000   0.000018
     4  C    0.000024   0.000006  -0.063408
     5  C    0.000000  -0.000002   0.002215
     6  N   -0.000090  -0.000060   0.000016
     7  C    0.005152  -0.003906  -0.000407
     8  H   -0.000025   0.001685   0.000009
     9  C   -0.000423   0.000969  -0.000058
    10  C    0.004190  -0.002231   0.000007
    11  C   -0.033400  -0.041481   0.000012
    12  C    0.398272   0.396729  -0.000036
    13  C   -0.035563  -0.047409   0.005060
    14  H   -0.002817  -0.001046  -0.000174
    15  N    0.000410   0.004899  -0.040317
    16  C   -0.000022  -0.000061   0.403671
    17  H   -0.000000   0.000000  -0.000079
    18  H    0.000002  -0.000000   0.000001
    19  H   -0.000029   0.000019   0.000083
    20  H    0.000012  -0.000030   0.000000
    21  H   -0.000087  -0.000081  -0.000000
    22  H   -0.000080   0.002380   0.000000
    23  H   -0.002318   0.004067  -0.000035
    24  H   -0.002291  -0.003035  -0.000000
    25  H    0.506114  -0.024079  -0.000013
    26  H   -0.024079   0.562317   0.000001
    27  H   -0.000013   0.000001   0.439302
 Mulliken charges:
               1
     1  O   -0.467230
     2  N    0.491296
     3  O   -0.504053
     4  C    0.000435
     5  C    0.188883
     6  N   -0.780291
     7  C    0.060233
     8  H    0.180079
     9  C   -0.301423
    10  C   -0.327940
    11  C   -0.321490
    12  C   -0.306656
    13  C   -0.037168
    14  H    0.189962
    15  N   -0.511203
    16  C    0.120026
    17  H    0.295323
    18  H    0.404872
    19  H    0.190185
    20  H    0.161388
    21  H    0.174645
    22  H    0.149359
    23  H    0.199936
    24  H    0.164540
    25  H    0.187061
    26  H    0.150348
    27  H    0.248881
 Sum of Mulliken charges =  -0.00000
 Mulliken charges with hydrogens summed into heavy atoms:
               1
     1  O   -0.467230
     2  N    0.491296
     3  O   -0.504053
     4  C    0.000435
     5  C    0.484206
     6  N   -0.375419
     7  C    0.240312
     9  C    0.050150
    10  C   -0.003936
    11  C    0.042986
    12  C    0.030753
    13  C    0.152794
    15  N   -0.511203
    16  C    0.368907
 Electronic spatial extent (au):  <R**2>=           3005.3804
 Charge=              0.0000 electrons
 Dipole moment (field-independent basis, Debye):
    X=              5.4159    Y=              4.7958    Z=              1.2796  Tot=              7.3464
 Quadrupole moment (field-independent basis, Debye-Ang):
   XX=           -106.1413   YY=            -79.2256   ZZ=            -81.5009
   XY=             -1.7659   XZ=             -0.1264   YZ=              1.8574
 Traceless Quadrupole moment (field-independent basis, Debye-Ang):
   XX=            -17.1854   YY=              9.7304   ZZ=              7.4550
   XY=             -1.7659   XZ=             -0.1264   YZ=              1.8574
 Octapole moment (field-independent basis, Debye-Ang**2):
  XXX=             92.4010  YYY=             36.2814  ZZZ=             -1.4971  XYY=             -4.5766
  XXY=              9.5388  XXZ=              4.8993  XZZ=             -9.7623  YZZ=             -0.3931
  YYZ=              7.9870  XYZ=              0.2487
 Hexadecapole moment (field-independent basis, Debye-Ang**3):
 XXXX=          -3382.1421 YYYY=           -601.0572 ZZZZ=           -303.7962 XXXY=            -20.9549
 XXXZ=            -13.2725 YYYX=             -8.9874 YYYZ=             25.0450 ZZZX=              1.9838
 ZZZY=              7.1194 XXYY=           -627.7865 XXZZ=           -523.7996 YYZZ=           -157.3219
 XXYZ=             -4.2605 YYXZ=              1.7348 ZZXY=              4.6881
 N-N= 9.312321943469D+02 E-N=-3.409180657518D+03  KE= 6.596287571970D+02
 Unable to Open any file for archive entry.
 1\1\GINC-LOTUS\FOpt\RMP2-FC\6-31G(d)\C9H13N3O2\ALEXEY\01-Jul-2023\0\\#
 MP2/6-31G* SCF=Tight Opt=(ModRedun, MaxCycle=20 ) NoSymm\\MolName:\\0,
 1\O,-3.5070696406,-1.3905407597,-0.3700892923\N,-3.121145784,-0.232405
 1882,-0.1179840527\O,-3.8953015271,0.7287139774,0.0561542052\C,-1.6866
 073407,-0.0239045346,-0.0096740909\C,-1.3014332553,1.2606450158,0.2750
 145696\N,-0.0572235006,1.7501891031,0.3860984146\C,1.2056366645,1.0240
 590593,0.3591222534\H,1.8534041898,1.5531294633,1.0744179044\C,1.90899
 46917,1.0349772612,-0.9967781072\C,3.3074043331,0.4284091484,-0.832720
 5733\C,3.259534879,-0.9676015623,-0.2059259827\C,2.4646487477,-0.97806
 56616,1.1016004587\C,1.0548869487,-0.4244836009,0.8651553453\H,0.47839
 63299,-0.4030595029,1.8036113919\N,0.408370229,-1.3179742159,-0.090932
 4831\C,-0.8389905094,-1.1382544152,-0.3862943024\H,-2.0962695685,1.987
 4645552,0.4186959494\H,0.0016866196,2.7353392967,0.6153781914\H,1.3146
 98868,0.4573608937,-1.7127975198\H,1.9749048895,2.0628490474,-1.374694
 5788\H,3.811284114,0.3901990542,-1.8052936262\H,3.9072092254,1.0948461
 784,-0.1966002245\H,2.7818234664,-1.6645150497,-0.9016351356\H,4.27873
 92377,-1.3310355291,-0.0288182365\H,2.379272569,-1.9999486443,1.485594
 6487\H,2.974631431,-0.3800818197,1.8695182242\H,-1.3004863078,-1.89330
 15702,-1.0221433508\\Version=ES64L-G16RevC.02\HF=-661.3003602\MP2=-663
 .3346494\RMSD=3.348e-09\RMSF=1.292e-05\Dipole=1.9792181,1.6918171,0.47
 07422\PG=C01 [X(C9H13N3O2)]\\@
 The archive entry for this job was punched.


 Make no judgements where you have no compassion.
                               -- Anne McCaffrey
 Job cpu time:       0 days  1 hours 19 minutes  8.1 seconds.
 Elapsed time:       0 days  0 hours 23 minutes 53.0 seconds.
 File lengths (MBytes):  RWF=     36 Int=      0 D2E=      0 Chk=      7 Scr=      1
 Normal termination of Gaussian 16 at Sat Jul  1 23:43:13 2023.
