 Entering Gaussian System, Link 0=g16
 Initial command:
 /home/alexey/programs//g16/l1.exe "/home/alexey/tmp/Gau-1409604.inp" -scrdir="/home/alexey/tmp/"
 Entering Link 1 = /home/alexey/programs//g16/l1.exe PID=   1409606.
  
 Copyright (c) 1988-2021, Gaussian, Inc.  All Rights Reserved.
  
 This is part of the Gaussian(R) 16 program.  It is based on
 the Gaussian(R) 09 system (copyright 2009, Gaussian, Inc.),
 the Gaussian(R) 03 system (copyright 2003, Gaussian, Inc.),
 the Gaussian(R) 98 system (copyright 1998, Gaussian, Inc.),
 the Gaussian(R) 94 system (copyright 1995, Gaussian, Inc.),
 the Gaussian 92(TM) system (copyright 1992, Gaussian, Inc.),
 the Gaussian 90(TM) system (copyright 1990, Gaussian, Inc.),
 the Gaussian 88(TM) system (copyright 1988, Gaussian, Inc.),
 the Gaussian 86(TM) system (copyright 1986, Carnegie Mellon
 University), and the Gaussian 82(TM) system (copyright 1983,
 Carnegie Mellon University). Gaussian is a federally registered
 trademark of Gaussian, Inc.
  
 This software contains proprietary and confidential information,
 including trade secrets, belonging to Gaussian, Inc.
  
 This software is provided under written license and may be
 used, copied, transmitted, or stored only in accord with that
 written license.
  
 The following legend is applicable only to US Government
 contracts under FAR:
  
                    RESTRICTED RIGHTS LEGEND
  
 Use, reproduction and disclosure by the US Government is
 subject to restrictions as set forth in subparagraphs (a)
 and (c) of the Commercial Computer Software - Restricted
 Rights clause in FAR 52.227-19.
  
 Gaussian, Inc.
 340 Quinnipiac St., Bldg. 40, Wallingford CT 06492
  
  
 ---------------------------------------------------------------
 Warning -- This program may not be used in any manner that
 competes with the business of Gaussian, Inc. or will provide
 assistance to any competitor of Gaussian, Inc.  The licensee
 of this program is prohibited from giving any competitor of
 Gaussian, Inc. access to this program.  By using this program,
 the user acknowledges that Gaussian, Inc. is engaged in the
 business of creating and licensing software in the field of
 computational chemistry and represents and warrants to the
 licensee that it is not a competitor of Gaussian, Inc. and that
 it will not use this program in any manner prohibited above.
 ---------------------------------------------------------------
  

 Cite this work as:
 Gaussian 16, Revision C.02,
 M. J. Frisch, G. W. Trucks, H. B. Schlegel, G. E. Scuseria, 
 M. A. Robb, J. R. Cheeseman, G. Scalmani, V. Barone, 
 G. A. Petersson, H. Nakatsuji, X. Li, M. Caricato, A. V. Marenich, 
 J. Bloino, B. G. Janesko, R. Gomperts, B. Mennucci, H. P. Hratchian, 
 J. V. Ortiz, A. F. Izmaylov, J. L. Sonnenberg, D. Williams-Young, 
 F. Ding, F. Lipparini, F. Egidi, J. Goings, B. Peng, A. Petrone, 
 T. Henderson, D. Ranasinghe, V. G. Zakrzewski, J. Gao, N. Rega, 
 G. Zheng, W. Liang, M. Hada, M. Ehara, K. Toyota, R. Fukuda, 
 J. Hasegawa, M. Ishida, T. Nakajima, Y. Honda, O. Kitao, H. Nakai, 
 T. Vreven, K. Throssell, J. A. Montgomery, Jr., J. E. Peralta, 
 F. Ogliaro, M. J. Bearpark, J. J. Heyd, E. N. Brothers, K. N. Kudin, 
 V. N. Staroverov, T. A. Keith, R. Kobayashi, J. Normand, 
 K. Raghavachari, A. P. Rendell, J. C. Burant, S. S. Iyengar, 
 J. Tomasi, M. Cossi, J. M. Millam, M. Klene, C. Adamo, R. Cammi, 
 J. W. Ochterski, R. L. Martin, K. Morokuma, O. Farkas, 
 J. B. Foresman, and D. J. Fox, Gaussian, Inc., Wallingford CT, 2019.
 
 ******************************************
 Gaussian 16:  ES64L-G16RevC.02  7-Dec-2021
                 1-Jul-2023 
 ******************************************
 %mem=8GB
 %NPROCS=4
 Will use up to    4 processors via shared memory.
 %NoSave
 ---------------------------------------------------------
 #MP2/6-31G* SCF=Tight Opt=(ModRedun, MaxCycle=20 ) NoSymm
 ---------------------------------------------------------
 1/6=20,18=120,19=15,38=1/1,3;
 2/9=110,12=2,15=1,17=6,18=5,40=1/2;
 3/5=1,6=6,7=1,11=9,25=1,30=1,71=1/1,2,3;
 4//1;
 5/5=2,32=2,38=5/2;
 8/6=4,10=2/1;
 9/15=2,16=-3/6;
 10/5=1,31=1/2;
 6/7=2,8=2,9=2,10=2/1;
 7/12=2,30=1/1,2,3,16;
 1/6=20,18=20,19=15/3(2);
 2/9=110,15=1/2;
 99//99;
 2/9=110,15=1/2;
 3/5=1,6=6,7=1,11=9,25=1,30=1,71=1/1,2,3;
 4/5=5,16=3,69=1/1;
 5/5=2,32=2,38=5/2;
 8/6=4,10=2/1;
 9/15=2,16=-3/6;
 10/5=1,31=1/2;
 7/12=2,30=1/1,2,3,16;
 1/6=20,18=20,19=15/3(-8);
 2/9=110,15=1/2;
 6/7=2,8=2,9=2,10=2/1;
 99/9=10/99;
 --------
 MolName:
 --------
 Symbolic Z-matrix:
 Charge =  0 Multiplicity = 1
 8                    0    -3.63589  -1.40132  -0.35864 
 7                    0    -3.26484  -0.26077  -0.08697 
 8                    0    -4.03674   0.67493   0.12668 
 6                    0    -1.76082  -0.00704   0.00835 
 6                    0    -1.37043   1.29412   0.34711 
 7                    0    -0.08389   1.76778   0.36852 
 6                    0     1.1975    0.99828   0.3474 
 1                    0     1.86007   1.50671   1.09525 
 6                    0     1.96211   1.03634  -0.99913 
 6                    0     3.37487   0.45392  -0.80356 
 6                    0     3.31468  -0.95582  -0.19447 
 6                    0     2.46625  -0.97732   1.09544 
 6                    0     1.02846  -0.44509   0.8456 
 1                    0     0.48289  -0.47511   1.81784 
 7                    0     0.37233  -1.32353  -0.12581 
 6                    0    -0.86977  -1.1188   -0.42199 
 1                    0    -2.14066   1.99006   0.71876 
 1                    0     0.13153   2.73974   0.13339 
 1                    0     1.4136    0.4509   -1.76747 
 1                    0     2.04732   2.08269  -1.36187 
 1                    0     3.90971   0.4205   -1.77793 
 1                    0     3.951     1.11569  -0.11887 
 1                    0     2.86801  -1.65329  -0.93868 
 1                    0     4.34304  -1.31632   0.02623 
 1                    0     2.40911  -2.01994   1.47804 
 1                    0     2.96045  -0.35806   1.87318 
 1                    0    -1.36691  -1.85724  -1.0694 
 
 The following ModRedundant input section has been read:
 D       2       4       5      17 F                                           
 D       1       2       4      16 F                                           
 D       7      13      15      16 F                                           
 D       7       9      10      11 F                                           
 D       9      10      11      12 F                                           
 D       6       7      13      15 F                                           
 

 GradGradGradGradGradGradGradGradGradGradGradGradGradGradGradGradGradGrad
 Berny optimization.
 Initialization pass.
                           ----------------------------
                           !    Initial Parameters    !
                           ! (Angstroms and Degrees)  !
 --------------------------                            --------------------------
 ! Name  Definition              Value          Derivative Info.                !
 --------------------------------------------------------------------------------
 ! R1    R(1,2)                  1.2298         estimate D2E/DX2                !
 ! R2    R(2,3)                  1.2317         estimate D2E/DX2                !
 ! R3    R(2,4)                  1.5282         estimate D2E/DX2                !
 ! R4    R(4,5)                  1.4001         estimate D2E/DX2                !
 ! R5    R(4,16)                 1.4883         estimate D2E/DX2                !
 ! R6    R(5,6)                  1.3711         estimate D2E/DX2                !
 ! R7    R(5,17)                 1.1026         estimate D2E/DX2                !
 ! R8    R(6,7)                  1.4948         estimate D2E/DX2                !
 ! R9    R(6,18)                 1.0229         estimate D2E/DX2                !
 ! R10   R(7,8)                  1.1211         estimate D2E/DX2                !
 ! R11   R(7,9)                  1.5489         estimate D2E/DX2                !
 ! R12   R(7,13)                 1.5363         estimate D2E/DX2                !
 ! R13   R(9,10)                 1.5406         estimate D2E/DX2                !
 ! R14   R(9,19)                 1.1108         estimate D2E/DX2                !
 ! R15   R(9,20)                 1.1107         estimate D2E/DX2                !
 ! R16   R(10,11)                1.5369         estimate D2E/DX2                !
 ! R17   R(10,21)                1.112          estimate D2E/DX2                !
 ! R18   R(10,22)                1.113          estimate D2E/DX2                !
 ! R19   R(11,12)                1.5441         estimate D2E/DX2                !
 ! R20   R(11,23)                1.1135         estimate D2E/DX2                !
 ! R21   R(11,24)                1.1118         estimate D2E/DX2                !
 ! R22   R(12,13)                1.5534         estimate D2E/DX2                !
 ! R23   R(12,25)                1.1121         estimate D2E/DX2                !
 ! R24   R(12,26)                1.1102         estimate D2E/DX2                !
 ! R25   R(13,14)                1.1153         estimate D2E/DX2                !
 ! R26   R(13,15)                1.4649         estimate D2E/DX2                !
 ! R27   R(15,16)                1.2932         estimate D2E/DX2                !
 ! R28   R(16,27)                1.1007         estimate D2E/DX2                !
 ! A1    A(1,2,3)              123.6288         estimate D2E/DX2                !
 ! A2    A(1,2,4)              117.6908         estimate D2E/DX2                !
 ! A3    A(3,2,4)              118.674          estimate D2E/DX2                !
 ! A4    A(2,4,5)              116.347          estimate D2E/DX2                !
 ! A5    A(2,4,16)             116.5604         estimate D2E/DX2                !
 ! A6    A(5,4,16)             126.672          estimate D2E/DX2                !
 ! A7    A(4,5,6)              125.9063         estimate D2E/DX2                !
 ! A8    A(4,5,17)             118.2532         estimate D2E/DX2                !
 ! A9    A(6,5,17)             115.6046         estimate D2E/DX2                !
 ! A10   A(5,6,7)              128.7759         estimate D2E/DX2                !
 ! A11   A(5,6,18)             121.483          estimate D2E/DX2                !
 ! A12   A(7,6,18)             107.7793         estimate D2E/DX2                !
 ! A13   A(6,7,8)              105.2922         estimate D2E/DX2                !
 ! A14   A(6,7,9)              115.0103         estimate D2E/DX2                !
 ! A15   A(6,7,13)             112.6278         estimate D2E/DX2                !
 ! A16   A(8,7,9)              106.0828         estimate D2E/DX2                !
 ! A17   A(8,7,13)             105.9502         estimate D2E/DX2                !
 ! A18   A(9,7,13)             111.0583         estimate D2E/DX2                !
 ! A19   A(7,9,10)             109.453          estimate D2E/DX2                !
 ! A20   A(7,9,19)             110.1571         estimate D2E/DX2                !
 ! A21   A(7,9,20)             110.1771         estimate D2E/DX2                !
 ! A22   A(10,9,19)            109.9609         estimate D2E/DX2                !
 ! A23   A(10,9,20)            109.1022         estimate D2E/DX2                !
 ! A24   A(19,9,20)            107.9675         estimate D2E/DX2                !
 ! A25   A(9,10,11)            111.1726         estimate D2E/DX2                !
 ! A26   A(9,10,21)            109.9496         estimate D2E/DX2                !
 ! A27   A(9,10,22)            109.1484         estimate D2E/DX2                !
 ! A28   A(11,10,21)           109.7874         estimate D2E/DX2                !
 ! A29   A(11,10,22)           108.7766         estimate D2E/DX2                !
 ! A30   A(21,10,22)           107.9356         estimate D2E/DX2                !
 ! A31   A(10,11,12)           111.4306         estimate D2E/DX2                !
 ! A32   A(10,11,23)           108.9897         estimate D2E/DX2                !
 ! A33   A(10,11,24)           109.8684         estimate D2E/DX2                !
 ! A34   A(12,11,23)           109.2206         estimate D2E/DX2                !
 ! A35   A(12,11,24)           109.7476         estimate D2E/DX2                !
 ! A36   A(23,11,24)           107.4937         estimate D2E/DX2                !
 ! A37   A(11,12,13)           111.6823         estimate D2E/DX2                !
 ! A38   A(11,12,25)           109.1898         estimate D2E/DX2                !
 ! A39   A(11,12,26)           109.4423         estimate D2E/DX2                !
 ! A40   A(13,12,25)           109.2087         estimate D2E/DX2                !
 ! A41   A(13,12,26)           109.486          estimate D2E/DX2                !
 ! A42   A(25,12,26)           107.7465         estimate D2E/DX2                !
 ! A43   A(7,13,12)            105.7968         estimate D2E/DX2                !
 ! A44   A(7,13,14)            111.2123         estimate D2E/DX2                !
 ! A45   A(7,13,15)            113.4313         estimate D2E/DX2                !
 ! A46   A(12,13,14)           107.6593         estimate D2E/DX2                !
 ! A47   A(12,13,15)           108.4079         estimate D2E/DX2                !
 ! A48   A(14,13,15)           110.0505         estimate D2E/DX2                !
 ! A49   A(13,15,16)           119.1532         estimate D2E/DX2                !
 ! A50   A(4,16,15)            128.8326         estimate D2E/DX2                !
 ! A51   A(4,16,27)            113.6277         estimate D2E/DX2                !
 ! A52   A(15,16,27)           117.5352         estimate D2E/DX2                !
 ! D1    D(1,2,4,5)           -178.6811         estimate D2E/DX2                !
 ! D2    D(1,2,4,16)             8.2581         Frozen                          !
 ! D3    D(3,2,4,5)              0.4311         estimate D2E/DX2                !
 ! D4    D(3,2,4,16)          -172.6298         estimate D2E/DX2                !
 ! D5    D(2,4,5,6)           -173.7206         estimate D2E/DX2                !
 ! D6    D(2,4,5,17)            12.1244         Frozen                          !
 ! D7    D(16,4,5,6)            -1.4638         estimate D2E/DX2                !
 ! D8    D(16,4,5,17)         -175.6187         estimate D2E/DX2                !
 ! D9    D(2,4,16,15)         -159.55           estimate D2E/DX2                !
 ! D10   D(2,4,16,27)           19.6474         estimate D2E/DX2                !
 ! D11   D(5,4,16,15)           28.2077         estimate D2E/DX2                !
 ! D12   D(5,4,16,27)         -152.5949         estimate D2E/DX2                !
 ! D13   D(4,5,6,7)            -14.948          estimate D2E/DX2                !
 ! D14   D(4,5,6,18)           147.086          estimate D2E/DX2                !
 ! D15   D(17,5,6,7)           159.3431         estimate D2E/DX2                !
 ! D16   D(17,5,6,18)          -38.6229         estimate D2E/DX2                !
 ! D17   D(5,6,7,8)           -137.7305         estimate D2E/DX2                !
 ! D18   D(5,6,7,9)            105.8801         estimate D2E/DX2                !
 ! D19   D(5,6,7,13)           -22.7306         estimate D2E/DX2                !
 ! D20   D(18,6,7,8)            58.3053         estimate D2E/DX2                !
 ! D21   D(18,6,7,9)           -58.0841         estimate D2E/DX2                !
 ! D22   D(18,6,7,13)          173.3053         estimate D2E/DX2                !
 ! D23   D(6,7,9,10)           168.7612         estimate D2E/DX2                !
 ! D24   D(6,7,9,19)           -70.2201         estimate D2E/DX2                !
 ! D25   D(6,7,9,20)            48.7911         estimate D2E/DX2                !
 ! D26   D(8,7,9,10)            52.8238         estimate D2E/DX2                !
 ! D27   D(8,7,9,19)           173.8425         estimate D2E/DX2                !
 ! D28   D(8,7,9,20)           -67.1463         estimate D2E/DX2                !
 ! D29   D(13,7,9,10)          -61.8512         estimate D2E/DX2                !
 ! D30   D(13,7,9,19)           59.1675         estimate D2E/DX2                !
 ! D31   D(13,7,9,20)          178.1787         estimate D2E/DX2                !
 ! D32   D(6,7,13,12)         -166.2745         estimate D2E/DX2                !
 ! D33   D(6,7,13,14)          -49.6604         estimate D2E/DX2                !
 ! D34   D(6,7,13,15)           75.0219         Frozen                          !
 ! D35   D(8,7,13,12)          -51.6727         estimate D2E/DX2                !
 ! D36   D(8,7,13,14)           64.9414         estimate D2E/DX2                !
 ! D37   D(8,7,13,15)         -170.3763         estimate D2E/DX2                !
 ! D38   D(9,7,13,12)           63.0849         estimate D2E/DX2                !
 ! D39   D(9,7,13,14)          179.699          estimate D2E/DX2                !
 ! D40   D(9,7,13,15)          -55.6187         estimate D2E/DX2                !
 ! D41   D(7,9,10,11)           54.8122         Frozen                          !
 ! D42   D(7,9,10,21)          176.6018         estimate D2E/DX2                !
 ! D43   D(7,9,10,22)          -65.1802         estimate D2E/DX2                !
 ! D44   D(19,9,10,11)         -66.3254         estimate D2E/DX2                !
 ! D45   D(19,9,10,21)          55.4643         estimate D2E/DX2                !
 ! D46   D(19,9,10,22)         173.6823         estimate D2E/DX2                !
 ! D47   D(20,9,10,11)         175.4388         estimate D2E/DX2                !
 ! D48   D(20,9,10,21)         -62.7716         estimate D2E/DX2                !
 ! D49   D(20,9,10,22)          55.4464         estimate D2E/DX2                !
 ! D50   D(9,10,11,12)         -52.8222         Frozen                          !
 ! D51   D(9,10,11,23)          67.7808         estimate D2E/DX2                !
 ! D52   D(9,10,11,24)        -174.6783         estimate D2E/DX2                !
 ! D53   D(21,10,11,12)       -174.7061         estimate D2E/DX2                !
 ! D54   D(21,10,11,23)        -54.1031         estimate D2E/DX2                !
 ! D55   D(21,10,11,24)         63.4377         estimate D2E/DX2                !
 ! D56   D(22,10,11,12)         67.3906         estimate D2E/DX2                !
 ! D57   D(22,10,11,23)       -172.0064         estimate D2E/DX2                !
 ! D58   D(22,10,11,24)        -54.4656         estimate D2E/DX2                !
 ! D59   D(10,11,12,13)         56.5519         estimate D2E/DX2                !
 ! D60   D(10,11,12,25)        177.4336         estimate D2E/DX2                !
 ! D61   D(10,11,12,26)        -64.8492         estimate D2E/DX2                !
 ! D62   D(23,11,12,13)        -63.9155         estimate D2E/DX2                !
 ! D63   D(23,11,12,25)         56.9662         estimate D2E/DX2                !
 ! D64   D(23,11,12,26)        174.6834         estimate D2E/DX2                !
 ! D65   D(24,11,12,13)        178.478          estimate D2E/DX2                !
 ! D66   D(24,11,12,25)        -60.6403         estimate D2E/DX2                !
 ! D67   D(24,11,12,26)         57.0769         estimate D2E/DX2                !
 ! D68   D(11,12,13,7)         -60.1511         estimate D2E/DX2                !
 ! D69   D(11,12,13,14)       -179.1431         estimate D2E/DX2                !
 ! D70   D(11,12,13,15)         61.834          estimate D2E/DX2                !
 ! D71   D(25,12,13,7)         178.9782         estimate D2E/DX2                !
 ! D72   D(25,12,13,14)         59.9861         estimate D2E/DX2                !
 ! D73   D(25,12,13,15)        -59.0368         estimate D2E/DX2                !
 ! D74   D(26,12,13,7)          61.2247         estimate D2E/DX2                !
 ! D75   D(26,12,13,14)        -57.7673         estimate D2E/DX2                !
 ! D76   D(26,12,13,15)       -176.7902         estimate D2E/DX2                !
 ! D77   D(7,13,15,16)         -67.1597         Frozen                          !
 ! D78   D(12,13,15,16)        175.6513         estimate D2E/DX2                !
 ! D79   D(14,13,15,16)         58.1475         estimate D2E/DX2                !
 ! D80   D(13,15,16,4)           5.6545         estimate D2E/DX2                !
 ! D81   D(13,15,16,27)       -173.5163         estimate D2E/DX2                !
 --------------------------------------------------------------------------------
 Trust Radius=3.00D-01 FncErr=1.00D-07 GrdErr=1.00D-07 EigMax=2.50D+02 EigMin=1.00D-04
 Number of steps in this run=     20 maximum allowed number of steps=    162.
 GradGradGradGradGradGradGradGradGradGradGradGradGradGradGradGradGradGrad

                          Input orientation:                          
 ---------------------------------------------------------------------
 Center     Atomic      Atomic             Coordinates (Angstroms)
 Number     Number       Type             X           Y           Z
 ---------------------------------------------------------------------
      1          8           0       -3.635890   -1.401320   -0.358640
      2          7           0       -3.264840   -0.260770   -0.086970
      3          8           0       -4.036740    0.674930    0.126680
      4          6           0       -1.760820   -0.007040    0.008350
      5          6           0       -1.370430    1.294120    0.347110
      6          7           0       -0.083890    1.767780    0.368520
      7          6           0        1.197500    0.998280    0.347400
      8          1           0        1.860070    1.506710    1.095250
      9          6           0        1.962110    1.036340   -0.999130
     10          6           0        3.374870    0.453920   -0.803560
     11          6           0        3.314680   -0.955820   -0.194470
     12          6           0        2.466250   -0.977320    1.095440
     13          6           0        1.028460   -0.445090    0.845600
     14          1           0        0.482890   -0.475110    1.817840
     15          7           0        0.372330   -1.323530   -0.125810
     16          6           0       -0.869770   -1.118800   -0.421990
     17          1           0       -2.140660    1.990060    0.718760
     18          1           0        0.131530    2.739740    0.133390
     19          1           0        1.413600    0.450900   -1.767470
     20          1           0        2.047320    2.082690   -1.361870
     21          1           0        3.909710    0.420500   -1.777930
     22          1           0        3.951000    1.115690   -0.118870
     23          1           0        2.868010   -1.653290   -0.938680
     24          1           0        4.343040   -1.316320    0.026230
     25          1           0        2.409110   -2.019940    1.478040
     26          1           0        2.960450   -0.358060    1.873180
     27          1           0       -1.366910   -1.857240   -1.069400
 ---------------------------------------------------------------------
                    Distance matrix (angstroms):
                    1          2          3          4          5
     1  O    0.000000
     2  N    1.229771   0.000000
     3  O    2.169569   1.231670   0.000000
     4  C    2.365288   1.528248   2.378844   0.000000
     5  C    3.591071   2.488955   2.746124   1.400064   0.000000
     6  N    4.815461   3.800122   4.108264   2.468158   1.371130
     7  C    5.442263   4.656862   5.248861   3.142814   2.584915
     8  H    6.385610   5.548543   6.033436   4.072301   3.322806
     9  C    6.139220   5.462192   6.114267   3.995481   3.603420
    10  C    7.265716   6.716400   7.473028   5.219865   4.954579
    11  C    6.966767   6.617003   7.536966   5.167400   5.225495
    12  C    6.287308   5.895501   6.779182   4.471166   4.521012
    13  C    4.911286   4.397282   5.237131   2.944989   3.004666
    14  H    4.749661   4.209480   4.960813   2.920202   2.954322
    15  N    4.015730   3.789455   4.847421   2.510274   3.180088
    16  C    2.781232   2.566089   3.680789   1.488346   2.581542
    17  H    3.859788   2.641821   2.382277   2.153455   1.102593
    18  H    5.619958   4.537284   4.651662   3.337877   2.095561
    19  H    5.559934   5.021788   5.774444   3.666086   3.596289
    20  H    6.741192   5.944428   6.419763   4.554822   3.901727
    21  H    7.891102   7.402543   8.175472   5.960579   5.758375
    22  H    7.997108   7.346020   8.003659   5.822508   5.344772
    23  H    6.534573   6.346367   7.364182   5.003306   5.320231
    24  H    7.988659   7.681591   8.613703   6.242727   6.289762
    25  H    6.348079   6.143097   7.116002   4.857990   5.152370
    26  H    7.041386   6.527319   7.285465   5.088339   4.880073
    27  H    2.421015   2.667588   3.869171   2.177143   3.455081
                    6          7          8          9         10
     6  N    0.000000
     7  C    1.494837   0.000000
     8  H    2.091716   1.121062   0.000000
     9  C    2.567409   1.548942   2.148974   0.000000
    10  C    3.881111   2.522296   2.647351   1.540569   0.000000
    11  C    4.391496   2.931652   3.137407   2.538824   1.536874
    12  C    3.816700   2.464201   2.556924   2.948933   2.545631
    13  C    2.522245   1.536260   2.136217   2.543495   3.005593
    14  H    2.729894   2.200850   2.519201   3.522484   4.012279
    15  N    3.163652   2.509110   3.422662   2.976420   3.554423
    16  C    3.094327   3.057384   4.080116   3.605172   4.542688
    17  H    2.098185   3.502121   4.047371   4.549005   5.924378
    18  H    1.022936   2.052992   2.330963   2.745031   4.077021
    19  H    2.922174   2.195222   3.083705   1.110833   2.185340
    20  H    2.763236   2.195391   2.530663   1.110716   2.174164
    21  H    4.729826   3.493843   3.692701   2.186077   1.112011
    22  H    4.116201   2.795166   2.449280   2.176428   1.112954
    23  H    4.703850   3.387540   3.890812   2.838735   2.171520
    24  H    5.406158   3.918539   3.908637   3.500743   2.181663
    25  H    4.668287   3.443254   3.589601   3.959423   3.501196
    26  H    4.006395   2.697342   2.300734   3.345325   2.827719
    27  H    4.105426   4.091151   5.139579   4.411362   5.281724
                   11         12         13         14         15
    11  C    0.000000
    12  C    1.544074   0.000000
    13  C    2.563083   1.553361   0.000000
    14  H    3.507065   2.169745   1.115257   0.000000
    15  N    2.966032   2.448635   1.464855   2.123633   0.000000
    16  C    4.193799   3.667648   2.379905   2.694599   1.293232
    17  H    6.266812   5.492800   3.998670   3.764048   4.243618
    18  H    4.888466   4.493661   3.384504   3.646380   4.078643
    19  H    2.840298   3.368106   2.789134   3.818136   2.632089
    20  H    3.493074   3.946839   3.507231   4.370393   3.991963
    21  H    2.180748   3.506242   3.991711   5.047254   4.276003
    22  H    2.168357   2.838965   3.450721   4.278934   4.330903
    23  H    1.113475   2.180823   2.833257   3.830836   2.645358
    24  H    1.111842   2.186429   3.523755   4.338002   3.973626
    25  H    2.179380   1.112072   2.187768   2.492446   2.684361
    26  H    2.181278   1.110223   2.189995   2.480941   3.409759
    27  H    4.847200   4.489310   3.376269   3.697053   2.049430
                   16         17         18         19         20
    16  C    0.000000
    17  H    3.547039   0.000000
    18  H    4.024845   2.463235   0.000000
    19  H    3.080268   4.602512   3.239716   0.000000
    20  H    4.431966   4.677262   2.517493   1.796900   0.000000
    21  H    5.201101   6.730821   4.827697   2.496317   2.530707
    22  H    5.322091   6.210835   4.158067   3.098100   2.470655
    23  H    3.810990   6.411543   5.285487   2.688832   3.848398
    24  H    5.235772   7.310958   5.848070   3.862906   4.330176
    25  H    3.895282   6.112038   5.445182   4.198741   5.002755
    26  H    4.529582   5.733034   4.541588   4.037511   4.154108
    27  H    1.100719   4.312531   4.982394   3.680496   5.221643
                   21         22         23         24         25
    21  H    0.000000
    22  H    1.799298   0.000000
    23  H    2.467810   3.084186   0.000000
    24  H    2.541518   2.467675   1.794523   0.000000
    25  H    4.336922   3.841838   2.487078   2.518515   0.000000
    26  H    3.851994   2.668594   3.097212   2.498208   1.794981
    27  H    5.790754   6.166197   4.241843   5.839223   4.557878
                   26         27
    26  H    0.000000
    27  H    5.443562   0.000000
 Symmetry turned off by external request.
 Stoichiometry    C9H13N3O2
 Framework group  C1[X(C9H13N3O2)]
 Deg. of freedom    75
 Full point group                 C1      NOp   1
 Rotational constants (GHZ):           1.6785787           0.3982698           0.3552684
 Standard basis: 6-31G(d) (6D, 7F)
   236 basis functions,   444 primitive gaussians,   236 cartesian basis functions
    52 alpha electrons       52 beta electrons
       nuclear repulsion energy       917.2972264565 Hartrees.
 NAtoms=   27 NActive=   27 NUniq=   27 SFac= 1.00D+00 NAtFMM=   60 NAOKFM=F Big=F
 Integral buffers will be    131072 words long.
 Raffenetti 1 integral format.
 Two-electron integral symmetry is turned off.
 One-electron integrals computed using PRISM.
 NBasis=   236 RedAO= T EigKep=  1.28D-03  NBF=   236
 NBsUse=   236 1.00D-06 EigRej= -1.00D+00 NBFU=   236
 ExpMin= 1.61D-01 ExpMax= 5.48D+03 ExpMxC= 8.25D+02 IAcc=3 IRadAn=         5 AccDes= 0.00D+00
 Harris functional with IExCor=  205 and IRadAn=       5 diagonalized for initial guess.
 HarFok:  IExCor=  205 AccDes= 0.00D+00 IRadAn=         5 IDoV= 1 UseB2=F ITyADJ=14
 ICtDFT=  3500011 ScaDFX=  1.000000  1.000000  1.000000  1.000000
 FoFCou: FMM=F IPFlag=           0 FMFlag=      100000 FMFlg1=           0
         NFxFlg=           0 DoJE=T BraDBF=F KetDBF=T FulRan=T
         wScrn=  0.000000 ICntrl=       500 IOpCl=  0 I1Cent=   200000004 NGrid=           0
         NMat0=    1 NMatS0=      1 NMatT0=    0 NMatD0=    1 NMtDS0=    0 NMtDT0=    0
 Symmetry not used in FoFCou.
 Keep R1 ints in memory in canonical form, NReq=397720213.
 Requested convergence on RMS density matrix=1.00D-08 within 128 cycles.
 Requested convergence on MAX density matrix=1.00D-06.
 Requested convergence on             energy=1.00D-06.
 No special actions if energy rises.
 SCF Done:  E(RHF) =  -661.276529100     A.U. after   16 cycles
            NFock= 16  Conv=0.74D-08     -V/T= 2.0037
 ExpMin= 1.61D-01 ExpMax= 5.48D+03 ExpMxC= 8.25D+02 IAcc=3 IRadAn=         5 AccDes= 0.00D+00
 HarFok:  IExCor=  205 AccDes= 0.00D+00 IRadAn=         5 IDoV=-2 UseB2=F ITyADJ=14
 ICtDFT= 12500011 ScaDFX=  1.000000  1.000000  1.000000  1.000000
 Range of M.O.s used for correlation:    15   236
 NBasis=   236 NAE=    52 NBE=    52 NFC=    14 NFV=     0
 NROrb=    222 NOA=    38 NOB=    38 NVA=   184 NVB=   184
 Fully direct method using O(ONN) memory.
 JobTyp=1 Pass  1:  I=  15 to  52 NPSUse=  4 ParTrn=T ParDer=T DoDerP=T.
 Spin components of T(2) and E(2):
     alpha-alpha T2 =       0.9202462761D-01 E2=     -0.2718178091D+00
     alpha-beta  T2 =       0.5001177779D+00 E2=     -0.1494116747D+01
     beta-beta   T2 =       0.9202462761D-01 E2=     -0.2718178091D+00
 ANorm=    0.1297754612D+01
 E2 =    -0.2037752365D+01 EUMP2 =    -0.66331428146502D+03
          IDoAtm=111111111111111111111111111
          Differentiating once with respect to electric field.
                with respect to dipole field.
          Differentiating once with respect to nuclear coordinates.
 Keep R1 ints in memory in canonical form, NReq=397723379.
          There are     1 degrees of freedom in the 1st order CPHF.  IDoFFX=0 NUNeed=     1.
 LinEq1:  Iter=  0 NonCon=     1 RMS=4.62D-03 Max=1.14D-01 NDo=     1
 AX will form     1 AO Fock derivatives at one time.
 LinEq1:  Iter=  1 NonCon=     1 RMS=1.57D-03 Max=3.48D-02 NDo=     1
 LinEq1:  Iter=  2 NonCon=     1 RMS=6.44D-04 Max=1.85D-02 NDo=     1
 LinEq1:  Iter=  3 NonCon=     1 RMS=2.97D-04 Max=9.18D-03 NDo=     1
 LinEq1:  Iter=  4 NonCon=     1 RMS=9.16D-05 Max=2.25D-03 NDo=     1
 LinEq1:  Iter=  5 NonCon=     1 RMS=3.84D-05 Max=1.95D-03 NDo=     1
 LinEq1:  Iter=  6 NonCon=     1 RMS=1.58D-05 Max=6.04D-04 NDo=     1
 LinEq1:  Iter=  7 NonCon=     1 RMS=6.17D-06 Max=1.09D-04 NDo=     1
 LinEq1:  Iter=  8 NonCon=     1 RMS=2.47D-06 Max=5.88D-05 NDo=     1
 LinEq1:  Iter=  9 NonCon=     1 RMS=9.43D-07 Max=2.61D-05 NDo=     1
 LinEq1:  Iter= 10 NonCon=     1 RMS=4.52D-07 Max=1.39D-05 NDo=     1
 LinEq1:  Iter= 11 NonCon=     1 RMS=1.60D-07 Max=5.77D-06 NDo=     1
 LinEq1:  Iter= 12 NonCon=     1 RMS=5.66D-08 Max=8.55D-07 NDo=     1
 LinEq1:  Iter= 13 NonCon=     1 RMS=1.84D-08 Max=4.61D-07 NDo=     1
 LinEq1:  Iter= 14 NonCon=     1 RMS=6.16D-09 Max=1.89D-07 NDo=     1
 LinEq1:  Iter= 15 NonCon=     1 RMS=2.32D-09 Max=5.50D-08 NDo=     1
 LinEq1:  Iter= 16 NonCon=     1 RMS=8.42D-10 Max=1.24D-08 NDo=     1
 LinEq1:  Iter= 17 NonCon=     1 RMS=2.80D-10 Max=4.70D-09 NDo=     1
 LinEq1:  Iter= 18 NonCon=     1 RMS=9.38D-11 Max=1.25D-09 NDo=     1
 LinEq1:  Iter= 19 NonCon=     0 RMS=3.02D-11 Max=3.97D-10 NDo=     1
 Linear equations converged to 1.000D-10 1.000D-09 after    19 iterations.
 End of Minotr F.D. properties file   721 does not exist.
 End of Minotr F.D. properties file   722 does not exist.
 End of Minotr F.D. properties file   788 does not exist.

 **********************************************************************

            Population analysis using the SCF Density.

 **********************************************************************

 Alpha  occ. eigenvalues --  -20.59930 -20.59497 -15.85410 -15.62900 -15.56985
 Alpha  occ. eigenvalues --  -11.35853 -11.30498 -11.30287 -11.29994 -11.27719
 Alpha  occ. eigenvalues --  -11.24569 -11.23841 -11.23411 -11.22847  -1.58592
 Alpha  occ. eigenvalues --   -1.38084  -1.28436  -1.22741  -1.13261  -1.08387
 Alpha  occ. eigenvalues --   -1.01798  -1.00625  -0.93554  -0.88966  -0.84899
 Alpha  occ. eigenvalues --   -0.81521  -0.78080  -0.76909  -0.74313  -0.70915
 Alpha  occ. eigenvalues --   -0.70404  -0.69931  -0.67475  -0.64317  -0.63300
 Alpha  occ. eigenvalues --   -0.61471  -0.60680  -0.57545  -0.56348  -0.54886
 Alpha  occ. eigenvalues --   -0.53318  -0.50720  -0.49129  -0.48531  -0.47767
 Alpha  occ. eigenvalues --   -0.47615  -0.46142  -0.45637  -0.44095  -0.42154
 Alpha  occ. eigenvalues --   -0.40113  -0.33792
 Alpha virt. eigenvalues --    0.06780   0.11667   0.18469   0.21661   0.23733
 Alpha virt. eigenvalues --    0.24393   0.25830   0.27523   0.28529   0.28882
 Alpha virt. eigenvalues --    0.29857   0.31199   0.31823   0.32252   0.33299
 Alpha virt. eigenvalues --    0.33750   0.34152   0.35589   0.37631   0.38539
 Alpha virt. eigenvalues --    0.40689   0.41951   0.44648   0.45362   0.45723
 Alpha virt. eigenvalues --    0.45834   0.49636   0.53135   0.57646   0.58840
 Alpha virt. eigenvalues --    0.63436   0.69187   0.69386   0.72170   0.73959
 Alpha virt. eigenvalues --    0.75021   0.75690   0.75873   0.77603   0.79560
 Alpha virt. eigenvalues --    0.80309   0.83493   0.85094   0.85336   0.87944
 Alpha virt. eigenvalues --    0.89146   0.90216   0.91002   0.91805   0.93853
 Alpha virt. eigenvalues --    0.95862   0.97059   0.98823   1.00252   1.01880
 Alpha virt. eigenvalues --    1.02731   1.05090   1.06435   1.06974   1.08278
 Alpha virt. eigenvalues --    1.09405   1.10521   1.11310   1.11606   1.13245
 Alpha virt. eigenvalues --    1.13836   1.14377   1.15340   1.16368   1.17345
 Alpha virt. eigenvalues --    1.18040   1.19885   1.20981   1.22033   1.22319
 Alpha virt. eigenvalues --    1.24228   1.25130   1.25784   1.26937   1.27248
 Alpha virt. eigenvalues --    1.29407   1.30770   1.33110   1.35686   1.38827
 Alpha virt. eigenvalues --    1.41529   1.44791   1.47159   1.49709   1.52622
 Alpha virt. eigenvalues --    1.52970   1.55964   1.61057   1.62312   1.67408
 Alpha virt. eigenvalues --    1.68866   1.69812   1.71783   1.73410   1.76798
 Alpha virt. eigenvalues --    1.79071   1.81000   1.84107   1.88328   1.93003
 Alpha virt. eigenvalues --    1.94341   1.96940   1.97099   1.99159   2.00472
 Alpha virt. eigenvalues --    2.02848   2.04098   2.05899   2.08693   2.11786
 Alpha virt. eigenvalues --    2.12608   2.14007   2.17794   2.18600   2.19199
 Alpha virt. eigenvalues --    2.21133   2.21909   2.23883   2.24535   2.26666
 Alpha virt. eigenvalues --    2.28897   2.32322   2.33693   2.35360   2.35786
 Alpha virt. eigenvalues --    2.38329   2.40118   2.41886   2.43226   2.45913
 Alpha virt. eigenvalues --    2.48231   2.50207   2.52207   2.56234   2.57650
 Alpha virt. eigenvalues --    2.61202   2.62564   2.66221   2.67994   2.68730
 Alpha virt. eigenvalues --    2.69875   2.70347   2.74919   2.76629   2.80980
 Alpha virt. eigenvalues --    2.84599   2.86523   2.90190   2.91620   2.95332
 Alpha virt. eigenvalues --    2.97864   2.98852   3.02511   3.03239   3.05980
 Alpha virt. eigenvalues --    3.06628   3.12260   3.19517   3.22782   3.26930
 Alpha virt. eigenvalues --    3.31017   3.33483   3.37193   3.43376   3.59304
 Alpha virt. eigenvalues --    4.10034   4.23340   4.32177   4.36159   4.43582
 Alpha virt. eigenvalues --    4.52643   4.59678   4.59835   4.70948   4.77803
 Alpha virt. eigenvalues --    4.95892   4.99234   5.02565   5.10089
          Condensed to atoms (all electrons):
               1          2          3          4          5          6
     1  O    8.300574   0.310969  -0.089488  -0.078632   0.003440  -0.000015
     2  N    0.310969   5.683425   0.309977   0.263592  -0.045371   0.000936
     3  O   -0.089488   0.309977   8.329111  -0.087049   0.007852   0.000464
     4  C   -0.078632   0.263592  -0.087049   5.237502   0.570606  -0.051316
     5  C    0.003440  -0.045371   0.007852   0.570606   4.667627   0.307821
     6  N   -0.000015   0.000936   0.000464  -0.051316   0.307821   7.202550
     7  C    0.000002  -0.000097   0.000000   0.004218  -0.029743   0.197005
     8  H   -0.000000   0.000002  -0.000000  -0.000176   0.001806  -0.051174
     9  C   -0.000000  -0.000003   0.000000   0.000503   0.002201  -0.055489
    10  C   -0.000000   0.000000  -0.000000  -0.000019  -0.000078   0.003327
    11  C   -0.000000  -0.000000  -0.000000  -0.000012   0.000014  -0.000154
    12  C   -0.000000   0.000001  -0.000000  -0.000108  -0.000081   0.003578
    13  C   -0.000017  -0.000018  -0.000002  -0.010973   0.000332  -0.043334
    14  H   -0.000003  -0.000051   0.000001   0.002832   0.005515  -0.005630
    15  N    0.000262   0.001509  -0.000011  -0.060633  -0.003740   0.002041
    16  C    0.002759  -0.025814   0.002046   0.318073  -0.042334  -0.001362
    17  H    0.000098  -0.003955   0.010648  -0.027592   0.378246  -0.035169
    18  H    0.000000  -0.000036   0.000011   0.000718  -0.024016   0.328149
    19  H    0.000000  -0.000000   0.000000  -0.000734   0.000486   0.000825
    20  H    0.000000  -0.000000   0.000000  -0.000028   0.000023  -0.002000
    21  H   -0.000000  -0.000000   0.000000   0.000000   0.000001  -0.000057
    22  H   -0.000000   0.000000  -0.000000  -0.000000  -0.000002  -0.000099
    23  H    0.000000  -0.000000   0.000000   0.000024  -0.000000  -0.000024
    24  H    0.000000   0.000000   0.000000   0.000000  -0.000000   0.000004
    25  H    0.000000  -0.000000   0.000000   0.000019  -0.000001  -0.000071
    26  H    0.000000  -0.000000   0.000000   0.000006  -0.000002  -0.000064
    27  H    0.005813   0.000213   0.000029  -0.065095   0.002020   0.000059
               7          8          9         10         11         12
     1  O    0.000002  -0.000000  -0.000000  -0.000000  -0.000000  -0.000000
     2  N   -0.000097   0.000002  -0.000003   0.000000  -0.000000   0.000001
     3  O    0.000000  -0.000000   0.000000  -0.000000  -0.000000  -0.000000
     4  C    0.004218  -0.000176   0.000503  -0.000019  -0.000012  -0.000108
     5  C   -0.029743   0.001806   0.002201  -0.000078   0.000014  -0.000081
     6  N    0.197005  -0.051174  -0.055489   0.003327  -0.000154   0.003578
     7  C    4.996252   0.417631   0.339907  -0.049325  -0.007635  -0.063974
     8  H    0.417631   0.550090  -0.061398   0.001599  -0.000345  -0.002759
     9  C    0.339907  -0.061398   5.182480   0.317594  -0.053022  -0.006376
    10  C   -0.049325   0.001599   0.317594   5.126799   0.332847  -0.059990
    11  C   -0.007635  -0.000345  -0.053022   0.332847   5.123318   0.330953
    12  C   -0.063974  -0.002759  -0.006376  -0.059990   0.330953   5.135865
    13  C    0.334322  -0.041169  -0.048839  -0.001982  -0.047918   0.368042
    14  H   -0.040391  -0.000890   0.003877  -0.000393   0.003946  -0.040569
    15  N   -0.058564   0.004126  -0.013116   0.001506  -0.007678  -0.073988
    16  C   -0.002469   0.000029  -0.000939  -0.000021  -0.000003   0.002590
    17  H    0.001563  -0.000015  -0.000062   0.000001   0.000000   0.000001
    18  H   -0.028088  -0.002400   0.000949  -0.000130   0.000012  -0.000133
    19  H   -0.034874   0.004137   0.385596  -0.032506  -0.002293   0.000650
    20  H   -0.041455  -0.001879   0.397296  -0.037444   0.004147  -0.000357
    21  H    0.004032  -0.000082  -0.035846   0.400194  -0.035881   0.004206
    22  H   -0.004155   0.003514  -0.045652   0.395968  -0.045616  -0.001247
    23  H    0.000422   0.000033  -0.001999  -0.040111   0.396743  -0.036712
    24  H   -0.000139  -0.000096   0.004389  -0.038458   0.400322  -0.037856
    25  H    0.004957  -0.000005  -0.000365   0.004096  -0.033981   0.395510
    26  H   -0.004426   0.001622   0.001026  -0.002391  -0.042268   0.394743
    27  H   -0.000402   0.000009  -0.000056   0.000005   0.000005  -0.000018
              13         14         15         16         17         18
     1  O   -0.000017  -0.000003   0.000262   0.002759   0.000098   0.000000
     2  N   -0.000018  -0.000051   0.001509  -0.025814  -0.003955  -0.000036
     3  O   -0.000002   0.000001  -0.000011   0.002046   0.010648   0.000011
     4  C   -0.010973   0.002832  -0.060633   0.318073  -0.027592   0.000718
     5  C    0.000332   0.005515  -0.003740  -0.042334   0.378246  -0.024016
     6  N   -0.043334  -0.005630   0.002041  -0.001362  -0.035169   0.328149
     7  C    0.334322  -0.040391  -0.058564  -0.002469   0.001563  -0.028088
     8  H   -0.041169  -0.000890   0.004126   0.000029  -0.000015  -0.002400
     9  C   -0.048839   0.003877  -0.013116  -0.000939  -0.000062   0.000949
    10  C   -0.001982  -0.000393   0.001506  -0.000021   0.000001  -0.000130
    11  C   -0.047918   0.003946  -0.007678  -0.000003   0.000000   0.000012
    12  C    0.368042  -0.040569  -0.073988   0.002590   0.000001  -0.000133
    13  C    5.028278   0.401393   0.239244  -0.070300  -0.000076   0.003619
    14  H    0.401393   0.521394  -0.036190  -0.004717   0.000074   0.000019
    15  N    0.239244  -0.036190   6.935023   0.585836  -0.000063  -0.000112
    16  C   -0.070300  -0.004717   0.585836   4.709510   0.001753  -0.000229
    17  H   -0.000076   0.000074  -0.000063   0.001753   0.390341  -0.001920
    18  H    0.003619   0.000019  -0.000112  -0.000229  -0.001920   0.322512
    19  H   -0.006391   0.000065   0.007025   0.002542   0.000010  -0.000132
    20  H    0.003849  -0.000049   0.000080  -0.000030  -0.000001   0.003043
    21  H   -0.000366   0.000009  -0.000026   0.000002  -0.000000  -0.000000
    22  H    0.000319  -0.000044   0.000002  -0.000001   0.000000   0.000002
    23  H   -0.005807   0.000007   0.006672   0.000057   0.000000   0.000000
    24  H    0.004140  -0.000058   0.000043   0.000005   0.000000  -0.000000
    25  H   -0.034589  -0.002641   0.000683  -0.000064  -0.000000   0.000002
    26  H   -0.044748  -0.000935   0.004179  -0.000059   0.000000  -0.000001
    27  H    0.004836  -0.000173  -0.039355   0.401740  -0.000059   0.000002
              19         20         21         22         23         24
     1  O    0.000000   0.000000  -0.000000  -0.000000   0.000000   0.000000
     2  N   -0.000000  -0.000000  -0.000000   0.000000  -0.000000   0.000000
     3  O    0.000000   0.000000   0.000000  -0.000000   0.000000   0.000000
     4  C   -0.000734  -0.000028   0.000000  -0.000000   0.000024   0.000000
     5  C    0.000486   0.000023   0.000001  -0.000002  -0.000000  -0.000000
     6  N    0.000825  -0.002000  -0.000057  -0.000099  -0.000024   0.000004
     7  C   -0.034874  -0.041455   0.004032  -0.004155   0.000422  -0.000139
     8  H    0.004137  -0.001879  -0.000082   0.003514   0.000033  -0.000096
     9  C    0.385596   0.397296  -0.035846  -0.045652  -0.001999   0.004389
    10  C   -0.032506  -0.037444   0.400194   0.395968  -0.040111  -0.038458
    11  C   -0.002293   0.004147  -0.035881  -0.045616   0.396743   0.400322
    12  C    0.000650  -0.000357   0.004206  -0.001247  -0.036712  -0.037856
    13  C   -0.006391   0.003849  -0.000366   0.000319  -0.005807   0.004140
    14  H    0.000065  -0.000049   0.000009  -0.000044   0.000007  -0.000058
    15  N    0.007025   0.000080  -0.000026   0.000002   0.006672   0.000043
    16  C    0.002542  -0.000030   0.000002  -0.000001   0.000057   0.000005
    17  H    0.000010  -0.000001  -0.000000   0.000000   0.000000   0.000000
    18  H   -0.000132   0.003043  -0.000000   0.000002   0.000000  -0.000000
    19  H    0.507044  -0.024094  -0.002592   0.003758   0.001639  -0.000069
    20  H   -0.024094   0.550594  -0.002593  -0.002977  -0.000050  -0.000090
    21  H   -0.002592  -0.002593   0.526267  -0.024708  -0.002815  -0.002049
    22  H    0.003758  -0.002977  -0.024708   0.568677   0.004063  -0.003595
    23  H    0.001639  -0.000050  -0.002815   0.004063   0.510054  -0.025021
    24  H   -0.000069  -0.000090  -0.002049  -0.003595  -0.025021   0.541006
    25  H   -0.000027   0.000011  -0.000086  -0.000082  -0.002104  -0.002374
    26  H    0.000023  -0.000035  -0.000074   0.002465   0.003824  -0.002781
    27  H    0.000072  -0.000000  -0.000000   0.000000  -0.000021  -0.000000
              25         26         27
     1  O    0.000000   0.000000   0.005813
     2  N   -0.000000  -0.000000   0.000213
     3  O    0.000000   0.000000   0.000029
     4  C    0.000019   0.000006  -0.065095
     5  C   -0.000001  -0.000002   0.002020
     6  N   -0.000071  -0.000064   0.000059
     7  C    0.004957  -0.004426  -0.000402
     8  H   -0.000005   0.001622   0.000009
     9  C   -0.000365   0.001026  -0.000056
    10  C    0.004096  -0.002391   0.000005
    11  C   -0.033981  -0.042268   0.000005
    12  C    0.395510   0.394743  -0.000018
    13  C   -0.034589  -0.044748   0.004836
    14  H   -0.002641  -0.000935  -0.000173
    15  N    0.000683   0.004179  -0.039355
    16  C   -0.000064  -0.000059   0.401740
    17  H   -0.000000   0.000000  -0.000059
    18  H    0.000002  -0.000001   0.000002
    19  H   -0.000027   0.000023   0.000072
    20  H    0.000011  -0.000035  -0.000000
    21  H   -0.000086  -0.000074  -0.000000
    22  H   -0.000082   0.002465   0.000000
    23  H   -0.002104   0.003824  -0.000021
    24  H   -0.002374  -0.002781  -0.000000
    25  H    0.511135  -0.023130  -0.000009
    26  H   -0.023130   0.560521   0.000001
    27  H   -0.000009   0.000001   0.446529
 Mulliken charges:
               1
     1  O   -0.455764
     2  N    0.504721
     3  O   -0.483587
     4  C   -0.015725
     5  C    0.197381
     6  N   -0.800801
     7  C    0.065424
     8  H    0.177790
     9  C   -0.312655
    10  C   -0.321089
    11  C   -0.315501
    12  C   -0.311972
    13  C   -0.031843
    14  H    0.193603
    15  N   -0.494752
    16  C    0.121399
    17  H    0.286178
    18  H    0.398158
    19  H    0.189841
    20  H    0.154041
    21  H    0.172463
    22  H    0.149410
    23  H    0.191127
    24  H    0.162677
    25  H    0.183117
    26  H    0.152503
    27  H    0.243858
 Sum of Mulliken charges =  -0.00000
 Mulliken charges with hydrogens summed into heavy atoms:
               1
     1  O   -0.455764
     2  N    0.504721
     3  O   -0.483587
     4  C   -0.015725
     5  C    0.483559
     6  N   -0.402644
     7  C    0.243214
     9  C    0.031227
    10  C    0.000784
    11  C    0.038302
    12  C    0.023648
    13  C    0.161759
    15  N   -0.494752
    16  C    0.365258
 Electronic spatial extent (au):  <R**2>=           3130.4600
 Charge=             -0.0000 electrons
 Dipole moment (field-independent basis, Debye):
    X=              5.2833    Y=              4.3279    Z=              0.7249  Tot=              6.8680
 Quadrupole moment (field-independent basis, Debye-Ang):
   XX=           -105.4942   YY=            -80.5152   ZZ=            -82.1566
   XY=             -1.6180   XZ=             -0.2545   YZ=             -0.2968
 Traceless Quadrupole moment (field-independent basis, Debye-Ang):
   XX=            -16.1055   YY=              8.8734   ZZ=              7.2321
   XY=             -1.6180   XZ=             -0.2545   YZ=             -0.2968
 Octapole moment (field-independent basis, Debye-Ang**2):
  XXX=            101.8160  YYY=             34.1689  ZZZ=             -3.5242  XYY=             -1.5932
  XXY=             10.3521  XXZ=              4.0104  XZZ=             -8.3002  YZZ=             -2.3709
  YYZ=              1.4466  XYZ=             -0.7621
 Hexadecapole moment (field-independent basis, Debye-Ang**3):
 XXXX=          -3569.8051 YYYY=           -614.4284 ZZZZ=           -305.6762 XXXY=            -33.8543
 XXXZ=              1.8538 YYYX=            -13.9440 YYYZ=              4.3465 ZZZX=             11.2362
 ZZZY=              5.0102 XXYY=           -656.4019 XXZZ=           -547.0182 YYZZ=           -163.6778
 XXYZ=             -3.2443 YYXZ=              2.6708 ZZXY=              0.9278
 N-N= 9.172972264565D+02 E-N=-3.380601173675D+03  KE= 6.588574979198D+02
 Calling FoFJK, ICntrl=  10002127 FMM=F ISym2X=0 I1Cent= 0 IOpClX= 0 NMat=1 NMatS=1 NMatT=0.
 -------------------------------------------------------------------
 Center     Atomic                   Forces (Hartrees/Bohr)
 Number     Number              X              Y              Z
 -------------------------------------------------------------------
      1        8           0.001986700   -0.018602154   -0.006642802
      2        7           0.038340618    0.010300944    0.011464369
      3        8          -0.004530499    0.015642826    0.002929591
      4        6          -0.001876560    0.009780840    0.003245282
      5        6           0.002316923   -0.018321380   -0.005010523
      6        7           0.016931300   -0.012235229   -0.003112634
      7        6          -0.004436711    0.005697675    0.002024394
      8        1          -0.009532930   -0.001961208   -0.007542204
      9        6          -0.003938196   -0.000326038   -0.001906596
     10        6           0.002915911   -0.000734247    0.000914893
     11        6          -0.001227440   -0.004621091   -0.002437357
     12        6           0.001010224   -0.008697066   -0.002593062
     13        6           0.009798567   -0.001891039    0.004684966
     14        1           0.000497165    0.004566224   -0.009786154
     15        7          -0.000553250    0.002507826    0.001380636
     16        6          -0.021653018    0.007909440    0.001186541
     17        1           0.004930837   -0.002927011   -0.014047539
     18        1          -0.017224208   -0.001131354    0.009649739
     19        1           0.003150187    0.006020636    0.007606088
     20        1          -0.003226235   -0.007252448    0.002709486
     21        1          -0.004316440    0.002477056    0.009610934
     22        1          -0.003989793   -0.004098536   -0.007360213
     23        1           0.004039804    0.006243756    0.009185769
     24        1          -0.009408192    0.002567024   -0.002119436
     25        1          -0.000777094    0.010533743   -0.002494297
     26        1          -0.004809362   -0.004916169   -0.004323640
     27        1           0.005581693    0.003466979    0.002783766
 -------------------------------------------------------------------
 Cartesian Forces:  Max     0.038340618 RMS     0.008534567

 GradGradGradGradGradGradGradGradGradGradGradGradGradGradGradGradGradGrad
 Berny optimization.
 FormGI is forming the generalized inverse of G from B-inverse, IUseBI=4.
 Internal  Forces:  Max     0.036931684 RMS     0.006834104
 Search for a local minimum.
 Step number   1 out of a maximum of   20
 All quantities printed in internal units (Hartrees-Bohrs-Radians)
 Mixed Optimization -- RFO/linear search
 Second derivative matrix not updated -- first step.
 ITU=  0
     Eigenvalues ---    0.00231   0.00769   0.01070   0.01171   0.01425
     Eigenvalues ---    0.01494   0.01531   0.01643   0.01970   0.02020
     Eigenvalues ---    0.02687   0.03652   0.04503   0.04691   0.04838
     Eigenvalues ---    0.05083   0.05137   0.05304   0.05898   0.06264
     Eigenvalues ---    0.07219   0.07702   0.07730   0.07882   0.07992
     Eigenvalues ---    0.08051   0.08068   0.10460   0.11743   0.12269
     Eigenvalues ---    0.13506   0.15304   0.15807   0.15962   0.16001
     Eigenvalues ---    0.20092   0.21779   0.23101   0.24730   0.25000
     Eigenvalues ---    0.25000   0.25374   0.26183   0.26652   0.27980
     Eigenvalues ---    0.28087   0.28448   0.29586   0.31449   0.31456
     Eigenvalues ---    0.32050   0.32235   0.32289   0.32382   0.32388
     Eigenvalues ---    0.32406   0.32512   0.32524   0.32576   0.33194
     Eigenvalues ---    0.33397   0.33603   0.35299   0.43873   0.44178
     Eigenvalues ---    0.48994   0.66655   0.90394   0.911821000.00000
     Eigenvalues --- 1000.000001000.000001000.000001000.000001000.00000
     Eigenvalues --- 1000.000001000.000001000.000001000.000001000.00000
     Eigenvalues --- 1000.000001000.000001000.000001000.000001000.00000
     Eigenvalues --- 1000.000001000.000001000.000001000.000001000.00000
     Eigenvalues --- 1000.000001000.000001000.000001000.000001000.00000
     Eigenvalues --- 1000.000001000.000001000.000001000.000001000.00000
     Eigenvalues --- 1000.000001000.000001000.000001000.000001000.00000
     Eigenvalues --- 1000.000001000.000001000.000001000.000001000.00000
     Eigenvalues --- 1000.000001000.000001000.000001000.000001000.00000
     Eigenvalues --- 1000.000001000.000001000.000001000.000001000.00000
     Eigenvalues --- 1000.000001000.000001000.000001000.000001000.00000
     Eigenvalues --- 1000.000001000.000001000.000001000.000001000.00000
     Eigenvalues --- 1000.000001000.000001000.000001000.000001000.00000
     Eigenvalues --- 1000.000001000.000001000.000001000.000001000.00000
     Eigenvalues --- 1000.000001000.000001000.000001000.000001000.00000
     Eigenvalues --- 1000.000001000.000001000.000001000.000001000.00000
     Eigenvalues --- 1000.000001000.000001000.000001000.000001000.00000
     Eigenvalues --- 1000.000001000.000001000.000001000.000001000.00000
     Eigenvalues --- 1000.00000
 RFO step:  Lambda=-2.46988322D-02 EMin= 2.30862886D-03
 Linear search not attempted -- first point.
 Iteration  1 RMS(Cart)=  0.05478511 RMS(Int)=  0.00128345
 Iteration  2 RMS(Cart)=  0.00161748 RMS(Int)=  0.00030177
 Iteration  3 RMS(Cart)=  0.00000251 RMS(Int)=  0.00030176
 Iteration  4 RMS(Cart)=  0.00000000 RMS(Int)=  0.00030176
 Iteration  1 RMS(Cart)=  0.00005018 RMS(Int)=  0.00004217
 Iteration  2 RMS(Cart)=  0.00002407 RMS(Int)=  0.00004664
 Iteration  3 RMS(Cart)=  0.00001352 RMS(Int)=  0.00005132
 Iteration  4 RMS(Cart)=  0.00000893 RMS(Int)=  0.00005434
 Iteration  5 RMS(Cart)=  0.00000662 RMS(Int)=  0.00005638
 Iteration  6 RMS(Cart)=  0.00000524 RMS(Int)=  0.00005790
 Iteration  7 RMS(Cart)=  0.00000429 RMS(Int)=  0.00005913
 Iteration  8 RMS(Cart)=  0.00000357 RMS(Int)=  0.00006017
 Iteration  9 RMS(Cart)=  0.00000301 RMS(Int)=  0.00006106
 Iteration 10 RMS(Cart)=  0.00000254 RMS(Int)=  0.00006183
 Iteration 11 RMS(Cart)=  0.00000215 RMS(Int)=  0.00006249
 Iteration 12 RMS(Cart)=  0.00000183 RMS(Int)=  0.00006307
 Iteration 13 RMS(Cart)=  0.00000155 RMS(Int)=  0.00006357
 Iteration 14 RMS(Cart)=  0.00000132 RMS(Int)=  0.00006400
 Iteration 15 RMS(Cart)=  0.00000112 RMS(Int)=  0.00006437
 Iteration 16 RMS(Cart)=  0.00000096 RMS(Int)=  0.00006469
 Variable       Old X    -DE/DX   Delta X   Delta X   Delta X     New X
                                 (Linear)    (Quad)   (Total)
    R1        2.32393   0.01812   0.00000   0.01935   0.01935   2.34328
    R2        2.32752   0.01523   0.00000   0.01640   0.01640   2.34392
    R3        2.88797  -0.03693   0.00000  -0.11521  -0.11521   2.77276
    R4        2.64574  -0.03445   0.00000  -0.07410  -0.07393   2.57181
    R5        2.81257  -0.02262   0.00000  -0.06484  -0.06468   2.74788
    R6        2.59106  -0.02179   0.00000  -0.04204  -0.04196   2.54910
    R7        2.08360  -0.01003   0.00000  -0.02796  -0.02796   2.05564
    R8        2.82483  -0.01952   0.00000  -0.05350  -0.05352   2.77131
    R9        1.93307  -0.00692   0.00000  -0.01493  -0.01493   1.91814
   R10        2.11850  -0.01155   0.00000  -0.03406  -0.03406   2.08444
   R11        2.92708  -0.01304   0.00000  -0.04462  -0.04469   2.88238
   R12        2.90311  -0.00546   0.00000  -0.01136  -0.01133   2.89178
   R13        2.91125  -0.00476   0.00000  -0.01427  -0.01428   2.89697
   R14        2.09917  -0.00999   0.00000  -0.02856  -0.02856   2.07061
   R15        2.09895  -0.00796   0.00000  -0.02276  -0.02276   2.07619
   R16        2.90427  -0.00192   0.00000  -0.00715  -0.00713   2.89714
   R17        2.10140  -0.01057   0.00000  -0.03033  -0.03033   2.07107
   R18        2.10318  -0.00903   0.00000  -0.02598  -0.02598   2.07720
   R19        2.91788  -0.00908   0.00000  -0.02838  -0.02831   2.88957
   R20        2.10416  -0.01167   0.00000  -0.03363  -0.03363   2.07053
   R21        2.10108  -0.00995   0.00000  -0.02854  -0.02854   2.07253
   R22        2.93543  -0.01034   0.00000  -0.03601  -0.03600   2.89943
   R23        2.10151  -0.01069   0.00000  -0.03068  -0.03068   2.07083
   R24        2.09802  -0.00791   0.00000  -0.02258  -0.02258   2.07544
   R25        2.10753  -0.00890   0.00000  -0.02577  -0.02577   2.08176
   R26        2.76818  -0.00488   0.00000  -0.01120  -0.01154   2.75664
   R27        2.44385  -0.00537   0.00000  -0.00780  -0.00791   2.43594
   R28        2.08006  -0.00648   0.00000  -0.01798  -0.01798   2.06208
    A1        2.15773   0.01101   0.00000   0.04027   0.03982   2.19755
    A2        2.05409  -0.00703   0.00000  -0.02540  -0.02586   2.02824
    A3        2.07125  -0.00393   0.00000  -0.01410  -0.01456   2.05670
    A4        2.03064  -0.00735   0.00000  -0.02629  -0.02656   2.00407
    A5        2.03436  -0.00279   0.00000  -0.01143  -0.01200   2.02236
    A6        2.21084   0.01015   0.00000   0.03093   0.03016   2.24100
    A7        2.19748   0.00609   0.00000   0.02050   0.02033   2.21781
    A8        2.06391  -0.00349   0.00000  -0.01295  -0.01285   2.05106
    A9        2.01768  -0.00240   0.00000  -0.00900  -0.00909   2.00860
   A10        2.24756  -0.00514   0.00000  -0.01532  -0.01584   2.23172
   A11        2.12028  -0.01245   0.00000  -0.07263  -0.07272   2.04756
   A12        1.88110   0.01770   0.00000   0.09416   0.09461   1.97571
   A13        1.83770  -0.00100   0.00000  -0.01630  -0.01606   1.82163
   A14        2.00731  -0.00138   0.00000  -0.01003  -0.00977   1.99754
   A15        1.96573   0.00076   0.00000   0.00184   0.00102   1.96675
   A16        1.85149   0.00254   0.00000   0.02349   0.02328   1.87478
   A17        1.84918   0.00066   0.00000   0.01304   0.01298   1.86216
   A18        1.93833  -0.00122   0.00000  -0.00857  -0.00818   1.93015
   A19        1.91032   0.00022   0.00000  -0.00392  -0.00411   1.90621
   A20        1.92260  -0.00077   0.00000  -0.01248  -0.01242   1.91018
   A21        1.92295  -0.00165   0.00000  -0.00760  -0.00759   1.91536
   A22        1.91918  -0.00041   0.00000   0.00589   0.00585   1.92503
   A23        1.90419   0.00300   0.00000   0.02350   0.02357   1.92776
   A24        1.88439  -0.00037   0.00000  -0.00499  -0.00525   1.87914
   A25        1.94033  -0.00100   0.00000   0.00522   0.00508   1.94540
   A26        1.91898  -0.00062   0.00000  -0.00631  -0.00631   1.91267
   A27        1.90500   0.00034   0.00000  -0.00287  -0.00291   1.90209
   A28        1.91615   0.00085   0.00000   0.00702   0.00707   1.92322
   A29        1.89851   0.00169   0.00000   0.01083   0.01088   1.90938
   A30        1.88383  -0.00125   0.00000  -0.01437  -0.01445   1.86938
   A31        1.94483   0.00045   0.00000   0.00431   0.00447   1.94930
   A32        1.90223   0.00074   0.00000   0.00598   0.00591   1.90814
   A33        1.91756   0.00038   0.00000   0.00544   0.00541   1.92298
   A34        1.90626  -0.00104   0.00000  -0.01337  -0.01342   1.89284
   A35        1.91546  -0.00045   0.00000  -0.00007  -0.00016   1.91529
   A36        1.87612  -0.00011   0.00000  -0.00264  -0.00267   1.87345
   A37        1.94922  -0.00280   0.00000  -0.01715  -0.01715   1.93207
   A38        1.90572   0.00256   0.00000   0.01724   0.01711   1.92284
   A39        1.91013   0.00128   0.00000   0.01233   0.01228   1.92241
   A40        1.90605   0.00006   0.00000  -0.00268  -0.00253   1.90353
   A41        1.91089  -0.00017   0.00000  -0.00515  -0.00512   1.90577
   A42        1.88053  -0.00086   0.00000  -0.00414  -0.00431   1.87622
   A43        1.84650   0.00430   0.00000   0.02385   0.02383   1.87033
   A44        1.94102  -0.00430   0.00000  -0.03292  -0.03327   1.90775
   A45        1.97975   0.00109   0.00000   0.01275   0.01282   1.99257
   A46        1.87901   0.00231   0.00000   0.03060   0.03092   1.90993
   A47        1.89208  -0.00349   0.00000  -0.02716  -0.02712   1.86495
   A48        1.92074   0.00033   0.00000  -0.00469  -0.00455   1.91619
   A49        2.07962  -0.00539   0.00000  -0.01376  -0.01395   2.06567
   A50        2.24855  -0.00537   0.00000  -0.02258  -0.02243   2.22613
   A51        1.98318   0.00559   0.00000   0.02704   0.02686   2.01004
   A52        2.05138  -0.00020   0.00000  -0.00421  -0.00439   2.04699
    D1       -3.11857  -0.00188   0.00000  -0.05341  -0.05243   3.11219
    D2        0.14413  -0.00279   0.00000   0.00000   0.00000   0.14413
    D3        0.00752   0.00119   0.00000   0.00061   0.00110   0.00862
    D4       -3.01296   0.00028   0.00000   0.05403   0.05353  -2.95943
    D5       -3.03200  -0.00291   0.00000  -0.01865  -0.01895  -3.05094
    D6        0.21161  -0.00514   0.00000   0.00000  -0.00000   0.21161
    D7       -0.02555  -0.00311   0.00000  -0.08223  -0.08337  -0.10891
    D8       -3.06513  -0.00534   0.00000  -0.06358  -0.06442  -3.12955
    D9       -2.78467   0.00020   0.00000  -0.03459  -0.03603  -2.82070
   D10        0.34291   0.00137   0.00000  -0.01207  -0.01282   0.33009
   D11        0.49232   0.00070   0.00000   0.03011   0.02990   0.52221
   D12       -2.66328   0.00188   0.00000   0.05263   0.05311  -2.61018
   D13       -0.26089   0.00167   0.00000   0.07764   0.07758  -0.18331
   D14        2.56714   0.00505   0.00000   0.12018   0.11931   2.68645
   D15        2.78106   0.00377   0.00000   0.05917   0.05878   2.83984
   D16       -0.67410   0.00715   0.00000   0.10171   0.10051  -0.57358
   D17       -2.40385  -0.00119   0.00000  -0.03613  -0.03559  -2.43944
   D18        1.84796  -0.00290   0.00000  -0.04887  -0.04843   1.79953
   D19       -0.39672  -0.00062   0.00000  -0.02925  -0.02907  -0.42579
   D20        1.01762  -0.00036   0.00000  -0.05237  -0.05292   0.96470
   D21       -1.01376  -0.00207   0.00000  -0.06511  -0.06576  -1.07952
   D22        3.02475   0.00021   0.00000  -0.04550  -0.04640   2.97835
   D23        2.94544   0.00259   0.00000   0.02306   0.02319   2.96863
   D24       -1.22557   0.00174   0.00000   0.01995   0.02005  -1.20552
   D25        0.85157  -0.00022   0.00000   0.00127   0.00145   0.85302
   D26        0.92195   0.00291   0.00000   0.03315   0.03316   0.95511
   D27        3.03412   0.00206   0.00000   0.03004   0.03002   3.06414
   D28       -1.17192   0.00010   0.00000   0.01135   0.01142  -1.16050
   D29       -1.07951   0.00133   0.00000   0.00894   0.00883  -1.07068
   D30        1.03267   0.00048   0.00000   0.00583   0.00569   1.03835
   D31        3.10980  -0.00149   0.00000  -0.01286  -0.01291   3.09689
   D32       -2.90204  -0.00148   0.00000  -0.01066  -0.01035  -2.91239
   D33       -0.86674   0.00154   0.00000   0.02261   0.02250  -0.84423
   D34        1.30938  -0.00060   0.00000   0.00000   0.00001   1.30939
   D35       -0.90186  -0.00191   0.00000  -0.02153  -0.02141  -0.92327
   D36        1.13344   0.00111   0.00000   0.01174   0.01145   1.14489
   D37       -2.97363  -0.00103   0.00000  -0.01087  -0.01104  -2.98467
   D38        1.10104   0.00085   0.00000   0.00920   0.00931   1.11035
   D39        3.13634   0.00387   0.00000   0.04247   0.04217  -3.10467
   D40       -0.97073   0.00173   0.00000   0.01986   0.01968  -0.95105
   D41        0.95665   0.00056   0.00000   0.00000   0.00000   0.95666
   D42        3.08228   0.00055   0.00000   0.00805   0.00800   3.09029
   D43       -1.13761  -0.00113   0.00000  -0.01484  -0.01482  -1.15243
   D44       -1.15760   0.00163   0.00000   0.01422   0.01430  -1.14329
   D45        0.96803   0.00162   0.00000   0.02227   0.02230   0.99034
   D46        3.03133  -0.00006   0.00000  -0.00063  -0.00052   3.03080
   D47        3.06198   0.00053   0.00000   0.00276   0.00274   3.06472
   D48       -1.09557   0.00051   0.00000   0.01082   0.01074  -1.08483
   D49        0.96772  -0.00116   0.00000  -0.01208  -0.01209   0.95563
   D50       -0.92192  -0.00082   0.00000   0.00000   0.00000  -0.92192
   D51        1.18300  -0.00134   0.00000  -0.00999  -0.01000   1.17300
   D52       -3.04871  -0.00081   0.00000  -0.00654  -0.00658  -3.05529
   D53       -3.04920   0.00005   0.00000  -0.00028  -0.00026  -3.04946
   D54       -0.94428  -0.00047   0.00000  -0.01027  -0.01027  -0.95454
   D55        1.10720   0.00006   0.00000  -0.00682  -0.00684   1.10036
   D56        1.17619   0.00008   0.00000   0.00668   0.00671   1.18290
   D57       -3.00208  -0.00044   0.00000  -0.00331  -0.00330  -3.00538
   D58       -0.95060   0.00008   0.00000   0.00014   0.00013  -0.95048
   D59        0.98702  -0.00065   0.00000  -0.01189  -0.01196   0.97506
   D60        3.09680  -0.00065   0.00000  -0.01471  -0.01485   3.08195
   D61       -1.13183   0.00053   0.00000  -0.00255  -0.00253  -1.13436
   D62       -1.11554  -0.00118   0.00000  -0.01327  -0.01328  -1.12882
   D63        0.99425  -0.00118   0.00000  -0.01609  -0.01618   0.97807
   D64        3.04880   0.00001   0.00000  -0.00392  -0.00385   3.04495
   D65        3.11503  -0.00018   0.00000  -0.00217  -0.00219   3.11284
   D66       -1.05837  -0.00018   0.00000  -0.00499  -0.00509  -1.06346
   D67        0.99618   0.00101   0.00000   0.00717   0.00724   1.00342
   D68       -1.04983  -0.00003   0.00000   0.00071   0.00088  -1.04895
   D69       -3.12664   0.00158   0.00000   0.01126   0.01094  -3.11570
   D70        1.07921   0.00181   0.00000   0.01468   0.01455   1.09376
   D71        3.12376  -0.00148   0.00000  -0.00807  -0.00785   3.11591
   D72        1.04696   0.00013   0.00000   0.00248   0.00221   1.04916
   D73       -1.03039   0.00037   0.00000   0.00590   0.00582  -1.02456
   D74        1.06857  -0.00038   0.00000   0.00148   0.00173   1.07031
   D75       -1.00823   0.00123   0.00000   0.01203   0.01179  -0.99644
   D76       -3.08557   0.00147   0.00000   0.01545   0.01541  -3.07016
   D77       -1.17216   0.00294   0.00000   0.00000   0.00001  -1.17215
   D78        3.06569  -0.00075   0.00000  -0.01937  -0.01913   3.04656
   D79        1.01486  -0.00168   0.00000  -0.03771  -0.03795   0.97691
   D80        0.09869   0.00242   0.00000   0.01158   0.01169   0.11038
   D81       -3.02843   0.00116   0.00000  -0.01189  -0.01216  -3.04059
         Item               Value     Threshold  Converged?
 Maximum Force            0.036932     0.000450     NO 
 RMS     Force            0.006916     0.000300     NO 
 Maximum Displacement     0.291332     0.001800     NO 
 RMS     Displacement     0.055553     0.001200     NO 
 Predicted change in Energy=-1.422091D-02
 GradGradGradGradGradGradGradGradGradGradGradGradGradGradGradGradGradGrad

                          Input orientation:                          
 ---------------------------------------------------------------------
 Center     Atomic      Atomic             Coordinates (Angstroms)
 Number     Number       Type             X           Y           Z
 ---------------------------------------------------------------------
      1          8           0       -3.496033   -1.389651   -0.370551
      2          7           0       -3.135744   -0.239811   -0.077830
      3          8           0       -3.882574    0.736515    0.088000
      4          6           0       -1.688752   -0.021756    0.029773
      5          6           0       -1.323460    1.257465    0.316691
      6          7           0       -0.069586    1.751434    0.374968
      7          6           0        1.193349    1.006264    0.355340
      8          1           0        1.828502    1.524475    1.093399
      9          6           0        1.926127    1.040957   -0.981950
     10          6           0        3.328070    0.446603   -0.804700
     11          6           0        3.268362   -0.960511   -0.199007
     12          6           0        2.446726   -0.986295    1.090326
     13          6           0        1.036036   -0.434793    0.845559
     14          1           0        0.471977   -0.438080    1.791809
     15          7           0        0.394418   -1.325659   -0.114981
     16          6           0       -0.846845   -1.126668   -0.400129
     17          1           0       -2.104726    1.943523    0.636465
     18          1           0        0.048844    2.743773    0.197398
     19          1           0        1.360237    0.465461   -1.723016
     20          1           0        1.991029    2.076644   -1.342812
     21          1           0        3.841082    0.420273   -1.772820
     22          1           0        3.914060    1.103080   -0.145985
     23          1           0        2.806329   -1.645699   -0.918420
     24          1           0        4.281614   -1.330019    0.000033
     25          1           0        2.369440   -2.011829    1.468690
     26          1           0        2.940157   -0.384633    1.865401
     27          1           0       -1.335658   -1.859054   -1.044647
 ---------------------------------------------------------------------
                    Distance matrix (angstroms):
                    1          2          3          4          5
     1  O    0.000000
     2  N    1.240010   0.000000
     3  O    2.209132   1.240349   0.000000
     4  C    2.301665   1.467281   2.321899   0.000000
     5  C    3.492792   2.383665   2.621593   1.360944   0.000000
     6  N    4.707733   3.683939   3.956170   2.425914   1.348926
     7  C    5.315790   4.525637   5.090110   3.077227   2.529609
     8  H    6.243874   5.397058   5.852187   3.986629   3.257213
     9  C    5.973398   5.299089   5.914261   3.901320   3.506161
    10  C    7.080162   6.540673   7.271474   5.107270   4.853015
    11  C    6.780164   6.445671   7.355144   5.050404   5.125446
    12  C    6.132963   5.752026   6.635718   4.376904   4.455028
    13  C    4.788562   4.277197   5.112590   2.874122   2.951383
    14  H    4.618051   4.068233   4.821281   2.819015   2.876533
    15  N    3.899362   3.693575   4.752517   2.461852   3.132089
    16  C    2.662374   2.475773   3.595187   1.454116   2.534775
    17  H    3.749648   2.517968   2.217752   2.098435   1.087799
    18  H    5.474844   4.372543   4.415552   3.270396   2.026465
    19  H    5.371588   4.839204   5.553405   3.550491   3.462644
    20  H    6.562648   5.766277   6.192122   4.452871   3.796162
    21  H    7.686055   7.210050   7.950945   5.832993   5.633778
    22  H    7.821357   7.176890   7.808752   5.717312   5.260183
    23  H    6.331310   6.163712   7.171418   4.872578   5.197020
    24  H    7.786699   7.497455   8.422129   6.112096   6.181603
    25  H    6.178486   5.986554   6.967594   4.743395   5.064869
    26  H    6.887241   6.380729   7.139032   4.992796   4.824253
    27  H    2.311269   2.607104   3.808759   2.157479   3.400894
                    6          7          8          9         10
     6  N    0.000000
     7  C    1.466515   0.000000
     8  H    2.042154   1.103039   0.000000
     9  C    2.515726   1.525291   2.133165   0.000000
    10  C    3.825999   2.493180   2.648262   1.533009   0.000000
    11  C    4.338892   2.912247   3.149391   2.533864   1.533101
    12  C    3.786650   2.466059   2.585764   2.945352   2.533986
    13  C    2.494683   1.530264   2.127947   2.511950   2.958654
    14  H    2.663588   2.161007   2.485873   3.463502   3.960024
    15  N    3.150214   2.509454   3.411751   2.949346   3.496132
    16  C    3.080320   3.046723   4.051748   3.567420   4.479818
    17  H    2.060843   3.440172   3.981793   4.436403   5.816614
    18  H    1.015034   2.086570   2.335955   2.795467   4.127289
    19  H    2.845989   2.154039   3.045156   1.095721   2.171641
    20  H    2.702344   2.160029   2.503283   1.098672   2.175839
    21  H    4.655997   3.447165   3.672187   2.162817   1.095962
    22  H    4.069544   2.768207   2.462356   2.157446   1.099206
    23  H    4.635110   3.355157   3.879892   2.827881   2.159368
    24  H    5.344986   3.888682   3.919355   3.483409   2.170997
    25  H    4.615975   3.425146   3.597069   3.939755   3.482982
    26  H    3.980292   2.695592   2.340183   3.341851   2.823273
    27  H    4.080915   4.070121   5.102099   4.365001   5.208069
                   11         12         13         14         15
    11  C    0.000000
    12  C    1.529094   0.000000
    13  C    2.520075   1.534311   0.000000
    14  H    3.472182   2.166160   1.101618   0.000000
    15  N    2.898266   2.404142   1.458751   2.104676   0.000000
    16  C    4.123468   3.617840   2.361285   2.649157   1.289046
    17  H    6.164536   5.431900   3.945186   3.694083   4.183054
    18  H    4.923835   4.523335   3.390861   3.584045   4.096008
    19  H    2.827887   3.347080   2.741011   3.736227   2.593587
    20  H    3.487718   3.938199   3.465298   4.296185   3.953783
    21  H    2.170590   3.481418   3.931328   4.979380   4.204308
    22  H    2.162902   2.836728   3.410460   4.240066   4.276402
    23  H    1.095679   2.144572   2.777023   3.775299   2.562275
    24  H    1.096737   2.161874   3.471329   4.303412   3.888900
    25  H    2.166689   1.095834   2.157151   2.486253   2.622891
    26  H    2.168209   1.098277   2.160618   2.469855   3.359796
    27  H    4.766496   4.430151   3.350571   3.651327   2.035178
                   16         17         18         19         20
    16  C    0.000000
    17  H    3.476041   0.000000
    18  H    4.017413   2.339027   0.000000
    19  H    3.025907   4.444973   3.255525   0.000000
    20  H    4.382166   4.550876   2.566981   1.771542   0.000000
    21  H    5.123862   6.593754   4.864307   2.481757   2.520153
    22  H    5.263324   6.127345   4.213037   3.068485   2.465414
    23  H    3.726083   6.278427   5.302474   2.682453   3.834143
    24  H    5.148065   7.204614   5.878017   3.837590   4.319186
    25  H    3.823674   6.029558   5.442159   4.164426   4.976278
    26  H    4.474888   5.690469   4.574805   4.011925   4.153475
    27  H    1.091206   4.228143   4.964427   3.623728   5.161925
                   21         22         23         24         25
    21  H    0.000000
    22  H    1.765827   0.000000
    23  H    2.463524   3.062599   0.000000
    24  H    2.529941   2.465034   1.766260   0.000000
    25  H    4.311408   3.833495   2.454225   2.505639   0.000000
    26  H    3.833561   2.684670   3.059061   2.484524   1.769425
    27  H    5.703000   6.094372   4.149399   5.738029   4.479727
                   26         27
    26  H    0.000000
    27  H    5.378186   0.000000
 Symmetry turned off by external request.
 Stoichiometry    C9H13N3O2
 Framework group  C1[X(C9H13N3O2)]
 Deg. of freedom    75
 Full point group                 C1      NOp   1
 Rotational constants (GHZ):           1.6894033           0.4196203           0.3719306
 Standard basis: 6-31G(d) (6D, 7F)
   236 basis functions,   444 primitive gaussians,   236 cartesian basis functions
    52 alpha electrons       52 beta electrons
       nuclear repulsion energy       931.7771736352 Hartrees.
 NAtoms=   27 NActive=   27 NUniq=   27 SFac= 1.00D+00 NAtFMM=   60 NAOKFM=F Big=F
 Integral buffers will be    131072 words long.
 Raffenetti 1 integral format.
 Two-electron integral symmetry is turned off.
 One-electron integrals computed using PRISM.
 NBasis=   236 RedAO= T EigKep=  1.05D-03  NBF=   236
 NBsUse=   236 1.00D-06 EigRej= -1.00D+00 NBFU=   236
 Initial guess from the checkpoint file:  "/home/alexey/tmp/Gau-1409606.chk"
 B after Tr=     0.055175    0.004249   -0.000991
         Rot=    0.999999    0.000544    0.000848    0.000980 Ang=   0.16 deg.
 ExpMin= 1.61D-01 ExpMax= 5.48D+03 ExpMxC= 8.25D+02 IAcc=3 IRadAn=         5 AccDes= 0.00D+00
 Harris functional with IExCor=  205 and IRadAn=       5 diagonalized for initial guess.
 HarFok:  IExCor=  205 AccDes= 0.00D+00 IRadAn=         5 IDoV= 1 UseB2=F ITyADJ=14
 ICtDFT=  3500011 ScaDFX=  1.000000  1.000000  1.000000  1.000000
 FoFCou: FMM=F IPFlag=           0 FMFlag=      100000 FMFlg1=           0
         NFxFlg=           0 DoJE=T BraDBF=F KetDBF=T FulRan=T
         wScrn=  0.000000 ICntrl=       500 IOpCl=  0 I1Cent=   200000004 NGrid=           0
         NMat0=    1 NMatS0=      1 NMatT0=    0 NMatD0=    1 NMtDS0=    0 NMtDT0=    0
 Symmetry not used in FoFCou.
 Keep R1 ints in memory in canonical form, NReq=397720213.
 Requested convergence on RMS density matrix=1.00D-08 within 128 cycles.
 Requested convergence on MAX density matrix=1.00D-06.
 Requested convergence on             energy=1.00D-06.
 No special actions if energy rises.
 SCF Done:  E(RHF) =  -661.294576390     A.U. after   15 cycles
            NFock= 15  Conv=0.37D-08     -V/T= 2.0024
 ExpMin= 1.61D-01 ExpMax= 5.48D+03 ExpMxC= 8.25D+02 IAcc=3 IRadAn=         5 AccDes= 0.00D+00
 HarFok:  IExCor=  205 AccDes= 0.00D+00 IRadAn=         5 IDoV=-2 UseB2=F ITyADJ=14
 ICtDFT= 12500011 ScaDFX=  1.000000  1.000000  1.000000  1.000000
 Range of M.O.s used for correlation:    15   236
 NBasis=   236 NAE=    52 NBE=    52 NFC=    14 NFV=     0
 NROrb=    222 NOA=    38 NOB=    38 NVA=   184 NVB=   184
 Fully direct method using O(ONN) memory.
 JobTyp=1 Pass  1:  I=  15 to  52 NPSUse=  4 ParTrn=T ParDer=T DoDerP=T.
 Spin components of T(2) and E(2):
     alpha-alpha T2 =       0.9131395430D-01 E2=     -0.2723967395D+00
     alpha-beta  T2 =       0.4918027506D+00 E2=     -0.1488507878D+01
     beta-beta   T2 =       0.9131395430D-01 E2=     -0.2723967395D+00
 ANorm=    0.1293997936D+01
 E2 =    -0.2033301357D+01 EUMP2 =    -0.66332787774693D+03
          IDoAtm=111111111111111111111111111
          Differentiating once with respect to electric field.
                with respect to dipole field.
          Differentiating once with respect to nuclear coordinates.
 Keep R1 ints in memory in canonical form, NReq=397723379.
          There are     1 degrees of freedom in the 1st order CPHF.  IDoFFX=0 NUNeed=     1.
 LinEq1:  Iter=  0 NonCon=     1 RMS=4.58D-03 Max=9.74D-02 NDo=     1
 AX will form     1 AO Fock derivatives at one time.
 LinEq1:  Iter=  1 NonCon=     1 RMS=1.54D-03 Max=3.38D-02 NDo=     1
 LinEq1:  Iter=  2 NonCon=     1 RMS=6.44D-04 Max=1.62D-02 NDo=     1
 LinEq1:  Iter=  3 NonCon=     1 RMS=2.82D-04 Max=8.18D-03 NDo=     1
[...]
    16  C    0.000000
    17  H    3.463699   0.000000
    18  H    4.083637   2.228657   0.000000
    19  H    2.986319   4.329144   3.529068   0.000000
    20  H    4.371089   4.474273   2.905581   1.768622   0.000000
    21  H    5.093273   6.528287   5.101285   2.498925   2.521233
    22  H    5.246649   6.103686   4.320416   3.070113   2.461534
    23  H    3.694111   6.239083   5.425044   2.704419   3.843279
    24  H    5.133621   7.197047   5.937298   3.849742   4.317372
    25  H    3.824445   6.067091   5.358611   4.172093   4.985656
    26  H    4.496627   5.758602   4.473401   4.036482   4.182878
    27  H    1.089329   4.223095   5.076554   3.574774   5.140329
                   21         22         23         24         25
    21  H    0.000000
    22  H    1.758845   0.000000
    23  H    2.469358   3.062260   0.000000
    24  H    2.517288   2.459861   1.764610   0.000000
    25  H    4.312066   3.839743   2.444100   2.519669   0.000000
    26  H    3.846842   2.704682   3.060347   2.491562   1.767928
    27  H    5.644965   6.054881   4.085577   5.691146   4.456049
                   26         27
    26  H    0.000000
    27  H    5.378280   0.000000
 Symmetry turned off by external request.
 Stoichiometry    C9H13N3O2
 Framework group  C1[X(C9H13N3O2)]
 Deg. of freedom    75
 Full point group                 C1      NOp   1
 Rotational constants (GHZ):           1.6758090           0.4183394           0.3728307

 **********************************************************************

            Population analysis using the SCF Density.

 **********************************************************************

 Alpha  occ. eigenvalues --  -20.59252 -20.58890 -15.84747 -15.64219 -15.56054
 Alpha  occ. eigenvalues --  -11.35072 -11.29646 -11.29493 -11.28650 -11.27121
 Alpha  occ. eigenvalues --  -11.23715 -11.23202 -11.22693 -11.22084  -1.57132
 Alpha  occ. eigenvalues --   -1.36716  -1.31020  -1.23044  -1.14697  -1.09797
 Alpha  occ. eigenvalues --   -1.02812  -1.01293  -0.94453  -0.89660  -0.85553
 Alpha  occ. eigenvalues --   -0.82434  -0.78637  -0.77392  -0.75189  -0.72057
 Alpha  occ. eigenvalues --   -0.69712  -0.69496  -0.67848  -0.64829  -0.63799
 Alpha  occ. eigenvalues --   -0.62221  -0.60276  -0.57819  -0.57001  -0.55070
 Alpha  occ. eigenvalues --   -0.54551  -0.50756  -0.50126  -0.48659  -0.48089
 Alpha  occ. eigenvalues --   -0.47348  -0.46194  -0.46001  -0.43692  -0.41695
 Alpha  occ. eigenvalues --   -0.39787  -0.33843
 Alpha virt. eigenvalues --    0.07445   0.11708   0.17252   0.21920   0.24266
 Alpha virt. eigenvalues --    0.25721   0.26967   0.28436   0.29072   0.29547
 Alpha virt. eigenvalues --    0.30701   0.31872   0.31996   0.32782   0.33914
 Alpha virt. eigenvalues --    0.34415   0.35856   0.37252   0.38631   0.40334
 Alpha virt. eigenvalues --    0.41374   0.42584   0.45054   0.46115   0.46719
 Alpha virt. eigenvalues --    0.47189   0.49070   0.54032   0.57622   0.59294
 Alpha virt. eigenvalues --    0.64014   0.69622   0.69793   0.72872   0.74240
 Alpha virt. eigenvalues --    0.74984   0.75789   0.76557   0.78670   0.79341
 Alpha virt. eigenvalues --    0.81179   0.84604   0.85535   0.85868   0.88273
 Alpha virt. eigenvalues --    0.89481   0.91037   0.91748   0.92774   0.94403
 Alpha virt. eigenvalues --    0.96055   0.97892   0.99488   1.01524   1.02381
 Alpha virt. eigenvalues --    1.03255   1.05766   1.07166   1.07730   1.08640
 Alpha virt. eigenvalues --    1.10160   1.11674   1.11888   1.12310   1.13809
 Alpha virt. eigenvalues --    1.14718   1.14952   1.15855   1.16952   1.18669
 Alpha virt. eigenvalues --    1.19182   1.21328   1.22525   1.23602   1.24314
 Alpha virt. eigenvalues --    1.25120   1.25944   1.26662   1.27948   1.29419
 Alpha virt. eigenvalues --    1.29788   1.33092   1.35853   1.36991   1.38829
 Alpha virt. eigenvalues --    1.40990   1.44621   1.48358   1.51373   1.53617
 Alpha virt. eigenvalues --    1.57841   1.58633   1.60498   1.63730   1.66531
 Alpha virt. eigenvalues --    1.68568   1.69841   1.72187   1.75291   1.77297
 Alpha virt. eigenvalues --    1.81443   1.84282   1.87766   1.90660   1.93861
 Alpha virt. eigenvalues --    1.96069   1.96656   1.99958   2.01897   2.02346
 Alpha virt. eigenvalues --    2.04541   2.05178   2.08641   2.09618   2.12602
 Alpha virt. eigenvalues --    2.13039   2.15183   2.18494   2.20064   2.22317
 Alpha virt. eigenvalues --    2.23048   2.24566   2.25553   2.28198   2.29595
 Alpha virt. eigenvalues --    2.31673   2.33539   2.34309   2.36339   2.38735
 Alpha virt. eigenvalues --    2.40328   2.41952   2.44069   2.44983   2.47310
 Alpha virt. eigenvalues --    2.50261   2.52015   2.53142   2.55310   2.61619
 Alpha virt. eigenvalues --    2.62196   2.65060   2.67439   2.70156   2.70497
 Alpha virt. eigenvalues --    2.72041   2.72954   2.76491   2.78481   2.84535
 Alpha virt. eigenvalues --    2.88260   2.89150   2.92895   2.93084   2.96056
 Alpha virt. eigenvalues --    2.99314   3.01475   3.04474   3.05876   3.07785
 Alpha virt. eigenvalues --    3.09559   3.15147   3.21081   3.25271   3.27291
 Alpha virt. eigenvalues --    3.33883   3.38037   3.38868   3.51609   3.65234
 Alpha virt. eigenvalues --    4.13755   4.27641   4.33023   4.38894   4.46882
 Alpha virt. eigenvalues --    4.56399   4.61970   4.62336   4.73454   4.80062
 Alpha virt. eigenvalues --    4.99233   5.00898   5.04717   5.11227
          Condensed to atoms (all electrons):
               1          2          3          4          5          6
     1  O    8.314342   0.306991  -0.081917  -0.084168   0.004489  -0.000016
     2  N    0.306991   5.721501   0.298264   0.264804  -0.051620   0.001030
     3  O   -0.081917   0.298264   8.353882  -0.090753   0.002530   0.000793
     4  C   -0.084168   0.264804  -0.090753   5.226953   0.552941  -0.048299
     5  C    0.004489  -0.051620   0.002530   0.552941   4.712297   0.320395
     6  N   -0.000016   0.001030   0.000793  -0.048299   0.320395   7.192742
     7  C    0.000003  -0.000136   0.000001   0.005386  -0.030298   0.168756
     8  H   -0.000000   0.000002  -0.000000  -0.000301   0.003145  -0.050198
     9  C   -0.000000  -0.000003  -0.000000   0.000930   0.000619  -0.061284
    10  C    0.000000   0.000000   0.000000  -0.000041  -0.000054   0.003742
    11  C   -0.000000  -0.000000  -0.000000  -0.000020   0.000021  -0.000190
    12  C    0.000000   0.000002  -0.000000  -0.000174  -0.000123   0.003861
    13  C   -0.000021  -0.000028  -0.000003  -0.011376  -0.000770  -0.048461
    14  H   -0.000003  -0.000101   0.000001   0.002547   0.005965  -0.006996
    15  N    0.000472   0.002167  -0.000016  -0.064844  -0.004724   0.001260
    16  C    0.000010  -0.028062   0.002762   0.328681  -0.052257  -0.002341
    17  H    0.000219  -0.007418   0.016811  -0.022581   0.375662  -0.035326
    18  H    0.000001  -0.000050   0.000011   0.001606  -0.031768   0.338779
    19  H    0.000001  -0.000007   0.000000  -0.001309   0.001289  -0.000436
    20  H    0.000000  -0.000000   0.000000  -0.000078   0.000145  -0.000352
    21  H   -0.000000   0.000000  -0.000000   0.000001   0.000001  -0.000077
    22  H   -0.000000   0.000000  -0.000000  -0.000000  -0.000003  -0.000117
    23  H    0.000000  -0.000000   0.000000   0.000040  -0.000000  -0.000030
    24  H    0.000000   0.000000   0.000000   0.000000  -0.000000   0.000006
    25  H    0.000000  -0.000000   0.000000   0.000023  -0.000001  -0.000091
    26  H    0.000000  -0.000000   0.000000   0.000007  -0.000003  -0.000055
    27  H    0.006981  -0.000759   0.000042  -0.063213   0.002167   0.000013
               7          8          9         10         11         12
     1  O    0.000003  -0.000000  -0.000000   0.000000  -0.000000   0.000000
     2  N   -0.000136   0.000002  -0.000003   0.000000  -0.000000   0.000002
     3  O    0.000001  -0.000000  -0.000000   0.000000  -0.000000  -0.000000
     4  C    0.005386  -0.000301   0.000930  -0.000041  -0.000020  -0.000174
     5  C   -0.030298   0.003145   0.000619  -0.000054   0.000021  -0.000123
     6  N    0.168756  -0.050198  -0.061284   0.003742  -0.000190   0.003861
     7  C    5.021349   0.417815   0.350593  -0.054805  -0.009029  -0.061054
     8  H    0.417815   0.537695  -0.054536   0.000719  -0.000324  -0.002088
     9  C    0.350593  -0.054536   5.156812   0.324855  -0.050352  -0.005357
    10  C   -0.054805   0.000719   0.324855   5.119513   0.336975  -0.060993
    11  C   -0.009029  -0.000324  -0.050352   0.336975   5.119792   0.336014
    12  C   -0.061054  -0.002088  -0.005357  -0.060993   0.336014   5.118668
    13  C    0.338094  -0.037842  -0.060549  -0.000166  -0.050667   0.371788
    14  H   -0.046793  -0.000695   0.004417  -0.000406   0.004201  -0.036388
    15  N   -0.057983   0.003907  -0.014758   0.001533  -0.013029  -0.082166
    16  C   -0.002252   0.000030  -0.001326  -0.000030   0.000004   0.002662
    17  H    0.001687  -0.000044  -0.000065   0.000001   0.000000   0.000000
    18  H   -0.021434  -0.004686   0.001467  -0.000085   0.000004  -0.000115
    19  H   -0.036921   0.004343   0.390520  -0.032079  -0.002206   0.000695
    20  H   -0.042430  -0.002096   0.399527  -0.035287   0.003926  -0.000418
    21  H    0.004608  -0.000075  -0.036347   0.402448  -0.034880   0.004348
    22  H   -0.004850   0.003557  -0.046982   0.397728  -0.045455  -0.001009
    23  H    0.000588   0.000034  -0.001954  -0.038989   0.399169  -0.037831
    24  H   -0.000128  -0.000102   0.004383  -0.038423   0.402344  -0.038717
    25  H    0.005138  -0.000029  -0.000422   0.004188  -0.033379   0.398199
    26  H   -0.003876   0.001664   0.000974  -0.002232  -0.041515   0.396680
    27  H   -0.000407   0.000009  -0.000057   0.000007   0.000011  -0.000033
              13         14         15         16         17         18
     1  O   -0.000021  -0.000003   0.000472   0.000010   0.000219   0.000001
     2  N   -0.000028  -0.000101   0.002167  -0.028062  -0.007418  -0.000050
     3  O   -0.000003   0.000001  -0.000016   0.002762   0.016811   0.000011
     4  C   -0.011376   0.002547  -0.064844   0.328681  -0.022581   0.001606
     5  C   -0.000770   0.005965  -0.004724  -0.052257   0.375662  -0.031768
     6  N   -0.048461  -0.006996   0.001260  -0.002341  -0.035326   0.338779
     7  C    0.338094  -0.046793  -0.057983  -0.002252   0.001687  -0.021434
     8  H   -0.037842  -0.000695   0.003907   0.000030  -0.000044  -0.004686
     9  C   -0.060549   0.004417  -0.014758  -0.001326  -0.000065   0.001467
    10  C   -0.000166  -0.000406   0.001533  -0.000030   0.000001  -0.000085
    11  C   -0.050667   0.004201  -0.013029   0.000004   0.000000   0.000004
    12  C    0.371788  -0.036388  -0.082166   0.002662   0.000000  -0.000115
    13  C    5.039904   0.403196   0.245468  -0.070807  -0.000048   0.002958
    14  H    0.403196   0.527917  -0.037531  -0.004341   0.000090  -0.000114
    15  N    0.245468  -0.037531   6.967444   0.583310  -0.000071  -0.000135
    16  C   -0.070807  -0.004341   0.583310   4.725117   0.002245  -0.000204
    17  H   -0.000048   0.000090  -0.000071   0.002245   0.380307  -0.002957
    18  H    0.002958  -0.000114  -0.000135  -0.000204  -0.002957   0.310882
    19  H   -0.007466   0.000107   0.007643   0.003088   0.000017  -0.000152
    20  H    0.004346  -0.000065   0.000132  -0.000037   0.000000   0.000719
    21  H   -0.000434   0.000010  -0.000040   0.000004  -0.000000   0.000001
    22  H    0.000036  -0.000055   0.000019  -0.000002   0.000000   0.000001
    23  H   -0.007552   0.000003   0.008611   0.000099   0.000000   0.000000
    24  H    0.004702  -0.000057   0.000136   0.000007   0.000000  -0.000000
    25  H   -0.035476  -0.002798   0.000381  -0.000028  -0.000000   0.000002
    26  H   -0.047475  -0.001042   0.004910  -0.000061   0.000000  -0.000000
    27  H    0.004991  -0.000174  -0.040123   0.403556  -0.000077   0.000001
              19         20         21         22         23         24
     1  O    0.000001   0.000000  -0.000000  -0.000000   0.000000   0.000000
     2  N   -0.000007  -0.000000   0.000000   0.000000  -0.000000   0.000000
     3  O    0.000000   0.000000  -0.000000  -0.000000   0.000000   0.000000
     4  C   -0.001309  -0.000078   0.000001  -0.000000   0.000040   0.000000
     5  C    0.001289   0.000145   0.000001  -0.000003  -0.000000  -0.000000
     6  N   -0.000436  -0.000352  -0.000077  -0.000117  -0.000030   0.000006
     7  C   -0.036921  -0.042430   0.004608  -0.004850   0.000588  -0.000128
     8  H    0.004343  -0.002096  -0.000075   0.003557   0.000034  -0.000102
     9  C    0.390520   0.399527  -0.036347  -0.046982  -0.001954   0.004383
    10  C   -0.032079  -0.035287   0.402448   0.397728  -0.038989  -0.038423
    11  C   -0.002206   0.003926  -0.034880  -0.045455   0.399169   0.402344
    12  C    0.000695  -0.000418   0.004348  -0.001009  -0.037831  -0.038717
    13  C   -0.007466   0.004346  -0.000434   0.000036  -0.007552   0.004702
    14  H    0.000107  -0.000065   0.000010  -0.000055   0.000003  -0.000057
    15  N    0.007643   0.000132  -0.000040   0.000019   0.008611   0.000136
    16  C    0.003088  -0.000037   0.000004  -0.000002   0.000099   0.000007
    17  H    0.000017   0.000000  -0.000000   0.000000   0.000000   0.000000
    18  H   -0.000152   0.000719   0.000001   0.000001   0.000000  -0.000000
    19  H    0.504165  -0.024662  -0.002790   0.003958   0.001509  -0.000067
    20  H   -0.024662   0.540467  -0.002687  -0.002996  -0.000045  -0.000083
    21  H   -0.002790  -0.002687   0.523842  -0.027398  -0.002895  -0.002238
    22  H    0.003958  -0.002996  -0.027398   0.571593   0.004137  -0.003659
    23  H    0.001509  -0.000045  -0.002895   0.004137   0.498767  -0.025469
    24  H   -0.000067  -0.000083  -0.002238  -0.003659  -0.025469   0.538216
    25  H   -0.000029   0.000012  -0.000087  -0.000080  -0.002319  -0.002287
    26  H    0.000019  -0.000030  -0.000081   0.002383   0.004071  -0.003044
    27  H    0.000084   0.000000  -0.000000   0.000000  -0.000037  -0.000000
              25         26         27
     1  O    0.000000   0.000000   0.006981
     2  N   -0.000000  -0.000000  -0.000759
     3  O    0.000000   0.000000   0.000042
     4  C    0.000023   0.000007  -0.063213
     5  C   -0.000001  -0.000003   0.002167
     6  N   -0.000091  -0.000055   0.000013
     7  C    0.005138  -0.003876  -0.000407
     8  H   -0.000029   0.001664   0.000009
     9  C   -0.000422   0.000974  -0.000057
    10  C    0.004188  -0.002232   0.000007
    11  C   -0.033379  -0.041515   0.000011
    12  C    0.398199   0.396680  -0.000033
    13  C   -0.035476  -0.047475   0.004991
    14  H   -0.002798  -0.001042  -0.000174
    15  N    0.000381   0.004910  -0.040123
    16  C   -0.000028  -0.000061   0.403556
    17  H   -0.000000   0.000000  -0.000077
    18  H    0.000002  -0.000000   0.000001
    19  H   -0.000029   0.000019   0.000084
    20  H    0.000012  -0.000030   0.000000
    21  H   -0.000087  -0.000081  -0.000000
    22  H   -0.000080   0.002383   0.000000
    23  H   -0.002319   0.004071  -0.000037
    24  H   -0.002287  -0.003044  -0.000000
    25  H    0.506408  -0.024134  -0.000012
    26  H   -0.024134   0.562807   0.000001
    27  H   -0.000012   0.000001   0.433964
 Mulliken charges:
               1
     1  O   -0.467385
     2  N    0.493422
     3  O   -0.502409
     4  C    0.003238
     5  C    0.189954
     6  N   -0.777109
     7  C    0.058374
     8  H    0.180095
     9  C   -0.301105
    10  C   -0.328120
    11  C   -0.321416
    12  C   -0.306453
    13  C   -0.036340
    14  H    0.189104
    15  N   -0.511973
    16  C    0.110175
    17  H    0.291548
    18  H    0.405269
    19  H    0.190688
    20  H    0.161989
    21  H    0.174764
    22  H    0.149197
    23  H    0.200093
    24  H    0.164479
    25  H    0.186819
    26  H    0.150034
    27  H    0.253066
 Sum of Mulliken charges =  -0.00000
 Mulliken charges with hydrogens summed into heavy atoms:
               1
     1  O   -0.467385
     2  N    0.493422
     3  O   -0.502409
     4  C    0.003238
     5  C    0.481502
     6  N   -0.371840
     7  C    0.238469
     9  C    0.051572
    10  C   -0.004159
    11  C    0.043156
    12  C    0.030400
    13  C    0.152765
    15  N   -0.511973
    16  C    0.363241
 Electronic spatial extent (au):  <R**2>=           3006.3284
 Charge=             -0.0000 electrons
 Dipole moment (field-independent basis, Debye):
    X=              5.4142    Y=              4.7334    Z=              1.5427  Tot=              7.3551
 Quadrupole moment (field-independent basis, Debye-Ang):
   XX=           -106.0975   YY=            -79.1559   ZZ=            -81.6378
   XY=             -1.4371   XZ=             -1.1974   YZ=              1.8605
 Traceless Quadrupole moment (field-independent basis, Debye-Ang):
   XX=            -17.1338   YY=              9.8078   ZZ=              7.3259
   XY=             -1.4371   XZ=             -1.1974   YZ=              1.8605
 Octapole moment (field-independent basis, Debye-Ang**2):
  XXX=             91.9742  YYY=             34.7009  ZZZ=              0.3526  XYY=             -5.0614
  XXY=              8.1546  XXZ=              9.5973  XZZ=             -8.9539  YZZ=              0.2192
  YYZ=              9.5708  XYZ=              0.9866
 Hexadecapole moment (field-independent basis, Debye-Ang**3):
 XXXX=          -3378.8315 YYYY=           -596.3920 ZZZZ=           -311.7526 XXXY=            -11.6117
 XXXZ=            -41.9183 YYYX=             -1.8980 YYYZ=             24.0719 ZZZX=            -10.8828
 ZZZY=              4.7391 XXYY=           -625.0263 XXZZ=           -527.9661 YYZZ=           -157.2759
 XXYZ=             -7.5541 YYXZ=             -4.9417 ZZXY=              4.2190
 N-N= 9.311070083628D+02 E-N=-3.408928421237D+03  KE= 6.596268509208D+02
 Unable to Open any file for archive entry.
 1\1\GINC-LOTUS\FOpt\RMP2-FC\6-31G(d)\C9H13N3O2\ALEXEY\02-Jul-2023\0\\#
 MP2/6-31G* SCF=Tight Opt=(ModRedun, MaxCycle=20 ) NoSymm\\MolName:\\0,
 1\O,-3.5086708722,-1.3497005779,-0.5211770638\N,-3.1207104314,-0.21623
 40891,-0.1784156036\O,-3.8902364472,0.7468434458,0.0052307392\C,-1.691
 5261212,-0.0380650496,0.0368734614\C,-1.3031990713,1.2534933323,0.2917
 431705\N,-0.0591218028,1.7453767036,0.3932605784\C,1.2072663594,1.0247
 402519,0.3589883133\H,1.8599353664,1.5648843692,1.0612913973\C,1.89576
 60368,1.0237364373,-1.0042956745\C,3.2973156179,0.4219981953,-0.849078
 917\C,3.2599403006,-0.9678033957,-0.2078281218\C,2.4792510527,-0.96738
 71002,1.1082854279\C,1.0657381126,-0.4192038109,0.8817032479\H,0.49898
 49016,-0.3893787093,1.8259150732\N,0.4114492864,-1.3198049146,-0.06057
 1473\C,-0.839178667,-1.1467378193,-0.3472533479\H,-2.0942050004,1.9659
 810047,0.5089594367\H,-0.003353853,2.7256220235,0.6438662524\H,1.29545
 6662,0.4374359145,-1.7080727805\H,1.9549177158,2.0479607465,-1.3928836
 795\H,3.7907944594,0.3752164456,-1.8265875198\H,3.9023010266,1.0962613
 121,-0.2262139352\H,2.7765724483,-1.6728114872,-0.8913524897\H,4.28196
 21821,-1.3268371057,-0.0381510641\H,2.4008706354,-1.985608627,1.503356
 6009\H,2.9960614481,-0.3605593184,1.8646485352\H,-1.3014013454,-1.9074
 081775,-0.9752405639\\Version=ES64L-G16RevC.02\HF=-661.2991612\MP2=-66
 3.3338316\RMSD=6.553e-09\RMSF=1.382e-03\Dipole=1.9799705,1.671586,0.56
 24056\PG=C01 [X(C9H13N3O2)]\\@
 The archive entry for this job was punched.


 IT PROBABLY IS NOT POSSIBLE FOR A SCIENTIST TO INTERROGATE NATURE 
 FROM A WHOLLY DISINTERESTED VIEWPOINT.
 EVEN IF HE HAS NO PARTICULAR AXE TO GRIND, HE IS LIKELY TO HAVE 
 A DISTINCTIVE WAY OF VIEWING NATURE.

                                                   -- JOHN LOSEE
 Job cpu time:       0 days  1 hours 16 minutes 10.8 seconds.
 Elapsed time:       0 days  0 hours 22 minutes 48.9 seconds.
 File lengths (MBytes):  RWF=     36 Int=      0 D2E=      0 Chk=      7 Scr=      1
 Normal termination of Gaussian 16 at Sun Jul  2 00:06:24 2023.
