 Entering Gaussian System, Link 0=g16
 Initial command:
 /home/alexey/programs//g16/l1.exe "/home/alexey/tmp/Gau-1412697.inp" -scrdir="/home/alexey/tmp/"
 Entering Link 1 = /home/alexey/programs//g16/l1.exe PID=   1412699.
  
 Copyright (c) 1988-2021, Gaussian, Inc.  All Rights Reserved.
  
 This is part of the Gaussian(R) 16 program.  It is based on
 the Gaussian(R) 09 system (copyright 2009, Gaussian, Inc.),
 the Gaussian(R) 03 system (copyright 2003, Gaussian, Inc.),
 the Gaussian(R) 98 system (copyright 1998, Gaussian, Inc.),
 the Gaussian(R) 94 system (copyright 1995, Gaussian, Inc.),
 the Gaussian 92(TM) system (copyright 1992, Gaussian, Inc.),
 the Gaussian 90(TM) system (copyright 1990, Gaussian, Inc.),
 the Gaussian 88(TM) system (copyright 1988, Gaussian, Inc.),
 the Gaussian 86(TM) system (copyright 1986, Carnegie Mellon
 University), and the Gaussian 82(TM) system (copyright 1983,
 Carnegie Mellon University). Gaussian is a federally registered
 trademark of Gaussian, Inc.
  
 This software contains proprietary and confidential information,
 including trade secrets, belonging to Gaussian, Inc.
  
 This software is provided under written license and may be
 used, copied, transmitted, or stored only in accord with that
 written license.
  
 The following legend is applicable only to US Government
 contracts under FAR:
  
                    RESTRICTED RIGHTS LEGEND
  
 Use, reproduction and disclosure by the US Government is
 subject to restrictions as set forth in subparagraphs (a)
 and (c) of the Commercial Computer Software - Restricted
 Rights clause in FAR 52.227-19.
  
 Gaussian, Inc.
 340 Quinnipiac St., Bldg. 40, Wallingford CT 06492
  
  
 ---------------------------------------------------------------
 Warning -- This program may not be used in any manner that
 competes with the business of Gaussian, Inc. or will provide
 assistance to any competitor of Gaussian, Inc.  The licensee
 of this program is prohibited from giving any competitor of
 Gaussian, Inc. access to this program.  By using this program,
 the user acknowledges that Gaussian, Inc. is engaged in the
 business of creating and licensing software in the field of
 computational chemistry and represents and warrants to the
 licensee that it is not a competitor of Gaussian, Inc. and that
 it will not use this program in any manner prohibited above.
 ---------------------------------------------------------------
  

 Cite this work as:
 Gaussian 16, Revision C.02,
 M. J. Frisch, G. W. Trucks, H. B. Schlegel, G. E. Scuseria, 
 M. A. Robb, J. R. Cheeseman, G. Scalmani, V. Barone, 
 G. A. Petersson, H. Nakatsuji, X. Li, M. Caricato, A. V. Marenich, 
 J. Bloino, B. G. Janesko, R. Gomperts, B. Mennucci, H. P. Hratchian, 
 J. V. Ortiz, A. F. Izmaylov, J. L. Sonnenberg, D. Williams-Young, 
 F. Ding, F. Lipparini, F. Egidi, J. Goings, B. Peng, A. Petrone, 
 T. Henderson, D. Ranasinghe, V. G. Zakrzewski, J. Gao, N. Rega, 
 G. Zheng, W. Liang, M. Hada, M. Ehara, K. Toyota, R. Fukuda, 
 J. Hasegawa, M. Ishida, T. Nakajima, Y. Honda, O. Kitao, H. Nakai, 
 T. Vreven, K. Throssell, J. A. Montgomery, Jr., J. E. Peralta, 
 F. Ogliaro, M. J. Bearpark, J. J. Heyd, E. N. Brothers, K. N. Kudin, 
 V. N. Staroverov, T. A. Keith, R. Kobayashi, J. Normand, 
 K. Raghavachari, A. P. Rendell, J. C. Burant, S. S. Iyengar, 
 J. Tomasi, M. Cossi, J. M. Millam, M. Klene, C. Adamo, R. Cammi, 
 J. W. Ochterski, R. L. Martin, K. Morokuma, O. Farkas, 
 J. B. Foresman, and D. J. Fox, Gaussian, Inc., Wallingford CT, 2019.
 
 ******************************************
 Gaussian 16:  ES64L-G16RevC.02  7-Dec-2021
                 2-Jul-2023 
 ******************************************
 %mem=8GB
 %NPROCS=4
 Will use up to    4 processors via shared memory.
 %NoSave
 ---------------------------------------------------------
 #MP2/6-31G* SCF=Tight Opt=(ModRedun, MaxCycle=20 ) NoSymm
 ---------------------------------------------------------
 1/6=20,18=120,19=15,38=1/1,3;
 2/9=110,12=2,15=1,17=6,18=5,40=1/2;
 3/5=1,6=6,7=1,11=9,25=1,30=1,71=1/1,2,3;
 4//1;
 5/5=2,32=2,38=5/2;
 8/6=4,10=2/1;
 9/15=2,16=-3/6;
 10/5=1,31=1/2;
 6/7=2,8=2,9=2,10=2/1;
 7/12=2,30=1/1,2,3,16;
 1/6=20,18=20,19=15/3(2);
 2/9=110,15=1/2;
 99//99;
 2/9=110,15=1/2;
 3/5=1,6=6,7=1,11=9,25=1,30=1,71=1/1,2,3;
 4/5=5,16=3,69=1/1;
 5/5=2,32=2,38=5/2;
 8/6=4,10=2/1;
 9/15=2,16=-3/6;
 10/5=1,31=1/2;
 7/12=2,30=1/1,2,3,16;
 1/6=20,18=20,19=15/3(-8);
 2/9=110,15=1/2;
 6/7=2,8=2,9=2,10=2/1;
 99/9=10/99;
 --------
 MolName:
 --------
 Symbolic Z-matrix:
 Charge =  0 Multiplicity = 1
 8                    0    -3.64155  -1.35109  -0.49987 
 7                    0    -3.26499  -0.23625  -0.1426 
 8                    0    -4.03231   0.69275   0.11333 
 6                    0    -1.76415  -0.01937   0.04745 
 6                    0    -1.36979   1.27637   0.40257 
 7                    0    -0.08899   1.76361   0.35527 
 6                    0     1.19559   0.99936   0.33813 
 1                    0     1.85842   1.51859   1.07831 
 6                    0     1.95641   1.02536  -1.01063 
 6                    0     3.3712    0.44886  -0.81287 
 6                    0     3.31633  -0.95458  -0.18892 
 6                    0     2.47139  -0.965     1.10354 
 6                    0     1.03134  -0.43857   0.85402 
 1                    0     0.491    -0.46032   1.82934 
 7                    0     0.37394  -1.32746  -0.10706 
 6                    0    -0.86984  -1.12405  -0.39964 
 1                    0    -2.11353   1.93321   0.88301 
 1                    0     0.10996   2.72584   0.07059 
 1                    0     1.40744   0.43037  -1.77131 
 1                    0     2.03789   2.06807  -1.38456 
 1                    0     3.90351   0.40665  -1.78829 
 1                    0     3.9474    1.11928  -0.1367 
 1                    0     2.86919  -1.66078  -0.92457 
 1                    0     4.34619  -1.31025   0.03257 
 1                    0     2.4181   -2.00385   1.49681 
 1                    0     2.96673  -0.33678   1.87337 
 1                    0    -1.36389  -1.85895  -1.05332 
 
 The following ModRedundant input section has been read:
 D       2       4       5      17 F                                           
 D       1       2       4      16 F                                           
 D       7      13      15      16 F                                           
 D       7       9      10      11 F                                           
 D       9      10      11      12 F                                           
 D       6       7      13      15 F                                           
 

 GradGradGradGradGradGradGradGradGradGradGradGradGradGradGradGradGradGrad
 Berny optimization.
 Initialization pass.
                           ----------------------------
                           !    Initial Parameters    !
                           ! (Angstroms and Degrees)  !
 --------------------------                            --------------------------
 ! Name  Definition              Value          Derivative Info.                !
 --------------------------------------------------------------------------------
 ! R1    R(1,2)                  1.2298         estimate D2E/DX2                !
 ! R2    R(2,3)                  1.2318         estimate D2E/DX2                !
 ! R3    R(2,4)                  1.5283         estimate D2E/DX2                !
 ! R4    R(4,5)                  1.4002         estimate D2E/DX2                !
 ! R5    R(4,16)                 1.49           estimate D2E/DX2                !
 ! R6    R(5,6)                  1.3712         estimate D2E/DX2                !
 ! R7    R(5,17)                 1.1025         estimate D2E/DX2                !
 ! R8    R(6,7)                  1.4948         estimate D2E/DX2                !
 ! R9    R(6,18)                 1.023          estimate D2E/DX2                !
 ! R10   R(7,8)                  1.1211         estimate D2E/DX2                !
 ! R11   R(7,9)                  1.5488         estimate D2E/DX2                !
 ! R12   R(7,13)                 1.5365         estimate D2E/DX2                !
 ! R13   R(9,10)                 1.5405         estimate D2E/DX2                !
 ! R14   R(9,19)                 1.1109         estimate D2E/DX2                !
 ! R15   R(9,20)                 1.1107         estimate D2E/DX2                !
 ! R16   R(10,11)                1.5369         estimate D2E/DX2                !
 ! R17   R(10,21)                1.112          estimate D2E/DX2                !
 ! R18   R(10,22)                1.113          estimate D2E/DX2                !
 ! R19   R(11,12)                1.5442         estimate D2E/DX2                !
 ! R20   R(11,23)                1.1135         estimate D2E/DX2                !
 ! R21   R(11,24)                1.1118         estimate D2E/DX2                !
 ! R22   R(12,13)                1.5534         estimate D2E/DX2                !
 ! R23   R(12,25)                1.1121         estimate D2E/DX2                !
 ! R24   R(12,26)                1.1103         estimate D2E/DX2                !
 ! R25   R(13,14)                1.1152         estimate D2E/DX2                !
 ! R26   R(13,15)                1.4649         estimate D2E/DX2                !
 ! R27   R(15,16)                1.2938         estimate D2E/DX2                !
 ! R28   R(16,27)                1.1007         estimate D2E/DX2                !
 ! A1    A(1,2,3)              123.5953         estimate D2E/DX2                !
 ! A2    A(1,2,4)              117.7414         estimate D2E/DX2                !
 ! A3    A(3,2,4)              118.612          estimate D2E/DX2                !
 ! A4    A(2,4,5)              116.0686         estimate D2E/DX2                !
 ! A5    A(2,4,16)             116.5457         estimate D2E/DX2                !
 ! A6    A(5,4,16)             126.3811         estimate D2E/DX2                !
 ! A7    A(4,5,6)              125.6739         estimate D2E/DX2                !
 ! A8    A(4,5,17)             118.1556         estimate D2E/DX2                !
 ! A9    A(6,5,17)             115.6886         estimate D2E/DX2                !
 ! A10   A(5,6,7)              128.421          estimate D2E/DX2                !
 ! A11   A(5,6,18)             121.7022         estimate D2E/DX2                !
 ! A12   A(7,6,18)             108.0942         estimate D2E/DX2                !
 ! A13   A(6,7,8)              105.291          estimate D2E/DX2                !
 ! A14   A(6,7,9)              115.059          estimate D2E/DX2                !
 ! A15   A(6,7,13)             112.5045         estimate D2E/DX2                !
 ! A16   A(8,7,9)              106.0668         estimate D2E/DX2                !
 ! A17   A(8,7,13)             105.9601         estimate D2E/DX2                !
 ! A18   A(9,7,13)             111.1387         estimate D2E/DX2                !
 ! A19   A(7,9,10)             109.4559         estimate D2E/DX2                !
 ! A20   A(7,9,19)             110.1561         estimate D2E/DX2                !
 ! A21   A(7,9,20)             110.1803         estimate D2E/DX2                !
 ! A22   A(10,9,19)            109.9576         estimate D2E/DX2                !
 ! A23   A(10,9,20)            109.0967         estimate D2E/DX2                !
 ! A24   A(19,9,20)            107.971          estimate D2E/DX2                !
 ! A25   A(9,10,11)            111.166          estimate D2E/DX2                !
 ! A26   A(9,10,21)            109.9518         estimate D2E/DX2                !
 ! A27   A(9,10,22)            109.1499         estimate D2E/DX2                !
 ! A28   A(11,10,21)           109.7883         estimate D2E/DX2                !
 ! A29   A(11,10,22)           108.7783         estimate D2E/DX2                !
 ! A30   A(21,10,22)           107.9359         estimate D2E/DX2                !
 ! A31   A(10,11,12)           111.4387         estimate D2E/DX2                !
 ! A32   A(10,11,23)           108.9823         estimate D2E/DX2                !
 ! A33   A(10,11,24)           109.8726         estimate D2E/DX2                !
 ! A34   A(12,11,23)           109.2062         estimate D2E/DX2                !
 ! A35   A(12,11,24)           109.7514         estimate D2E/DX2                !
 ! A36   A(23,11,24)           107.4992         estimate D2E/DX2                !
 ! A37   A(11,12,13)           111.7473         estimate D2E/DX2                !
 ! A38   A(11,12,25)           109.1786         estimate D2E/DX2                !
 ! A39   A(11,12,26)           109.4152         estimate D2E/DX2                !
 ! A40   A(13,12,25)           109.2051         estimate D2E/DX2                !
 ! A41   A(13,12,26)           109.4638         estimate D2E/DX2                !
 ! A42   A(25,12,26)           107.7432         estimate D2E/DX2                !
 ! A43   A(7,13,12)            105.7822         estimate D2E/DX2                !
 ! A44   A(7,13,14)            111.3271         estimate D2E/DX2                !
 ! A45   A(7,13,15)            113.3009         estimate D2E/DX2                !
 ! A46   A(12,13,14)           107.582          estimate D2E/DX2                !
 ! A47   A(12,13,15)           108.4068         estimate D2E/DX2                !
 ! A48   A(14,13,15)           110.1514         estimate D2E/DX2                !
 ! A49   A(13,15,16)           118.9713         estimate D2E/DX2                !
 ! A50   A(4,16,15)            128.7346         estimate D2E/DX2                !
 ! A51   A(4,16,27)            113.8174         estimate D2E/DX2                !
 ! A52   A(15,16,27)           117.441          estimate D2E/DX2                !
 ! D1    D(1,2,4,5)            177.5381         estimate D2E/DX2                !
 ! D2    D(1,2,4,16)             8.2584         Frozen                          !
 ! D3    D(3,2,4,5)             -4.9724         estimate D2E/DX2                !
 ! D4    D(3,2,4,16)          -174.2521         estimate D2E/DX2                !
 ! D5    D(2,4,5,6)           -165.7271         estimate D2E/DX2                !
 ! D6    D(2,4,5,17)            22.6072         Frozen                          !
 ! D7    D(16,4,5,6)             2.3445         estimate D2E/DX2                !
 ! D8    D(16,4,5,17)         -169.3213         estimate D2E/DX2                !
 ! D9    D(2,4,16,15)         -163.8349         estimate D2E/DX2                !
 ! D10   D(2,4,16,27)           15.1685         estimate D2E/DX2                !
 ! D11   D(5,4,16,15)           28.1435         estimate D2E/DX2                !
 ! D12   D(5,4,16,27)         -152.8531         estimate D2E/DX2                !
 ! D13   D(4,5,6,7)            -20.4342         estimate D2E/DX2                !
 ! D14   D(4,5,6,18)           142.4794         estimate D2E/DX2                !
 ! D15   D(17,5,6,7)           151.4131         estimate D2E/DX2                !
 ! D16   D(17,5,6,18)          -45.6733         estimate D2E/DX2                !
 ! D17   D(5,6,7,8)           -134.5532         estimate D2E/DX2                !
 ! D18   D(5,6,7,9)            109.0516         estimate D2E/DX2                !
 ! D19   D(5,6,7,13)           -19.6032         estimate D2E/DX2                !
 ! D20   D(18,6,7,8)            60.6936         estimate D2E/DX2                !
 ! D21   D(18,6,7,9)           -55.7016         estimate D2E/DX2                !
 ! D22   D(18,6,7,13)          175.6437         estimate D2E/DX2                !
 ! D23   D(6,7,9,10)           168.8466         estimate D2E/DX2                !
 ! D24   D(6,7,9,19)           -70.1375         estimate D2E/DX2                !
 ! D25   D(6,7,9,20)            48.8795         estimate D2E/DX2                !
 ! D26   D(8,7,9,10)            52.8945         estimate D2E/DX2                !
 ! D27   D(8,7,9,19)           173.9104         estimate D2E/DX2                !
 ! D28   D(8,7,9,20)           -67.0726         estimate D2E/DX2                !
 ! D29   D(13,7,9,10)          -61.823          estimate D2E/DX2                !
 ! D30   D(13,7,9,19)           59.1928         estimate D2E/DX2                !
 ! D31   D(13,7,9,20)          178.2098         estimate D2E/DX2                !
 ! D32   D(6,7,13,12)         -166.3583         estimate D2E/DX2                !
 ! D33   D(6,7,13,14)          -49.7858         estimate D2E/DX2                !
 ! D34   D(6,7,13,15)           75.0217         Frozen                          !
 ! D35   D(8,7,13,12)          -51.8143         estimate D2E/DX2                !
 ! D36   D(8,7,13,14)           64.7582         estimate D2E/DX2                !
 ! D37   D(8,7,13,15)         -170.4342         estimate D2E/DX2                !
 ! D38   D(9,7,13,12)           62.9697         estimate D2E/DX2                !
 ! D39   D(9,7,13,14)          179.5422         estimate D2E/DX2                !
 ! D40   D(9,7,13,15)          -55.6502         estimate D2E/DX2                !
 ! D41   D(7,9,10,11)           54.8125         Frozen                          !
 ! D42   D(7,9,10,21)          176.6003         estimate D2E/DX2                !
 ! D43   D(7,9,10,22)          -65.179          estimate D2E/DX2                !
 ! D44   D(19,9,10,11)         -66.3237         estimate D2E/DX2                !
 ! D45   D(19,9,10,21)          55.4642         estimate D2E/DX2                !
 ! D46   D(19,9,10,22)         173.6848         estimate D2E/DX2                !
 ! D47   D(20,9,10,11)         175.4414         estimate D2E/DX2                !
 ! D48   D(20,9,10,21)         -62.7708         estimate D2E/DX2                !
 ! D49   D(20,9,10,22)          55.4499         estimate D2E/DX2                !
 ! D50   D(9,10,11,12)         -52.8224         Frozen                          !
 ! D51   D(9,10,11,23)          67.7629         estimate D2E/DX2                !
 ! D52   D(9,10,11,24)        -174.6916         estimate D2E/DX2                !
 ! D53   D(21,10,11,12)       -174.7054         estimate D2E/DX2                !
 ! D54   D(21,10,11,23)        -54.1201         estimate D2E/DX2                !
 ! D55   D(21,10,11,24)         63.4253         estimate D2E/DX2                !
 ! D56   D(22,10,11,12)         67.3894         estimate D2E/DX2                !
 ! D57   D(22,10,11,23)       -172.0253         estimate D2E/DX2                !
 ! D58   D(22,10,11,24)        -54.4799         estimate D2E/DX2                !
 ! D59   D(10,11,12,13)         56.5144         estimate D2E/DX2                !
 ! D60   D(10,11,12,25)        177.426          estimate D2E/DX2                !
 ! D61   D(10,11,12,26)        -64.883          estimate D2E/DX2                !
 ! D62   D(23,11,12,13)        -63.9394         estimate D2E/DX2                !
 ! D63   D(23,11,12,25)         56.9722         estimate D2E/DX2                !
 ! D64   D(23,11,12,26)        174.6632         estimate D2E/DX2                !
 ! D65   D(24,11,12,13)        178.4538         estimate D2E/DX2                !
 ! D66   D(24,11,12,25)        -60.6347         estimate D2E/DX2                !
 ! D67   D(24,11,12,26)         57.0564         estimate D2E/DX2                !
 ! D68   D(11,12,13,7)         -60.0219         estimate D2E/DX2                !
 ! D69   D(11,12,13,14)       -179.1012         estimate D2E/DX2                !
 ! D70   D(11,12,13,15)         61.7997         estimate D2E/DX2                !
 ! D71   D(25,12,13,7)         179.0819         estimate D2E/DX2                !
 ! D72   D(25,12,13,14)         60.0027         estimate D2E/DX2                !
 ! D73   D(25,12,13,15)        -59.0964         estimate D2E/DX2                !
 ! D74   D(26,12,13,7)          61.3474         estimate D2E/DX2                !
 ! D75   D(26,12,13,14)        -57.7319         estimate D2E/DX2                !
 ! D76   D(26,12,13,15)       -176.831          estimate D2E/DX2                !
 ! D77   D(7,13,15,16)         -67.1598         Frozen                          !
 ! D78   D(12,13,15,16)        175.7477         estimate D2E/DX2                !
 ! D79   D(14,13,15,16)         58.2807         estimate D2E/DX2                !
 ! D80   D(13,15,16,4)           4.3606         estimate D2E/DX2                !
 ! D81   D(13,15,16,27)       -174.6121         estimate D2E/DX2                !
 --------------------------------------------------------------------------------
 Trust Radius=3.00D-01 FncErr=1.00D-07 GrdErr=1.00D-07 EigMax=2.50D+02 EigMin=1.00D-04
 Number of steps in this run=     20 maximum allowed number of steps=    162.
 GradGradGradGradGradGradGradGradGradGradGradGradGradGradGradGradGradGrad

                          Input orientation:                          
 ---------------------------------------------------------------------
 Center     Atomic      Atomic             Coordinates (Angstroms)
 Number     Number       Type             X           Y           Z
 ---------------------------------------------------------------------
      1          8           0       -3.641550   -1.351090   -0.499870
      2          7           0       -3.264990   -0.236250   -0.142600
      3          8           0       -4.032310    0.692750    0.113330
      4          6           0       -1.764150   -0.019370    0.047450
      5          6           0       -1.369790    1.276370    0.402570
      6          7           0       -0.088990    1.763610    0.355270
      7          6           0        1.195590    0.999360    0.338130
      8          1           0        1.858420    1.518590    1.078310
      9          6           0        1.956410    1.025360   -1.010630
     10          6           0        3.371200    0.448860   -0.812870
     11          6           0        3.316330   -0.954580   -0.188920
     12          6           0        2.471390   -0.965000    1.103540
     13          6           0        1.031340   -0.438570    0.854020
     14          1           0        0.491000   -0.460320    1.829340
     15          7           0        0.373940   -1.327460   -0.107060
     16          6           0       -0.869840   -1.124050   -0.399640
     17          1           0       -2.113530    1.933210    0.883010
     18          1           0        0.109960    2.725840    0.070590
     19          1           0        1.407440    0.430370   -1.771310
     20          1           0        2.037890    2.068070   -1.384560
     21          1           0        3.903510    0.406650   -1.788290
     22          1           0        3.947400    1.119280   -0.136700
     23          1           0        2.869190   -1.660780   -0.924570
     24          1           0        4.346190   -1.310250    0.032570
     25          1           0        2.418100   -2.003850    1.496810
     26          1           0        2.966730   -0.336780    1.873370
     27          1           0       -1.363890   -1.858950   -1.053320
 ---------------------------------------------------------------------
                    Distance matrix (angstroms):
                    1          2          3          4          5
     1  O    0.000000
     2  N    1.229759   0.000000
     3  O    2.169329   1.231796   0.000000
     4  C    2.365939   1.528292   2.378236   0.000000
     5  C    3.588710   2.485360   2.741037   1.400204   0.000000
     6  N    4.801386   3.786065   4.093293   2.465752   1.371163
     7  C    5.442865   4.653451   5.241706   3.143623   2.581097
     8  H    6.401202   5.551524   6.026101   4.068293   3.307058
     9  C    6.102913   5.441338   6.102351   4.006690   3.622671
    10  C    7.246824   6.705047   7.465205   5.227926   4.963774
    11  C    6.976102   6.620568   7.537079   5.171244   5.223669
    12  C    6.331510   5.915234   6.784303   4.466469   4.502195
    13  C    4.949910   4.415047   5.241093   2.939566   2.985004
    14  H    4.826661   4.248084   4.973389   2.907795   2.917928
    15  N    4.034727   3.799186   4.852305   2.511255   3.174941
    16  C    2.782799   2.567295   3.683085   1.489966   2.579827
    17  H    3.877348   2.661633   2.410988   2.152393   1.102457
    18  H    5.569615   4.495522   4.614508   3.324004   2.097816
    19  H    5.502950   4.992863   5.762950   3.683631   3.626910
    20  H    6.688002   5.913788   6.401758   4.567665   3.928474
    21  H    7.853509   7.383022   8.165491   5.972755   5.776156
    22  H    7.989167   7.338669   7.995012   5.826855   5.346775
    23  H    6.531923   6.345780   7.365259   5.010678   5.325139
    24  H    8.005570   7.688577   8.614975   6.245226   6.284897
    25  H    6.413438   6.173296   7.126953   4.850775   5.128871
    26  H    7.094396   6.550464   7.290009   5.080941   4.854988
    27  H    2.398325   2.660216   3.872042   2.180816   3.456860
                    6          7          8          9         10
     6  N    0.000000
     7  C    1.494830   0.000000
     8  H    2.091704   1.121075   0.000000
     9  C    2.567948   1.548766   2.148615   0.000000
    10  C    3.881499   2.522128   2.647525   1.540484   0.000000
    11  C    4.391003   2.931416   3.138143   2.538652   1.536870
    12  C    3.815857   2.464189   2.558239   2.948975   2.545837
    13  C    2.520613   1.536478   2.136549   2.544752   3.006825
    14  H    2.730409   2.202458   2.519914   3.524216   4.012908
    15  N    3.159552   2.507468   3.421810   2.975972   3.554863
    16  C    3.085157   3.052732   4.075694   3.602910   4.542161
    17  H    2.099056   3.481271   3.998304   4.579790   5.929719
    18  H    1.022991   2.056916   2.351609   2.733139   4.074411
    19  H    2.922187   2.195078   3.083495   1.110862   2.185247
    20  H    2.764656   2.195284   2.529796   1.110724   2.174025
    21  H    4.730354   3.493680   3.692722   2.186036   1.112016
    22  H    4.116994   2.795050   2.449395   2.176377   1.112958
    23  H    4.702687   3.386989   3.891218   2.838296   2.171422
    24  H    5.405883   3.918411   3.909592   3.500627   2.181706
    25  H    4.667159   3.443304   3.591096   3.959359   3.501258
    26  H    4.006706   2.697993   2.302796   3.345688   2.827846
    27  H    4.090530   4.081300   5.131755   4.398347   5.273033
                   11         12         13         14         15
    11  C    0.000000
    12  C    1.544178   0.000000
    13  C    2.564209   1.553426   0.000000
    14  H    3.507158   2.168740   1.115208   0.000000
    15  N    2.967052   2.448719   1.464915   2.124919   0.000000
    16  C    4.194895   3.667242   2.378241   2.694583   1.293819
    17  H    6.242735   5.428604   3.939085   3.661708   4.218971
    18  H    4.888113   4.501737   3.387653   3.659236   4.065770
    19  H    2.840054   3.368057   2.790854   3.820716   2.632075
    20  H    3.492904   3.946907   3.508223   4.372045   3.991285
    21  H    2.180759   3.506433   3.993189   5.048179   4.276861
    22  H    2.168380   2.839194   3.451352   4.278686   4.330939
    23  H    1.113478   2.180730   2.834585   3.831568   2.646828
    24  H    1.111832   2.186561   3.524604   4.337425   3.974741
    25  H    2.179328   1.112075   2.187781   2.491340   2.684864
    26  H    2.181040   1.110252   2.189788   2.479201   3.409708
    27  H    4.844536   4.490052   3.375285   3.702231   2.048888
                   16         17         18         19         20
    16  C    0.000000
    17  H    3.541016   0.000000
    18  H    4.000347   2.496437   0.000000
    19  H    3.079562   4.658452   3.216401   0.000000
    20  H    4.428836   4.732267   2.503405   1.796971   0.000000
    21  H    5.201563   6.758032   4.819243   2.496240   2.530583
    22  H    5.320476   6.199771   4.165327   3.098055   2.470544
    23  H    3.813657   6.404031   5.276943   2.688232   3.847983
    24  H    5.237217   7.278136   5.851249   3.862641   4.330075
    25  H    3.896296   6.034307   5.452667   4.198508   5.002738
    26  H    4.528315   5.651788   4.559692   4.037771   4.154534
    27  H    1.100664   4.323403   4.945271   3.665619   5.206084
                   21         22         23         24         25
    21  H    0.000000
    22  H    1.799310   0.000000
    23  H    2.467812   3.084155   0.000000
    24  H    2.541504   2.467854   1.794580   0.000000
    25  H    4.336915   3.842012   2.486817   2.518454   0.000000
    26  H    3.852012   2.668746   3.096927   2.497819   1.794969
    27  H    5.780885   6.157909   4.239671   5.838257   4.563727
                   26         27
    26  H    0.000000
    27  H    5.443968   0.000000
 Symmetry turned off by external request.
 Stoichiometry    C9H13N3O2
 Framework group  C1[X(C9H13N3O2)]
 Deg. of freedom    75
 Full point group                 C1      NOp   1
 Rotational constants (GHZ):           1.6794334           0.3973170           0.3561359
 Standard basis: 6-31G(d) (6D, 7F)
   236 basis functions,   444 primitive gaussians,   236 cartesian basis functions
    52 alpha electrons       52 beta electrons
       nuclear repulsion energy       917.4068109884 Hartrees.
 NAtoms=   27 NActive=   27 NUniq=   27 SFac= 1.00D+00 NAtFMM=   60 NAOKFM=F Big=F
 Integral buffers will be    131072 words long.
 Raffenetti 1 integral format.
 Two-electron integral symmetry is turned off.
 One-electron integrals computed using PRISM.
 NBasis=   236 RedAO= T EigKep=  1.34D-03  NBF=   236
 NBsUse=   236 1.00D-06 EigRej= -1.00D+00 NBFU=   236
 ExpMin= 1.61D-01 ExpMax= 5.48D+03 ExpMxC= 8.25D+02 IAcc=3 IRadAn=         5 AccDes= 0.00D+00
 Harris functional with IExCor=  205 and IRadAn=       5 diagonalized for initial guess.
 HarFok:  IExCor=  205 AccDes= 0.00D+00 IRadAn=         5 IDoV= 1 UseB2=F ITyADJ=14
 ICtDFT=  3500011 ScaDFX=  1.000000  1.000000  1.000000  1.000000
 FoFCou: FMM=F IPFlag=           0 FMFlag=      100000 FMFlg1=           0
         NFxFlg=           0 DoJE=T BraDBF=F KetDBF=T FulRan=T
         wScrn=  0.000000 ICntrl=       500 IOpCl=  0 I1Cent=   200000004 NGrid=           0
         NMat0=    1 NMatS0=      1 NMatT0=    0 NMatD0=    1 NMtDS0=    0 NMtDT0=    0
 Symmetry not used in FoFCou.
 Keep R1 ints in memory in canonical form, NReq=397720213.
 Requested convergence on RMS density matrix=1.00D-08 within 128 cycles.
 Requested convergence on MAX density matrix=1.00D-06.
 Requested convergence on             energy=1.00D-06.
 No special actions if energy rises.
 SCF Done:  E(RHF) =  -661.269718651     A.U. after   16 cycles
            NFock= 16  Conv=0.69D-08     -V/T= 2.0036
 ExpMin= 1.61D-01 ExpMax= 5.48D+03 ExpMxC= 8.25D+02 IAcc=3 IRadAn=         5 AccDes= 0.00D+00
 HarFok:  IExCor=  205 AccDes= 0.00D+00 IRadAn=         5 IDoV=-2 UseB2=F ITyADJ=14
 ICtDFT= 12500011 ScaDFX=  1.000000  1.000000  1.000000  1.000000
 Range of M.O.s used for correlation:    15   236
 NBasis=   236 NAE=    52 NBE=    52 NFC=    14 NFV=     0
 NROrb=    222 NOA=    38 NOB=    38 NVA=   184 NVB=   184
 Fully direct method using O(ONN) memory.
 JobTyp=1 Pass  1:  I=  15 to  52 NPSUse=  4 ParTrn=T ParDer=T DoDerP=T.
 Spin components of T(2) and E(2):
     alpha-alpha T2 =       0.9211244288D-01 E2=     -0.2719271780D+00
     alpha-beta  T2 =       0.5007150082D+00 E2=     -0.1494664015D+01
     beta-beta   T2 =       0.9211244288D-01 E2=     -0.2719271780D+00
 ANorm=    0.1298052346D+01
 E2 =    -0.2038518371D+01 EUMP2 =    -0.66330823702172D+03
          IDoAtm=111111111111111111111111111
          Differentiating once with respect to electric field.
                with respect to dipole field.
          Differentiating once with respect to nuclear coordinates.
 Keep R1 ints in memory in canonical form, NReq=397723379.
          There are     1 degrees of freedom in the 1st order CPHF.  IDoFFX=0 NUNeed=     1.
 LinEq1:  Iter=  0 NonCon=     1 RMS=4.63D-03 Max=1.18D-01 NDo=     1
 AX will form     1 AO Fock derivatives at one time.
 LinEq1:  Iter=  1 NonCon=     1 RMS=1.57D-03 Max=4.12D-02 NDo=     1
 LinEq1:  Iter=  2 NonCon=     1 RMS=6.50D-04 Max=1.93D-02 NDo=     1
 LinEq1:  Iter=  3 NonCon=     1 RMS=3.01D-04 Max=9.51D-03 NDo=     1
 LinEq1:  Iter=  4 NonCon=     1 RMS=9.35D-05 Max=2.45D-03 NDo=     1
 LinEq1:  Iter=  5 NonCon=     1 RMS=3.97D-05 Max=2.05D-03 NDo=     1
 LinEq1:  Iter=  6 NonCon=     1 RMS=1.63D-05 Max=6.13D-04 NDo=     1
 LinEq1:  Iter=  7 NonCon=     1 RMS=6.42D-06 Max=1.14D-04 NDo=     1
 LinEq1:  Iter=  8 NonCon=     1 RMS=2.56D-06 Max=5.47D-05 NDo=     1
 LinEq1:  Iter=  9 NonCon=     1 RMS=9.85D-07 Max=2.80D-05 NDo=     1
 LinEq1:  Iter= 10 NonCon=     1 RMS=4.66D-07 Max=1.30D-05 NDo=     1
 LinEq1:  Iter= 11 NonCon=     1 RMS=1.66D-07 Max=5.74D-06 NDo=     1
 LinEq1:  Iter= 12 NonCon=     1 RMS=5.97D-08 Max=9.52D-07 NDo=     1
 LinEq1:  Iter= 13 NonCon=     1 RMS=1.99D-08 Max=4.89D-07 NDo=     1
 LinEq1:  Iter= 14 NonCon=     1 RMS=6.85D-09 Max=1.91D-07 NDo=     1
 LinEq1:  Iter= 15 NonCon=     1 RMS=2.57D-09 Max=5.41D-08 NDo=     1
 LinEq1:  Iter= 16 NonCon=     1 RMS=9.14D-10 Max=1.21D-08 NDo=     1
 LinEq1:  Iter= 17 NonCon=     1 RMS=2.97D-10 Max=5.60D-09 NDo=     1
 LinEq1:  Iter= 18 NonCon=     1 RMS=9.75D-11 Max=1.49D-09 NDo=     1
 LinEq1:  Iter= 19 NonCon=     0 RMS=3.07D-11 Max=4.58D-10 NDo=     1
 Linear equations converged to 1.000D-10 1.000D-09 after    19 iterations.
 End of Minotr F.D. properties file   721 does not exist.
 End of Minotr F.D. properties file   722 does not exist.
 End of Minotr F.D. properties file   788 does not exist.

 **********************************************************************

            Population analysis using the SCF Density.

 **********************************************************************

 Alpha  occ. eigenvalues --  -20.59995 -20.59544 -15.85505 -15.62537 -15.57074
 Alpha  occ. eigenvalues --  -11.35891 -11.30508 -11.30410 -11.29931 -11.27735
 Alpha  occ. eigenvalues --  -11.24528 -11.23813 -11.23415 -11.22842  -1.58654
 Alpha  occ. eigenvalues --   -1.38136  -1.28341  -1.22730  -1.13255  -1.08405
 Alpha  occ. eigenvalues --   -1.01786  -1.00584  -0.93532  -0.88950  -0.84869
 Alpha  occ. eigenvalues --   -0.81507  -0.78118  -0.76858  -0.74297  -0.70771
 Alpha  occ. eigenvalues --   -0.70441  -0.70043  -0.67539  -0.64272  -0.63351
 Alpha  occ. eigenvalues --   -0.61463  -0.60836  -0.57598  -0.56258  -0.54879
 Alpha  occ. eigenvalues --   -0.53134  -0.50694  -0.48942  -0.48517  -0.47798
 Alpha  occ. eigenvalues --   -0.47469  -0.46155  -0.45525  -0.44146  -0.42177
 Alpha  occ. eigenvalues --   -0.40203  -0.33757
 Alpha virt. eigenvalues --    0.06172   0.11561   0.18619   0.21808   0.23867
 Alpha virt. eigenvalues --    0.24375   0.25552   0.27376   0.28447   0.28910
 Alpha virt. eigenvalues --    0.29704   0.31290   0.31797   0.32244   0.33255
 Alpha virt. eigenvalues --    0.33728   0.34221   0.35775   0.37693   0.38521
 Alpha virt. eigenvalues --    0.40704   0.42126   0.44786   0.45492   0.45547
 Alpha virt. eigenvalues --    0.45983   0.49590   0.53112   0.57594   0.58814
 Alpha virt. eigenvalues --    0.63479   0.69229   0.69494   0.72149   0.73911
 Alpha virt. eigenvalues --    0.75096   0.75758   0.75883   0.77484   0.79666
 Alpha virt. eigenvalues --    0.80173   0.83290   0.85031   0.85383   0.87933
 Alpha virt. eigenvalues --    0.89154   0.90323   0.91008   0.91639   0.93810
 Alpha virt. eigenvalues --    0.96279   0.96939   0.98784   1.00144   1.01785
 Alpha virt. eigenvalues --    1.02662   1.04973   1.06287   1.06900   1.07662
 Alpha virt. eigenvalues --    1.09183   1.10500   1.10973   1.11624   1.13245
 Alpha virt. eigenvalues --    1.13835   1.14489   1.15272   1.16369   1.17328
 Alpha virt. eigenvalues --    1.17971   1.19128   1.20895   1.21320   1.22051
 Alpha virt. eigenvalues --    1.24315   1.25223   1.25955   1.27180   1.27433
 Alpha virt. eigenvalues --    1.28942   1.31076   1.33346   1.35271   1.37878
 Alpha virt. eigenvalues --    1.40761   1.43588   1.47181   1.48811   1.52083
 Alpha virt. eigenvalues --    1.53245   1.56367   1.60975   1.62949   1.68293
 Alpha virt. eigenvalues --    1.69256   1.69590   1.70726   1.73351   1.76292
 Alpha virt. eigenvalues --    1.79621   1.82307   1.84248   1.87631   1.92964
 Alpha virt. eigenvalues --    1.94723   1.96949   1.97496   1.99322   2.00076
 Alpha virt. eigenvalues --    2.02815   2.03726   2.05905   2.08708   2.11800
 Alpha virt. eigenvalues --    2.12445   2.14169   2.17786   2.18220   2.19425
 Alpha virt. eigenvalues --    2.21291   2.21760   2.23728   2.24309   2.26853
 Alpha virt. eigenvalues --    2.28967   2.32364   2.33802   2.35236   2.35799
 Alpha virt. eigenvalues --    2.38322   2.40258   2.41877   2.43139   2.45567
 Alpha virt. eigenvalues --    2.47883   2.50122   2.53081   2.55706   2.57813
 Alpha virt. eigenvalues --    2.61582   2.62563   2.66381   2.67426   2.68913
 Alpha virt. eigenvalues --    2.69913   2.70550   2.74609   2.76488   2.81213
 Alpha virt. eigenvalues --    2.84781   2.86296   2.90294   2.91744   2.95393
 Alpha virt. eigenvalues --    2.98097   2.98970   3.02536   3.03299   3.06167
 Alpha virt. eigenvalues --    3.06571   3.11942   3.19726   3.22642   3.26391
 Alpha virt. eigenvalues --    3.31009   3.33015   3.37272   3.43247   3.58632
 Alpha virt. eigenvalues --    4.09849   4.23202   4.31348   4.35876   4.44116
 Alpha virt. eigenvalues --    4.52688   4.59449   4.59901   4.70986   4.78034
 Alpha virt. eigenvalues --    4.95410   4.99236   5.02394   5.10175
          Condensed to atoms (all electrons):
               1          2          3          4          5          6
     1  O    8.300874   0.309603  -0.089400  -0.078104   0.003368  -0.000016
     2  N    0.309603   5.683225   0.309251   0.263631  -0.044660   0.001019
     3  O   -0.089400   0.309251   8.328863  -0.086548   0.007636   0.000453
     4  C   -0.078104   0.263631  -0.086548   5.234487   0.570801  -0.056240
     5  C    0.003368  -0.044660   0.007636   0.570801   4.666896   0.309318
     6  N   -0.000016   0.001019   0.000453  -0.056240   0.309318   7.212223
     7  C    0.000002  -0.000101  -0.000001   0.004326  -0.030177   0.196141
     8  H   -0.000000   0.000002  -0.000000  -0.000197   0.001462  -0.052019
     9  C   -0.000000  -0.000003   0.000000   0.000584   0.002449  -0.054841
    10  C   -0.000000   0.000000  -0.000000  -0.000022  -0.000085   0.003320
    11  C   -0.000000  -0.000000  -0.000000  -0.000010   0.000013  -0.000154
    12  C   -0.000000   0.000001  -0.000000  -0.000125  -0.000037   0.003575
    13  C   -0.000015  -0.000010  -0.000001  -0.011200   0.000172  -0.042979
    14  H   -0.000002  -0.000045   0.000001   0.002758   0.006009  -0.005625
    15  N    0.000321   0.001404  -0.000010  -0.060233  -0.003448   0.002118
    16  C    0.002341  -0.025715   0.002195   0.318426  -0.044433  -0.001260
    17  H    0.000071  -0.003942   0.009130  -0.027903   0.379050  -0.036934
    18  H    0.000001  -0.000037   0.000014   0.000596  -0.023661   0.327738
    19  H    0.000000  -0.000001   0.000000  -0.000708   0.000375   0.000943
    20  H    0.000000  -0.000000   0.000000  -0.000029   0.000020  -0.002198
    21  H   -0.000000  -0.000000   0.000000   0.000000   0.000001  -0.000056
    22  H   -0.000000   0.000000  -0.000000  -0.000000  -0.000003  -0.000099
    23  H    0.000000  -0.000000   0.000000   0.000023  -0.000000  -0.000025
    24  H    0.000000   0.000000   0.000000   0.000000  -0.000000   0.000004
    25  H    0.000000  -0.000000   0.000000   0.000019  -0.000002  -0.000070
    26  H    0.000000  -0.000000   0.000000   0.000006  -0.000004  -0.000061
    27  H    0.006196   0.000514   0.000049  -0.064106   0.001955   0.000067
               7          8          9         10         11         12
     1  O    0.000002  -0.000000  -0.000000  -0.000000  -0.000000  -0.000000
     2  N   -0.000101   0.000002  -0.000003   0.000000  -0.000000   0.000001
     3  O   -0.000001  -0.000000   0.000000  -0.000000  -0.000000  -0.000000
     4  C    0.004326  -0.000197   0.000584  -0.000022  -0.000010  -0.000125
     5  C   -0.030177   0.001462   0.002449  -0.000085   0.000013  -0.000037
     6  N    0.196141  -0.052019  -0.054841   0.003320  -0.000154   0.003575
     7  C    4.991883   0.418129   0.339289  -0.049304  -0.007584  -0.063902
     8  H    0.418129   0.552317  -0.061947   0.001686  -0.000354  -0.002687
     9  C    0.339289  -0.061947   5.183170   0.317358  -0.053030  -0.006491
    10  C   -0.049304   0.001686   0.317358   5.126839   0.332921  -0.059866
    11  C   -0.007584  -0.000354  -0.053030   0.332921   5.122760   0.331206
    12  C   -0.063902  -0.002687  -0.006491  -0.059866   0.331206   5.135082
    13  C    0.335577  -0.041826  -0.047653  -0.002170  -0.047892   0.367850
    14  H   -0.040551  -0.000847   0.003885  -0.000394   0.003939  -0.040451
    15  N   -0.058896   0.004187  -0.013194   0.001521  -0.007617  -0.073900
    16  C   -0.002673   0.000038  -0.001015  -0.000013  -0.000013   0.002661
    17  H    0.001698  -0.000010  -0.000064   0.000001   0.000000   0.000001
    18  H   -0.027755  -0.002218   0.001022  -0.000135   0.000012  -0.000131
    19  H   -0.034820   0.004167   0.385377  -0.032472  -0.002312   0.000665
    20  H   -0.041321  -0.001909   0.397348  -0.037482   0.004152  -0.000355
    21  H    0.004025  -0.000082  -0.035856   0.400225  -0.035908   0.004203
    22  H   -0.004111   0.003519  -0.045622   0.395963  -0.045605  -0.001261
    23  H    0.000416   0.000032  -0.001993  -0.040132   0.396772  -0.036784
    24  H   -0.000137  -0.000095   0.004385  -0.038441   0.400345  -0.037840
    25  H    0.004943  -0.000005  -0.000363   0.004095  -0.034014   0.395539
    26  H   -0.004409   0.001631   0.001016  -0.002383  -0.042237   0.394770
    27  H   -0.000400   0.000009  -0.000053   0.000005   0.000004  -0.000018
              13         14         15         16         17         18
     1  O   -0.000015  -0.000002   0.000321   0.002341   0.000071   0.000001
     2  N   -0.000010  -0.000045   0.001404  -0.025715  -0.003942  -0.000037
     3  O   -0.000001   0.000001  -0.000010   0.002195   0.009130   0.000014
     4  C   -0.011200   0.002758  -0.060233   0.318426  -0.027903   0.000596
     5  C    0.000172   0.006009  -0.003448  -0.044433   0.379050  -0.023661
     6  N   -0.042979  -0.005625   0.002118  -0.001260  -0.036934   0.327738
     7  C    0.335577  -0.040551  -0.058896  -0.002673   0.001698  -0.027755
     8  H   -0.041826  -0.000847   0.004187   0.000038  -0.000010  -0.002218
     9  C   -0.047653   0.003885  -0.013194  -0.001015  -0.000064   0.001022
    10  C   -0.002170  -0.000394   0.001521  -0.000013   0.000001  -0.000135
    11  C   -0.047892   0.003939  -0.007617  -0.000013   0.000000   0.000012
    12  C    0.367850  -0.040451  -0.073900   0.002661   0.000001  -0.000131
    13  C    5.031870   0.400692   0.238933  -0.070508  -0.000108   0.003584
    14  H    0.400692   0.523188  -0.036408  -0.004713   0.000077   0.000027
    15  N    0.238933  -0.036408   6.934905   0.583591  -0.000069  -0.000106
    16  C   -0.070508  -0.004713   0.583591   4.719583   0.001913  -0.000239
    17  H   -0.000108   0.000077  -0.000069   0.001913   0.396650  -0.001931
    18  H    0.003584   0.000027  -0.000106  -0.000239  -0.001931   0.320671
    19  H   -0.006474   0.000065   0.007065   0.002540   0.000009  -0.000134
    20  H    0.003840  -0.000048   0.000080  -0.000029  -0.000001   0.003150
    21  H   -0.000358   0.000009  -0.000024   0.000002  -0.000000   0.000000
    22  H    0.000318  -0.000045   0.000002  -0.000001   0.000000   0.000001
    23  H   -0.005765   0.000006   0.006607   0.000053   0.000000   0.000000
    24  H    0.004138  -0.000058   0.000041   0.000005   0.000000  -0.000000
    25  H   -0.034673  -0.002628   0.000630  -0.000068  -0.000000   0.000002
    26  H   -0.044709  -0.000957   0.004175  -0.000061   0.000000  -0.000001
    27  H    0.004801  -0.000175  -0.039177   0.401264  -0.000059   0.000002
              19         20         21         22         23         24
     1  O    0.000000   0.000000  -0.000000  -0.000000   0.000000   0.000000
     2  N   -0.000001  -0.000000  -0.000000   0.000000  -0.000000   0.000000
     3  O    0.000000   0.000000   0.000000  -0.000000   0.000000   0.000000
     4  C   -0.000708  -0.000029   0.000000  -0.000000   0.000023   0.000000
     5  C    0.000375   0.000020   0.000001  -0.000003  -0.000000  -0.000000
     6  N    0.000943  -0.002198  -0.000056  -0.000099  -0.000025   0.000004
     7  C   -0.034820  -0.041321   0.004025  -0.004111   0.000416  -0.000137
     8  H    0.004167  -0.001909  -0.000082   0.003519   0.000032  -0.000095
     9  C    0.385377   0.397348  -0.035856  -0.045622  -0.001993   0.004385
    10  C   -0.032472  -0.037482   0.400225   0.395963  -0.040132  -0.038441
    11  C   -0.002312   0.004152  -0.035908  -0.045605   0.396772   0.400345
    12  C    0.000665  -0.000355   0.004203  -0.001261  -0.036784  -0.037840
    13  C   -0.006474   0.003840  -0.000358   0.000318  -0.005765   0.004138
    14  H    0.000065  -0.000048   0.000009  -0.000045   0.000006  -0.000058
    15  N    0.007065   0.000080  -0.000024   0.000002   0.006607   0.000041
    16  C    0.002540  -0.000029   0.000002  -0.000001   0.000053   0.000005
    17  H    0.000009  -0.000001  -0.000000   0.000000   0.000000   0.000000
    18  H   -0.000134   0.003150   0.000000   0.000001   0.000000  -0.000000
    19  H    0.507230  -0.024157  -0.002589   0.003759   0.001639  -0.000069
    20  H   -0.024157   0.550818  -0.002576  -0.002986  -0.000050  -0.000090
    21  H   -0.002589  -0.002576   0.526390  -0.024719  -0.002817  -0.002040
    22  H    0.003759  -0.002986  -0.024719   0.568531   0.004065  -0.003593
    23  H    0.001639  -0.000050  -0.002817   0.004065   0.510392  -0.025043
    24  H   -0.000069  -0.000090  -0.002040  -0.003593  -0.025043   0.540975
    25  H   -0.000027   0.000011  -0.000086  -0.000082  -0.002112  -0.002371
    26  H    0.000023  -0.000036  -0.000074   0.002466   0.003828  -0.002792
    27  H    0.000068  -0.000000  -0.000000   0.000000  -0.000021  -0.000000
              25         26         27
     1  O    0.000000   0.000000   0.006196
     2  N   -0.000000  -0.000000   0.000514
     3  O    0.000000   0.000000   0.000049
     4  C    0.000019   0.000006  -0.064106
     5  C   -0.000002  -0.000004   0.001955
     6  N   -0.000070  -0.000061   0.000067
     7  C    0.004943  -0.004409  -0.000400
     8  H   -0.000005   0.001631   0.000009
     9  C   -0.000363   0.001016  -0.000053
    10  C    0.004095  -0.002383   0.000005
    11  C   -0.034014  -0.042237   0.000004
    12  C    0.395539   0.394770  -0.000018
    13  C   -0.034673  -0.044709   0.004801
    14  H   -0.002628  -0.000957  -0.000175
    15  N    0.000630   0.004175  -0.039177
    16  C   -0.000068  -0.000061   0.401264
    17  H   -0.000000   0.000000  -0.000059
    18  H    0.000002  -0.000001   0.000002
    19  H   -0.000027   0.000023   0.000068
    20  H    0.000011  -0.000036  -0.000000
    21  H   -0.000086  -0.000074  -0.000000
    22  H   -0.000082   0.002466   0.000000
    23  H   -0.002112   0.003828  -0.000021
    24  H   -0.002371  -0.002792  -0.000000
    25  H    0.511737  -0.023161  -0.000009
    26  H   -0.023161   0.560314   0.000001
    27  H   -0.000009   0.000001   0.442228
 Mulliken charges:
               1
     1  O   -0.455239
     2  N    0.505863
     3  O   -0.481630
     4  C   -0.010232
     5  C    0.196985
     6  N   -0.804342
     7  C    0.069712
     8  H    0.177017
     9  C   -0.313757
    10  C   -0.321035
    11  C   -0.315395
    12  C   -0.311705
    13  C   -0.035433
    14  H    0.192293
    15  N   -0.492495
    16  C    0.116127
    17  H    0.282423
    18  H    0.399529
    19  H    0.189839
    20  H    0.153849
    21  H    0.172330
    22  H    0.149504
    23  H    0.190911
    24  H    0.162676
    25  H    0.182696
    26  H    0.152654
    27  H    0.246856
 Sum of Mulliken charges =  -0.00000
 Mulliken charges with hydrogens summed into heavy atoms:
               1
     1  O   -0.455239
     2  N    0.505863
     3  O   -0.481630
     4  C   -0.010232
     5  C    0.479408
     6  N   -0.404813
     7  C    0.246730
     9  C    0.029930
    10  C    0.000799
    11  C    0.038192
    12  C    0.023645
    13  C    0.156859
    15  N   -0.492495
    16  C    0.362983
 Electronic spatial extent (au):  <R**2>=           3129.7092
 Charge=             -0.0000 electrons
 Dipole moment (field-independent basis, Debye):
    X=              5.2248    Y=              4.1799    Z=              0.9017  Tot=              6.7516
 Quadrupole moment (field-independent basis, Debye-Ang):
   XX=           -105.5127   YY=            -80.7077   ZZ=            -82.0940
   XY=             -1.3083   XZ=             -1.1741   YZ=             -0.5599
 Traceless Quadrupole moment (field-independent basis, Debye-Ang):
   XX=            -16.0746   YY=              8.7304   ZZ=              7.3442
   XY=             -1.3083   XZ=             -1.1741   YZ=             -0.5599
 Octapole moment (field-independent basis, Debye-Ang**2):
  XXX=            101.7212  YYY=             31.5962  ZZZ=             -1.8561  XYY=             -1.9976
  XXY=              8.5788  XXZ=              7.5438  XZZ=             -8.0645  YZZ=             -1.7709
  YYZ=              1.7851  XYZ=             -0.1601
 Hexadecapole moment (field-independent basis, Debye-Ang**3):
 XXXX=          -3568.2603 YYYY=           -609.0677 ZZZZ=           -313.3286 XXXY=            -23.7061
 XXXZ=            -18.9986 YYYX=             -6.0557 YYYZ=             -0.5039 ZZZX=              1.5434
 ZZZY=              2.7707 XXYY=           -654.0670 XXZZ=           -550.2618 YYZZ=           -163.0344
 XXYZ=             -7.3971 YYXZ=             -2.7718 ZZXY=             -0.1798
 N-N= 9.174068109884D+02 E-N=-3.380823600304D+03  KE= 6.588649152932D+02
 Calling FoFJK, ICntrl=  10002127 FMM=F ISym2X=0 I1Cent= 0 IOpClX= 0 NMat=1 NMatS=1 NMatT=0.
 -------------------------------------------------------------------
 Center     Atomic                   Forces (Hartrees/Bohr)
 Number     Number              X              Y              Z
 -------------------------------------------------------------------
      1        8           0.002058943   -0.017589637   -0.009532002
      2        7           0.036067923    0.006252490    0.022368861
      3        8          -0.003950146    0.015760247    0.002145470
      4        6          -0.000182895    0.009618964   -0.002592140
      5        6           0.002112181   -0.019515122   -0.004444743
      6        7           0.019515509   -0.013455405   -0.000862544
      7        6          -0.004245538    0.005994599    0.001584277
      8        1          -0.009076957   -0.002192341   -0.007421143
      9        6          -0.003964572   -0.000683981   -0.001729109
     10        6           0.002987758   -0.000634174    0.000864157
     11        6          -0.001385065   -0.004613930   -0.002430491
     12        6           0.001174406   -0.008689981   -0.002348747
     13        6           0.010776751   -0.001781430    0.004408726
     14        1           0.000146016    0.004639072   -0.009753162
     15        7          -0.001170389    0.003441784    0.001750767
     16        6          -0.022045270    0.008688039   -0.000824703
     17        1           0.001923355    0.000306910   -0.019232148
     18        1          -0.016779157   -0.000574477    0.011999995
     19        1           0.003180514    0.006129778    0.007514817
     20        1          -0.003197657   -0.007189855    0.002810571
     21        1          -0.004273621    0.002542174    0.009608287
     22        1          -0.004000489   -0.004207836   -0.007313760
     23        1           0.004084280    0.006332290    0.009071158
     24        1          -0.009436780    0.002508491   -0.002098954
     25        1          -0.000785546    0.010486362   -0.002576110
     26        1          -0.004831981   -0.005010351   -0.004268678
     27        1           0.005298423    0.003437321    0.003301349
 -------------------------------------------------------------------
 Cartesian Forces:  Max     0.036067923 RMS     0.008892396

 GradGradGradGradGradGradGradGradGradGradGradGradGradGradGradGradGradGrad
 Berny optimization.
 FormGI is forming the generalized inverse of G from B-inverse, IUseBI=4.
 Internal  Forces:  Max     0.036053621 RMS     0.006786880
 Search for a local minimum.
 Step number   1 out of a maximum of   20
 All quantities printed in internal units (Hartrees-Bohrs-Radians)
 Mixed Optimization -- RFO/linear search
 Second derivative matrix not updated -- first step.
 ITU=  0
     Eigenvalues ---    0.00237   0.00768   0.01076   0.01171   0.01426
     Eigenvalues ---    0.01490   0.01531   0.01687   0.01972   0.02033
     Eigenvalues ---    0.02688   0.03646   0.04500   0.04688   0.04839
     Eigenvalues ---    0.05088   0.05136   0.05304   0.05904   0.06263
     Eigenvalues ---    0.07219   0.07703   0.07734   0.07890   0.07991
     Eigenvalues ---    0.08053   0.08079   0.10460   0.11746   0.12266
     Eigenvalues ---    0.13504   0.15323   0.15777   0.15966   0.16003
     Eigenvalues ---    0.20110   0.21625   0.23015   0.24365   0.25000
     Eigenvalues ---    0.25000   0.25384   0.26168   0.26654   0.27980
     Eigenvalues ---    0.28091   0.28440   0.29582   0.31268   0.31455
     Eigenvalues ---    0.32055   0.32235   0.32289   0.32381   0.32387
     Eigenvalues ---    0.32407   0.32509   0.32524   0.32573   0.33080
     Eigenvalues ---    0.33412   0.33609   0.35294   0.43864   0.44157
     Eigenvalues ---    0.48889   0.66394   0.90342   0.911871000.00000
     Eigenvalues --- 1000.000001000.000001000.000001000.000001000.00000
     Eigenvalues --- 1000.000001000.000001000.000001000.000001000.00000
     Eigenvalues --- 1000.000001000.000001000.000001000.000001000.00000
     Eigenvalues --- 1000.000001000.000001000.000001000.000001000.00000
     Eigenvalues --- 1000.000001000.000001000.000001000.000001000.00000
     Eigenvalues --- 1000.000001000.000001000.000001000.000001000.00000
     Eigenvalues --- 1000.000001000.000001000.000001000.000001000.00000
     Eigenvalues --- 1000.000001000.000001000.000001000.000001000.00000
     Eigenvalues --- 1000.000001000.000001000.000001000.000001000.00000
     Eigenvalues --- 1000.000001000.000001000.000001000.000001000.00000
     Eigenvalues --- 1000.000001000.000001000.000001000.000001000.00000
     Eigenvalues --- 1000.000001000.000001000.000001000.000001000.00000
     Eigenvalues --- 1000.000001000.000001000.000001000.000001000.00000
     Eigenvalues --- 1000.000001000.000001000.000001000.000001000.00000
     Eigenvalues --- 1000.000001000.000001000.000001000.000001000.00000
     Eigenvalues --- 1000.000001000.000001000.000001000.000001000.00000
     Eigenvalues --- 1000.000001000.000001000.000001000.000001000.00000
     Eigenvalues --- 1000.000001000.000001000.000001000.000001000.00000
     Eigenvalues --- 1000.00000
 RFO step:  Lambda=-2.60723942D-02 EMin= 2.36895934D-03
 Linear search not attempted -- first point.
 Iteration  1 RMS(Cart)=  0.05545352 RMS(Int)=  0.00176935
 Iteration  2 RMS(Cart)=  0.00231467 RMS(Int)=  0.00050644
 Iteration  3 RMS(Cart)=  0.00000556 RMS(Int)=  0.00050642
 Iteration  4 RMS(Cart)=  0.00000001 RMS(Int)=  0.00050642
 Iteration  1 RMS(Cart)=  0.00005941 RMS(Int)=  0.00005203
 Iteration  2 RMS(Cart)=  0.00003098 RMS(Int)=  0.00005718
 Iteration  3 RMS(Cart)=  0.00001926 RMS(Int)=  0.00006334
 Iteration  4 RMS(Cart)=  0.00001382 RMS(Int)=  0.00006800
 Iteration  5 RMS(Cart)=  0.00001078 RMS(Int)=  0.00007165
 Iteration  6 RMS(Cart)=  0.00000878 RMS(Int)=  0.00007466
 Iteration  7 RMS(Cart)=  0.00000730 RMS(Int)=  0.00007723
 Iteration  8 RMS(Cart)=  0.00000613 RMS(Int)=  0.00007945
 Iteration  9 RMS(Cart)=  0.00000518 RMS(Int)=  0.00008137
 Iteration 10 RMS(Cart)=  0.00000438 RMS(Int)=  0.00008303
 Iteration 11 RMS(Cart)=  0.00000371 RMS(Int)=  0.00008447
 Iteration 12 RMS(Cart)=  0.00000315 RMS(Int)=  0.00008571
 Iteration 13 RMS(Cart)=  0.00000267 RMS(Int)=  0.00008678
 Iteration 14 RMS(Cart)=  0.00000227 RMS(Int)=  0.00008770
 Iteration 15 RMS(Cart)=  0.00000192 RMS(Int)=  0.00008848
 Iteration 16 RMS(Cart)=  0.00000163 RMS(Int)=  0.00008916
 Iteration 17 RMS(Cart)=  0.00000139 RMS(Int)=  0.00008974
 Iteration 18 RMS(Cart)=  0.00000118 RMS(Int)=  0.00009023
 Iteration 19 RMS(Cart)=  0.00000100 RMS(Int)=  0.00009065
 Iteration 20 RMS(Cart)=  0.00000085 RMS(Int)=  0.00009101
 Variable       Old X    -DE/DX   Delta X   Delta X   Delta X     New X
                                 (Linear)    (Quad)   (Total)
    R1        2.32391   0.01808   0.00000   0.01928   0.01928   2.34319
    R2        2.32776   0.01479   0.00000   0.01591   0.01591   2.34367
    R3        2.88805  -0.03605   0.00000  -0.11201  -0.11201   2.77605
    R4        2.64600  -0.03272   0.00000  -0.06978  -0.06974   2.57627
    R5        2.81563  -0.02335   0.00000  -0.06688  -0.06680   2.74882
    R6        2.59112  -0.01899   0.00000  -0.03623  -0.03623   2.55490
    R7        2.08334  -0.00950   0.00000  -0.02636  -0.02636   2.05698
    R8        2.82482  -0.01950   0.00000  -0.05264  -0.05260   2.77222
    R9        1.93317  -0.00714   0.00000  -0.01537  -0.01537   1.91780
   R10        2.11853  -0.01128   0.00000  -0.03312  -0.03312   2.08540
   R11        2.92674  -0.01310   0.00000  -0.04483  -0.04492   2.88182
   R12        2.90352  -0.00626   0.00000  -0.01379  -0.01367   2.88985
   R13        2.91109  -0.00485   0.00000  -0.01414  -0.01415   2.89694
   R14        2.09923  -0.01000   0.00000  -0.02848  -0.02848   2.07075
   R15        2.09896  -0.00793   0.00000  -0.02257  -0.02257   2.07639
   R16        2.90426  -0.00199   0.00000  -0.00714  -0.00708   2.89718
   R17        2.10141  -0.01057   0.00000  -0.03021  -0.03021   2.07120
   R18        2.10319  -0.00905   0.00000  -0.02593  -0.02593   2.07725
   R19        2.91807  -0.00909   0.00000  -0.02811  -0.02801   2.89006
   R20        2.10417  -0.01165   0.00000  -0.03344  -0.03344   2.07073
   R21        2.10106  -0.00996   0.00000  -0.02845  -0.02845   2.07261
   R22        2.93555  -0.01015   0.00000  -0.03561  -0.03560   2.89995
   R23        2.10152  -0.01067   0.00000  -0.03049  -0.03049   2.07102
   R24        2.09807  -0.00795   0.00000  -0.02260  -0.02260   2.07547
   R25        2.10744  -0.00869   0.00000  -0.02507  -0.02507   2.08236
   R26        2.76829  -0.00457   0.00000  -0.01158  -0.01183   2.75645
   R27        2.44496  -0.00491   0.00000  -0.00769  -0.00781   2.43715
   R28        2.07995  -0.00663   0.00000  -0.01832  -0.01832   2.06164
    A1        2.15714   0.01106   0.00000   0.04140   0.03901   2.19616
    A2        2.05498  -0.00670   0.00000  -0.02293  -0.02530   2.02967
    A3        2.07017  -0.00409   0.00000  -0.01347  -0.01585   2.05432
    A4        2.02578  -0.00683   0.00000  -0.02657  -0.02665   1.99913
    A5        2.03411  -0.00241   0.00000  -0.01533  -0.01599   2.01811
    A6        2.20577   0.00952   0.00000   0.02882   0.02702   2.23278
    A7        2.19342   0.00600   0.00000   0.02276   0.02174   2.21516
    A8        2.06220  -0.00336   0.00000  -0.01430  -0.01398   2.04822
    A9        2.01915  -0.00223   0.00000  -0.01340  -0.01346   2.00569
   A10        2.24137  -0.00463   0.00000  -0.01042  -0.01156   2.22980
   A11        2.12410  -0.01249   0.00000  -0.07395  -0.07372   2.05039
   A12        1.88660   0.01719   0.00000   0.08983   0.09060   1.97720
   A13        1.83768  -0.00050   0.00000  -0.01467  -0.01441   1.82327
   A14        2.00816  -0.00163   0.00000  -0.00836  -0.00794   2.00022
   A15        1.96357   0.00056   0.00000   0.00185   0.00079   1.96436
   A16        1.85122   0.00243   0.00000   0.02297   0.02273   1.87395
   A17        1.84935   0.00054   0.00000   0.00937   0.00940   1.85875
   A18        1.93974  -0.00102   0.00000  -0.00821  -0.00776   1.93198
   A19        1.91037   0.00028   0.00000  -0.00329  -0.00352   1.90685
   A20        1.92259  -0.00079   0.00000  -0.01205  -0.01198   1.91061
   A21        1.92301  -0.00166   0.00000  -0.00798  -0.00796   1.91505
   A22        1.91912  -0.00042   0.00000   0.00592   0.00588   1.92500
   A23        1.90410   0.00297   0.00000   0.02274   0.02284   1.92694
   A24        1.88445  -0.00036   0.00000  -0.00496  -0.00522   1.87923
   A25        1.94021  -0.00111   0.00000   0.00484   0.00469   1.94490
   A26        1.91902  -0.00056   0.00000  -0.00590  -0.00590   1.91312
   A27        1.90503   0.00037   0.00000  -0.00276  -0.00279   1.90223
   A28        1.91617   0.00090   0.00000   0.00690   0.00695   1.92311
   A29        1.89854   0.00168   0.00000   0.01056   0.01061   1.90915
   A30        1.88384  -0.00127   0.00000  -0.01410  -0.01418   1.86966
   A31        1.94497   0.00031   0.00000   0.00381   0.00398   1.94895
   A32        1.90210   0.00083   0.00000   0.00595   0.00588   1.90798
   A33        1.91764   0.00038   0.00000   0.00557   0.00554   1.92318
   A34        1.90601  -0.00097   0.00000  -0.01274  -0.01280   1.89321
   A35        1.91552  -0.00043   0.00000  -0.00024  -0.00033   1.91519
   A36        1.87621  -0.00014   0.00000  -0.00267  -0.00270   1.87352
   A37        1.95036  -0.00270   0.00000  -0.01670  -0.01667   1.93368
   A38        1.90553   0.00257   0.00000   0.01733   0.01723   1.92275
   A39        1.90966   0.00121   0.00000   0.01178   0.01170   1.92136
   A40        1.90599  -0.00001   0.00000  -0.00233  -0.00219   1.90380
   A41        1.91050  -0.00014   0.00000  -0.00534  -0.00532   1.90519
   A42        1.88047  -0.00086   0.00000  -0.00431  -0.00447   1.87600
   A43        1.84625   0.00414   0.00000   0.02422   0.02414   1.87039
   A44        1.94302  -0.00430   0.00000  -0.03397  -0.03429   1.90873
   A45        1.97747   0.00126   0.00000   0.01305   0.01311   1.99058
   A46        1.87766   0.00237   0.00000   0.03094   0.03129   1.90895
   A47        1.89206  -0.00317   0.00000  -0.02620  -0.02611   1.86594
   A48        1.92250  -0.00005   0.00000  -0.00550  -0.00541   1.91710
   A49        2.07644  -0.00442   0.00000  -0.01259  -0.01277   2.06367
   A50        2.24684  -0.00549   0.00000  -0.02282  -0.02276   2.22409
   A51        1.98649   0.00541   0.00000   0.02559   0.02556   2.01205
   A52        2.04973   0.00009   0.00000  -0.00277  -0.00279   2.04694
    D1        3.09863  -0.00300   0.00000  -0.06557  -0.06444   3.03418
    D2        0.14414  -0.00554   0.00000   0.00000   0.00000   0.14414
    D3       -0.08678   0.00384   0.00000   0.05760   0.05807  -0.02872
    D4       -3.04127   0.00130   0.00000   0.12317   0.12251  -2.91876
    D5       -2.89248  -0.00569   0.00000  -0.04388  -0.04440  -2.93689
    D6        0.39457  -0.00891   0.00000   0.00000  -0.00000   0.39457
    D7        0.04092  -0.00460   0.00000  -0.12316  -0.12471  -0.08379
    D8       -2.95521  -0.00782   0.00000  -0.07927  -0.08031  -3.03552
    D9       -2.85946   0.00205   0.00000  -0.02190  -0.02372  -2.88318
   D10        0.26474   0.00214   0.00000  -0.02197  -0.02288   0.24186
   D11        0.49120   0.00141   0.00000   0.05885   0.05836   0.54956
   D12       -2.66779   0.00149   0.00000   0.05878   0.05920  -2.60859
   D13       -0.35664   0.00294   0.00000   0.11222   0.11203  -0.24461
   D14        2.48673   0.00586   0.00000   0.15119   0.15035   2.63708
   D15        2.64266   0.00598   0.00000   0.06913   0.06843   2.71109
   D16       -0.79715   0.00891   0.00000   0.10810   0.10674  -0.69040
   D17       -2.34840  -0.00156   0.00000  -0.04633  -0.04573  -2.39412
   D18        1.90331  -0.00334   0.00000  -0.06039  -0.05992   1.84339
   D19       -0.34214  -0.00092   0.00000  -0.04283  -0.04257  -0.38471
   D20        1.05930  -0.00052   0.00000  -0.06044  -0.06101   0.99830
   D21       -0.97218  -0.00229   0.00000  -0.07450  -0.07520  -1.04737
   D22        3.06556   0.00012   0.00000  -0.05694  -0.05784   3.00772
   D23        2.94693   0.00282   0.00000   0.02166   0.02195   2.96888
   D24       -1.22413   0.00198   0.00000   0.01926   0.01948  -1.20465
   D25        0.85311   0.00001   0.00000   0.00064   0.00096   0.85407
   D26        0.92318   0.00273   0.00000   0.02916   0.02918   0.95236
   D27        3.03531   0.00189   0.00000   0.02676   0.02671   3.06202
   D28       -1.17064  -0.00009   0.00000   0.00814   0.00819  -1.16244
   D29       -1.07902   0.00124   0.00000   0.00933   0.00916  -1.06986
   D30        1.03311   0.00040   0.00000   0.00693   0.00669   1.03980
   D31        3.11035  -0.00158   0.00000  -0.01169  -0.01183   3.09852
   D32       -2.90350  -0.00188   0.00000  -0.00915  -0.00880  -2.91230
   D33       -0.86893   0.00113   0.00000   0.02427   0.02417  -0.84475
   D34        1.30938  -0.00138   0.00000   0.00000   0.00001   1.30939
   D35       -0.90433  -0.00187   0.00000  -0.02024  -0.02011  -0.92444
   D36        1.13024   0.00114   0.00000   0.01318   0.01286   1.14311
   D37       -2.97464  -0.00137   0.00000  -0.01109  -0.01130  -2.98594
   D38        1.09903   0.00079   0.00000   0.00805   0.00818   1.10721
   D39        3.13360   0.00380   0.00000   0.04147   0.04115  -3.10843
   D40       -0.97128   0.00129   0.00000   0.01720   0.01699  -0.95429
   D41        0.95666   0.00050   0.00000   0.00000   0.00000   0.95666
   D42        3.08226   0.00052   0.00000   0.00793   0.00788   3.09013
   D43       -1.13759  -0.00113   0.00000  -0.01434  -0.01433  -1.15191
   D44       -1.15757   0.00156   0.00000   0.01327   0.01336  -1.14421
   D45        0.96803   0.00158   0.00000   0.02120   0.02123   0.98927
   D46        3.03137  -0.00007   0.00000  -0.00107  -0.00097   3.03040
   D47        3.06203   0.00047   0.00000   0.00222   0.00220   3.06423
   D48       -1.09556   0.00049   0.00000   0.01015   0.01008  -1.08548
   D49        0.96778  -0.00115   0.00000  -0.01212  -0.01213   0.95566
   D50       -0.92192  -0.00083   0.00000   0.00000   0.00000  -0.92192
   D51        1.18269  -0.00129   0.00000  -0.00955  -0.00956   1.17312
   D52       -3.04894  -0.00076   0.00000  -0.00607  -0.00611  -3.05506
   D53       -3.04918  -0.00000   0.00000  -0.00046  -0.00044  -3.04962
   D54       -0.94457  -0.00046   0.00000  -0.01001  -0.01000  -0.95458
   D55        1.10698   0.00007   0.00000  -0.00654  -0.00655   1.10043
   D56        1.17617   0.00002   0.00000   0.00640   0.00643   1.18260
   D57       -3.00241  -0.00043   0.00000  -0.00315  -0.00314  -3.00554
   D58       -0.95085   0.00010   0.00000   0.00033   0.00031  -0.95054
   D59        0.98636  -0.00053   0.00000  -0.01199  -0.01206   0.97431
   D60        3.09667  -0.00055   0.00000  -0.01401  -0.01413   3.08253
   D61       -1.13242   0.00060   0.00000  -0.00234  -0.00232  -1.13474
   D62       -1.11595  -0.00112   0.00000  -0.01342  -0.01344  -1.12939
   D63        0.99435  -0.00115   0.00000  -0.01544  -0.01552   0.97883
   D64        3.04845   0.00001   0.00000  -0.00377  -0.00371   3.04474
   D65        3.11461  -0.00014   0.00000  -0.00256  -0.00258   3.11202
   D66       -1.05827  -0.00016   0.00000  -0.00458  -0.00466  -1.06294
   D67        0.99582   0.00099   0.00000   0.00709   0.00715   1.00298
   D68       -1.04758  -0.00009   0.00000   0.00114   0.00135  -1.04623
   D69       -3.12591   0.00157   0.00000   0.01256   0.01227  -3.11364
   D70        1.07861   0.00204   0.00000   0.01620   0.01610   1.09471
   D71        3.12557  -0.00157   0.00000  -0.00828  -0.00804   3.11753
   D72        1.04724   0.00009   0.00000   0.00314   0.00288   1.05012
   D73       -1.03143   0.00056   0.00000   0.00679   0.00671  -1.02472
   D74        1.07071  -0.00044   0.00000   0.00138   0.00166   1.07237
   D75       -1.00761   0.00122   0.00000   0.01280   0.01257  -0.99504
   D76       -3.08628   0.00169   0.00000   0.01644   0.01640  -3.06988
   D77       -1.17216   0.00232   0.00000   0.00000   0.00001  -1.17215
   D78        3.06738  -0.00149   0.00000  -0.02066  -0.02038   3.04700
   D79        1.01719  -0.00246   0.00000  -0.03950  -0.03973   0.97745
   D80        0.07611   0.00256   0.00000   0.00295   0.00339   0.07950
   D81       -3.04756   0.00244   0.00000   0.00279   0.00231  -3.04525
         Item               Value     Threshold  Converged?
 Maximum Force            0.036054     0.000450     NO 
 RMS     Force            0.006805     0.000300     NO 
 Maximum Displacement     0.293792     0.001800     NO 
 RMS     Displacement     0.056730     0.001200     NO 
 Predicted change in Energy=-1.569176D-02
 GradGradGradGradGradGradGradGradGradGradGradGradGradGradGradGradGradGrad

                          Input orientation:                          
 ---------------------------------------------------------------------
 Center     Atomic      Atomic             Coordinates (Angstroms)
 Number     Number       Type             X           Y           Z
 ---------------------------------------------------------------------
      1          8           0       -3.498359   -1.355270   -0.487343
      2          7           0       -3.139321   -0.229608   -0.111198
      3          8           0       -3.876842    0.756877    0.033892
      4          6           0       -1.695271   -0.036275    0.076850
      5          6           0       -1.327919    1.245291    0.361867
      6          7           0       -0.073220    1.748887    0.364918
      7          6           0        1.192409    1.007338    0.345832
      8          1           0        1.829903    1.531166    1.078651
      9          6           0        1.922673    1.032103   -0.992714
     10          6           0        3.326391    0.442512   -0.813742
     11          6           0        3.270593   -0.959589   -0.196111
     12          6           0        2.451487   -0.975529    1.095299
     13          6           0        1.038908   -0.427798    0.851212
     14          1           0        0.479602   -0.422929    1.800645
     15          7           0        0.393546   -1.326855   -0.098983
     16          6           0       -0.849598   -1.128422   -0.379173
     17          1           0       -2.085723    1.899560    0.789077
     18          1           0        0.036179    2.734779    0.150478
     19          1           0        1.356737    0.449604   -1.728357
     20          1           0        1.985246    2.065090   -1.361950
     21          1           0        3.837611    0.408909   -1.782665
     22          1           0        3.912329    1.105495   -0.161476
     23          1           0        2.808391   -1.651619   -0.908999
     24          1           0        4.284897   -1.325631    0.004187
     25          1           0        2.377247   -1.997904    1.483010
     26          1           0        2.946533   -0.366385    1.863491
     27          1           0       -1.341440   -1.862777   -1.018728
 ---------------------------------------------------------------------
                    Distance matrix (angstroms):
                    1          2          3          4          5
     1  O    0.000000
     2  N    1.239962   0.000000
     3  O    2.208189   1.240218   0.000000
     4  C    2.304168   1.469021   2.321678   0.000000
     5  C    3.492117   2.383338   2.615937   1.363302   0.000000
     6  N    4.700395   3.679960   3.944769   2.429163   1.351993
     7  C    5.317837   4.528001   5.085011   3.082235   2.531586
     8  H    6.258931   5.404559   5.853032   3.985891   3.250745
     9  C    5.944959   5.290820   5.896104   3.921086   3.527986
    10  C    7.065109   6.538406   7.259743   5.122448   4.867146
    11  C    6.786758   6.451905   7.354249   5.058341   5.130218
    12  C    6.168437   5.767943   6.646470   4.372074   4.444533
    13  C    4.820656   4.292216   5.122115   2.868564   2.939482
    14  H    4.682768   4.097453   4.846851   2.801971   2.849591
    15  N    3.911337   3.699358   4.753505   2.461640   3.129178
    16  C    2.660657   2.474371   3.590150   1.454615   2.532280
    17  H    3.770770   2.540457   2.254803   2.099328   1.088506
    18  H    5.443186   4.351996   4.386049   3.268345   2.030769
    19  H    5.326315   4.826082   5.530848   3.579050   3.494213
    20  H    6.521788   5.752496   6.166350   4.475722   3.823699
    21  H    7.655497   7.202714   7.933079   5.853953   5.655196
    22  H    7.815359   7.177102   7.799415   5.727618   5.268171
    23  H    6.327773   6.167162   7.168140   4.885101   5.207326
    24  H    7.798817   7.505571   8.423283   6.118017   6.183953
    25  H    6.230410   6.008402   6.985871   4.733991   5.050102
    26  H    6.931158   6.399667   7.153153   4.984717   4.808671
    27  H    2.278647   2.592919   3.794583   2.159074   3.400928
                    6          7          8          9         10
     6  N    0.000000
     7  C    1.466996   0.000000
     8  H    2.044186   1.103548   0.000000
     9  C    2.518042   1.524993   2.132656   0.000000
    10  C    3.827952   2.493496   2.646846   1.532994   0.000000
    11  C    4.339549   2.912276   3.147136   2.533436   1.533124
    12  C    3.785505   2.465510   2.582666   2.944491   2.533917
    13  C    2.492242   1.529243   2.124839   2.512451   2.960082
    14  H    2.661524   2.161074   2.482555   3.464452   3.960836
    15  N    3.145356   2.506890   3.408552   2.949859   3.499017
    16  C    3.071700   3.042514   4.047022   3.567882   4.482808
    17  H    2.062227   3.426175   3.943564   4.471521   5.829494
    18  H    1.014857   2.087841   2.351092   2.786548   4.124281
    19  H    2.848634   2.154142   3.045153   1.095792   2.171661
    20  H    2.705429   2.159618   2.503146   1.098778   2.175307
    21  H    4.658568   3.447566   3.671169   2.163187   1.096032
    22  H    4.071320   2.768567   2.460814   2.157561   1.099235
    23  H    4.635730   3.355004   3.877926   2.827343   2.159348
    24  H    5.345650   3.888824   3.916983   3.483220   2.171192
    25  H    4.614473   3.424689   3.594082   3.939135   3.483041
    26  H    3.979825   2.695804   2.337421   3.340953   2.822443
    27  H    4.070255   4.064477   5.096594   4.362963   5.210089
                   11         12         13         14         15
    11  C    0.000000
    12  C    1.529356   0.000000
    13  C    2.521924   1.534590   0.000000
    14  H    3.473423   2.165920   1.101940   0.000000
    15  N    2.902019   2.405173   1.458652   2.105486   0.000000
    16  C    4.127710   3.618647   2.360334   2.648792   1.289686
    17  H    6.151053   5.380166   3.896637   3.605291   4.164755
    18  H    4.922388   4.526896   3.390927   3.590376   4.084949
    19  H    2.827799   3.347016   2.743177   3.739590   2.595843
    20  H    3.487116   3.937108   3.465275   4.296419   3.953971
    21  H    2.170587   3.481477   3.933207   4.980792   4.208235
    22  H    2.162774   2.836231   3.410728   4.239058   4.278091
    23  H    1.095785   2.145154   2.779775   3.778242   2.567699
    24  H    1.096777   2.162057   3.472751   4.303767   3.892719
    25  H    2.166936   1.095938   2.157673   2.486462   2.624515
    26  H    2.167687   1.098293   2.160443   2.468380   3.360290
    27  H    4.771089   4.431998   3.349910   3.652153   2.035515
                   16         17         18         19         20
    16  C    0.000000
    17  H    3.472966   0.000000
    18  H    3.998681   2.368094   0.000000
    19  H    3.029583   4.504484   3.239740   0.000000
    20  H    4.381861   4.607289   2.556322   1.771743   0.000000
    21  H    5.128655   6.627351   4.857735   2.481802   2.520157
    22  H    5.264382   6.124599   4.216209   3.068608   2.464875
    23  H    3.733006   6.280660   5.296049   2.682124   3.833622
    24  H    5.152562   7.183503   5.878770   3.837615   4.318763
    25  H    3.825736   5.965725   5.445597   4.164686   4.975478
    26  H    4.474467   5.622498   4.584953   4.011815   4.152062
    27  H    1.090970   4.239965   4.939878   3.623650   5.158758
                   21         22         23         24         25
    21  H    0.000000
    22  H    1.766088   0.000000
    23  H    2.463404   3.062539   0.000000
    24  H    2.530125   2.465081   1.766421   0.000000
    25  H    4.311617   3.833000   2.455098   2.505593   0.000000
    26  H    3.832695   2.683222   3.059021   2.483623   1.769380
    27  H    5.706726   6.094883   4.156649   5.743740   4.483925
                   26         27
    26  H    0.000000
    27  H    5.378949   0.000000
 Symmetry turned off by external request.
 Stoichiometry    C9H13N3O2
 Framework group  C1[X(C9H13N3O2)]
 Deg. of freedom    75
 Full point group                 C1      NOp   1
 Rotational constants (GHZ):           1.6886339           0.4186004           0.3724249
 Standard basis: 6-31G(d) (6D, 7F)
   236 basis functions,   444 primitive gaussians,   236 cartesian basis functions
    52 alpha electrons       52 beta electrons
       nuclear repulsion energy       931.6312321906 Hartrees.
 NAtoms=   27 NActive=   27 NUniq=   27 SFac= 1.00D+00 NAtFMM=   60 NAOKFM=F Big=F
 Integral buffers will be    131072 words long.
 Raffenetti 1 integral format.
 Two-electron integral symmetry is turned off.
 One-electron integrals computed using PRISM.
 NBasis=   236 RedAO= T EigKep=  1.11D-03  NBF=   236
 NBsUse=   236 1.00D-06 EigRej= -1.00D+00 NBFU=   236
 Initial guess from the checkpoint file:  "/home/alexey/tmp/Gau-1412699.chk"
 B after Tr=     0.054735    0.002312   -0.001600
         Rot=    0.999998    0.001842    0.000969    0.000648 Ang=   0.25 deg.
 ExpMin= 1.61D-01 ExpMax= 5.48D+03 ExpMxC= 8.25D+02 IAcc=3 IRadAn=         5 AccDes= 0.00D+00
 Harris functional with IExCor=  205 and IRadAn=       5 diagonalized for initial guess.
 HarFok:  IExCor=  205 AccDes= 0.00D+00 IRadAn=         5 IDoV= 1 UseB2=F ITyADJ=14
 ICtDFT=  3500011 ScaDFX=  1.000000  1.000000  1.000000  1.000000
 FoFCou: FMM=F IPFlag=           0 FMFlag=      100000 FMFlg1=           0
         NFxFlg=           0 DoJE=T BraDBF=F KetDBF=T FulRan=T
         wScrn=  0.000000 ICntrl=       500 IOpCl=  0 I1Cent=   200000004 NGrid=           0
         NMat0=    1 NMatS0=      1 NMatT0=    0 NMatD0=    1 NMtDS0=    0 NMtDT0=    0
 Symmetry not used in FoFCou.
 Keep R1 ints in memory in canonical form, NReq=397720213.
 Requested convergence on RMS density matrix=1.00D-08 within 128 cycles.
 Requested convergence on MAX density matrix=1.00D-06.
 Requested convergence on             energy=1.00D-06.
 No special actions if energy rises.
 SCF Done:  E(RHF) =  -661.288397069     A.U. after   15 cycles
            NFock= 15  Conv=0.45D-08     -V/T= 2.0025
 ExpMin= 1.61D-01 ExpMax= 5.48D+03 ExpMxC= 8.25D+02 IAcc=3 IRadAn=         5 AccDes= 0.00D+00
 HarFok:  IExCor=  205 AccDes= 0.00D+00 IRadAn=         5 IDoV=-2 UseB2=F ITyADJ=14
 ICtDFT= 12500011 ScaDFX=  1.000000  1.000000  1.000000  1.000000
 Range of M.O.s used for correlation:    15   236
 NBasis=   236 NAE=    52 NBE=    52 NFC=    14 NFV=     0
 NROrb=    222 NOA=    38 NOB=    38 NVA=   184 NVB=   184
 Fully direct method using O(ONN) memory.
 JobTyp=1 Pass  1:  I=  15 to  52 NPSUse=  4 ParTrn=T ParDer=T DoDerP=T.
 Spin components of T(2) and E(2):
     alpha-alpha T2 =       0.9143070225D-01 E2=     -0.2725230794D+00
     alpha-beta  T2 =       0.4926074077D+00 E2=     -0.1489269231D+01
     beta-beta   T2 =       0.9143070225D-01 E2=     -0.2725230794D+00
 ANorm=    0.1294399016D+01
 E2 =    -0.2034315390D+01 EUMP2 =    -0.66332271245884D+03
          IDoAtm=111111111111111111111111111
          Differentiating once with respect to electric field.
                with respect to dipole field.
          Differentiating once with respect to nuclear coordinates.
 Keep R1 ints in memory in canonical form, NReq=397723379.
          There are     1 degrees of freedom in the 1st order CPHF.  IDoFFX=0 NUNeed=     1.
 LinEq1:  Iter=  0 NonCon=     1 RMS=4.59D-03 Max=8.80D-02 NDo=     1
[...]
    27  H    4.714455   4.416542   3.356223   3.662718   2.027523
                   16         17         18         19         20
    16  C    0.000000
    17  H    3.463664   0.000000
    18  H    4.077261   2.214386   0.000000
    19  H    2.981473   4.354903   3.549332   0.000000
    20  H    4.366716   4.498494   2.934568   1.768656   0.000000
    21  H    5.089679   6.543292   5.118955   2.498749   2.521478
    22  H    5.244504   6.102494   4.328920   3.070019   2.461621
    23  H    3.693072   6.240093   5.428544   2.704680   3.843609
    24  H    5.133389   7.188308   5.936973   3.849838   4.317535
    25  H    3.827505   6.039234   5.343235   4.172565   4.986140
    26  H    4.498398   5.728559   4.457716   4.037051   4.183543
    27  H    1.088986   4.233767   5.072923   3.564774   5.131655
                   21         22         23         24         25
    21  H    0.000000
    22  H    1.758785   0.000000
    23  H    2.469236   3.062212   0.000000
    24  H    2.517098   2.459735   1.764602   0.000000
    25  H    4.312134   3.840010   2.444117   2.519859   0.000000
    26  H    3.847037   2.705100   3.060307   2.491445   1.767854
    27  H    5.635286   6.048146   4.079090   5.686150   4.456929
                   26         27
    26  H    0.000000
    27  H    5.377629   0.000000
 Symmetry turned off by external request.
 Stoichiometry    C9H13N3O2
 Framework group  C1[X(C9H13N3O2)]
 Deg. of freedom    75
 Full point group                 C1      NOp   1
 Rotational constants (GHZ):           1.6685830           0.4180019           0.3742288

 **********************************************************************

            Population analysis using the SCF Density.

 **********************************************************************

 Alpha  occ. eigenvalues --  -20.59262 -20.58843 -15.84754 -15.64336 -15.55993
 Alpha  occ. eigenvalues --  -11.35182 -11.29681 -11.29414 -11.28669 -11.27110
 Alpha  occ. eigenvalues --  -11.23708 -11.23200 -11.22696 -11.22082  -1.57124
 Alpha  occ. eigenvalues --   -1.36706  -1.31074  -1.23018  -1.14689  -1.09767
 Alpha  occ. eigenvalues --   -1.02830  -1.01282  -0.94420  -0.89609  -0.85545
 Alpha  occ. eigenvalues --   -0.82420  -0.78620  -0.77377  -0.75183  -0.72089
 Alpha  occ. eigenvalues --   -0.69639  -0.69527  -0.67870  -0.64774  -0.63825
 Alpha  occ. eigenvalues --   -0.62076  -0.60274  -0.57926  -0.56998  -0.55064
 Alpha  occ. eigenvalues --   -0.54512  -0.50743  -0.50130  -0.48644  -0.48075
 Alpha  occ. eigenvalues --   -0.47313  -0.46230  -0.45963  -0.43687  -0.41698
 Alpha  occ. eigenvalues --   -0.39704  -0.33845
 Alpha virt. eigenvalues --    0.07382   0.11590   0.17148   0.21953   0.24376
 Alpha virt. eigenvalues --    0.25436   0.26775   0.28322   0.29100   0.29512
 Alpha virt. eigenvalues --    0.30592   0.31905   0.31959   0.32771   0.33859
 Alpha virt. eigenvalues --    0.34436   0.35929   0.37200   0.38669   0.40410
 Alpha virt. eigenvalues --    0.41330   0.42736   0.45056   0.46081   0.46684
 Alpha virt. eigenvalues --    0.47352   0.49176   0.53989   0.57763   0.59342
 Alpha virt. eigenvalues --    0.64061   0.69481   0.69899   0.72878   0.74232
 Alpha virt. eigenvalues --    0.75129   0.75789   0.76444   0.78685   0.79163
 Alpha virt. eigenvalues --    0.80948   0.84406   0.85263   0.85976   0.87936
 Alpha virt. eigenvalues --    0.89516   0.90787   0.91406   0.92729   0.94252
 Alpha virt. eigenvalues --    0.96298   0.97652   0.99257   1.01340   1.02218
 Alpha virt. eigenvalues --    1.03377   1.05635   1.07033   1.07576   1.08222
 Alpha virt. eigenvalues --    1.10081   1.11667   1.11879   1.12237   1.13704
 Alpha virt. eigenvalues --    1.14639   1.14914   1.15836   1.16994   1.18567
 Alpha virt. eigenvalues --    1.19194   1.20941   1.22480   1.22686   1.23948
 Alpha virt. eigenvalues --    1.25177   1.25755   1.26718   1.28495   1.28851
 Alpha virt. eigenvalues --    1.30025   1.33085   1.35134   1.35647   1.38284
 Alpha virt. eigenvalues --    1.40941   1.42701   1.47753   1.50468   1.54266
 Alpha virt. eigenvalues --    1.58084   1.58934   1.61052   1.64166   1.66759
 Alpha virt. eigenvalues --    1.68963   1.70828   1.71627   1.75361   1.77414
 Alpha virt. eigenvalues --    1.81464   1.83836   1.87561   1.90841   1.94046
 Alpha virt. eigenvalues --    1.95869   1.96419   2.00239   2.01582   2.02556
 Alpha virt. eigenvalues --    2.03865   2.04869   2.08632   2.09658   2.12852
 Alpha virt. eigenvalues --    2.12931   2.15289   2.18010   2.20122   2.22015
 Alpha virt. eigenvalues --    2.24030   2.24752   2.25404   2.28218   2.29552
 Alpha virt. eigenvalues --    2.31570   2.33344   2.33836   2.36289   2.38891
 Alpha virt. eigenvalues --    2.39957   2.42121   2.43178   2.45693   2.47373
 Alpha virt. eigenvalues --    2.49652   2.52343   2.53195   2.55072   2.61645
 Alpha virt. eigenvalues --    2.62131   2.64930   2.67095   2.69853   2.70434
 Alpha virt. eigenvalues --    2.71975   2.73109   2.76187   2.78411   2.85307
 Alpha virt. eigenvalues --    2.87900   2.89393   2.92680   2.93148   2.96057
 Alpha virt. eigenvalues --    2.99305   3.01481   3.04567   3.06131   3.07925
 Alpha virt. eigenvalues --    3.09755   3.15233   3.20980   3.24979   3.27027
 Alpha virt. eigenvalues --    3.34024   3.38294   3.38657   3.50774   3.64456
 Alpha virt. eigenvalues --    4.13407   4.26918   4.30989   4.39026   4.47407
 Alpha virt. eigenvalues --    4.56374   4.62047   4.62279   4.73430   4.80212
 Alpha virt. eigenvalues --    4.99069   5.00899   5.04537   5.11095
          Condensed to atoms (all electrons):
               1          2          3          4          5          6
     1  O    8.311822   0.308251  -0.081118  -0.083155   0.004236  -0.000016
     2  N    0.308251   5.717278   0.294861   0.267045  -0.050147   0.001125
     3  O   -0.081118   0.294861   8.354595  -0.089326   0.002367   0.000798
     4  C   -0.083155   0.267045  -0.089326   5.230165   0.544973  -0.050202
     5  C    0.004236  -0.050147   0.002367   0.544973   4.710919   0.324814
     6  N   -0.000016   0.001125   0.000798  -0.050202   0.324814   7.188553
     7  C    0.000002  -0.000137   0.000000   0.005931  -0.029993   0.167639
     8  H   -0.000000   0.000002   0.000000  -0.000326   0.003098  -0.049612
     9  C   -0.000000  -0.000002  -0.000000   0.001029   0.000613  -0.060673
    10  C    0.000000   0.000000   0.000000  -0.000044  -0.000055   0.003724
    11  C   -0.000000  -0.000000  -0.000000  -0.000013   0.000018  -0.000191
    12  C    0.000000   0.000002  -0.000000  -0.000227  -0.000064   0.003871
    13  C   -0.000018  -0.000016  -0.000002  -0.011128  -0.001028  -0.049429
    14  H   -0.000002  -0.000087   0.000001   0.002637   0.005739  -0.006991
    15  N    0.000538   0.001991  -0.000018  -0.065945  -0.002890   0.000924
    16  C   -0.000521  -0.030258   0.003002   0.329617  -0.054524  -0.002743
    17  H    0.000206  -0.007443   0.015149  -0.021656   0.377716  -0.037443
    18  H    0.000001  -0.000050   0.000011   0.001759  -0.032278   0.338852
    19  H    0.000001  -0.000009   0.000000  -0.001329   0.001284  -0.000508
    20  H    0.000000  -0.000000   0.000000  -0.000077   0.000135  -0.000277
    21  H   -0.000000   0.000000  -0.000000   0.000001   0.000001  -0.000076
    22  H   -0.000000   0.000000  -0.000000  -0.000000  -0.000003  -0.000116
    23  H    0.000000  -0.000000   0.000000   0.000039  -0.000001  -0.000030
    24  H    0.000000   0.000000   0.000000   0.000000  -0.000000   0.000006
    25  H    0.000000  -0.000000   0.000000   0.000023  -0.000003  -0.000091
    26  H    0.000000  -0.000000   0.000000   0.000007  -0.000005  -0.000052
    27  H    0.007658  -0.000758   0.000063  -0.062716   0.002228   0.000007
               7          8          9         10         11         12
     1  O    0.000002  -0.000000  -0.000000   0.000000  -0.000000   0.000000
     2  N   -0.000137   0.000002  -0.000002   0.000000  -0.000000   0.000002
     3  O    0.000000   0.000000  -0.000000   0.000000  -0.000000  -0.000000
     4  C    0.005931  -0.000326   0.001029  -0.000044  -0.000013  -0.000227
     5  C   -0.029993   0.003098   0.000613  -0.000055   0.000018  -0.000064
     6  N    0.167639  -0.049612  -0.060673   0.003724  -0.000191   0.003871
     7  C    5.026343   0.417133   0.350566  -0.054944  -0.009027  -0.061163
     8  H    0.417133   0.537180  -0.053885   0.000647  -0.000319  -0.001926
     9  C    0.350566  -0.053885   5.155040   0.324991  -0.050306  -0.005381
    10  C   -0.054944   0.000647   0.324991   5.119734   0.336939  -0.060993
    11  C   -0.009027  -0.000319  -0.050306   0.336939   5.119697   0.336012
    12  C   -0.061163  -0.001926  -0.005381  -0.060993   0.336012   5.119060
    13  C    0.337513  -0.037797  -0.060808  -0.000060  -0.050589   0.371582
    14  H   -0.047009  -0.000636   0.004409  -0.000406   0.004206  -0.036516
    15  N   -0.058227   0.003926  -0.014890   0.001500  -0.013006  -0.082353
    16  C   -0.002604   0.000036  -0.001398  -0.000029  -0.000020   0.002698
    17  H    0.001789  -0.000049  -0.000060   0.000001   0.000000   0.000000
    18  H   -0.021763  -0.004910   0.001621  -0.000087   0.000003  -0.000116
    19  H   -0.036983   0.004322   0.390858  -0.032088  -0.002198   0.000700
    20  H   -0.042418  -0.002116   0.399564  -0.035269   0.003921  -0.000421
    21  H    0.004618  -0.000073  -0.036338   0.402480  -0.034857   0.004347
    22  H   -0.004853   0.003552  -0.047008   0.397701  -0.045511  -0.000993
    23  H    0.000600   0.000033  -0.001951  -0.038955   0.399150  -0.037789
    24  H   -0.000126  -0.000101   0.004378  -0.038419   0.402353  -0.038729
    25  H    0.005129  -0.000033  -0.000420   0.004184  -0.033338   0.398097
    26  H   -0.003843   0.001643   0.000978  -0.002229  -0.041554   0.396599
    27  H   -0.000402   0.000009  -0.000056   0.000007   0.000011  -0.000030
              13         14         15         16         17         18
     1  O   -0.000018  -0.000002   0.000538  -0.000521   0.000206   0.000001
     2  N   -0.000016  -0.000087   0.001991  -0.030258  -0.007443  -0.000050
     3  O   -0.000002   0.000001  -0.000018   0.003002   0.015149   0.000011
     4  C   -0.011128   0.002637  -0.065945   0.329617  -0.021656   0.001759
     5  C   -0.001028   0.005739  -0.002890  -0.054524   0.377716  -0.032278
     6  N   -0.049429  -0.006991   0.000924  -0.002743  -0.037443   0.338852
     7  C    0.337513  -0.047009  -0.058227  -0.002604   0.001789  -0.021763
     8  H   -0.037797  -0.000636   0.003926   0.000036  -0.000049  -0.004910
     9  C   -0.060808   0.004409  -0.014890  -0.001398  -0.000060   0.001621
    10  C   -0.000060  -0.000406   0.001500  -0.000029   0.000001  -0.000087
    11  C   -0.050589   0.004206  -0.013006  -0.000020   0.000000   0.000003
    12  C    0.371582  -0.036516  -0.082353   0.002698   0.000000  -0.000116
    13  C    5.039605   0.403311   0.246068  -0.070130  -0.000092   0.002945
    14  H    0.403311   0.529275  -0.037529  -0.004377   0.000080  -0.000116
    15  N    0.246068  -0.037529   6.970375   0.580500  -0.000066  -0.000137
    16  C   -0.070130  -0.004377   0.580500   4.741409   0.002501  -0.000212
    17  H   -0.000092   0.000080  -0.000066   0.002501   0.387588  -0.003187
    18  H    0.002945  -0.000116  -0.000137  -0.000212  -0.003187   0.311666
    19  H   -0.007414   0.000108   0.007643   0.003095   0.000015  -0.000153
    20  H    0.004351  -0.000064   0.000139  -0.000037  -0.000001   0.000620
    21  H   -0.000435   0.000010  -0.000040   0.000004  -0.000000   0.000002
    22  H    0.000023  -0.000055   0.000019  -0.000002   0.000000   0.000000
    23  H   -0.007588   0.000003   0.008643   0.000095   0.000000   0.000000
    24  H    0.004701  -0.000057   0.000135   0.000008   0.000000  -0.000000
    25  H   -0.035387  -0.002778   0.000365  -0.000036  -0.000000   0.000002
    26  H   -0.047533  -0.001037   0.004924  -0.000060   0.000000   0.000000
    27  H    0.004938  -0.000179  -0.040177   0.403495  -0.000075   0.000000
              19         20         21         22         23         24
     1  O    0.000001   0.000000  -0.000000  -0.000000   0.000000   0.000000
     2  N   -0.000009  -0.000000   0.000000   0.000000  -0.000000   0.000000
     3  O    0.000000   0.000000  -0.000000  -0.000000   0.000000   0.000000
     4  C   -0.001329  -0.000077   0.000001  -0.000000   0.000039   0.000000
     5  C    0.001284   0.000135   0.000001  -0.000003  -0.000001  -0.000000
     6  N   -0.000508  -0.000277  -0.000076  -0.000116  -0.000030   0.000006
     7  C   -0.036983  -0.042418   0.004618  -0.004853   0.000600  -0.000126
     8  H    0.004322  -0.002116  -0.000073   0.003552   0.000033  -0.000101
     9  C    0.390858   0.399564  -0.036338  -0.047008  -0.001951   0.004378
    10  C   -0.032088  -0.035269   0.402480   0.397701  -0.038955  -0.038419
    11  C   -0.002198   0.003921  -0.034857  -0.045511   0.399150   0.402353
    12  C    0.000700  -0.000421   0.004347  -0.000993  -0.037789  -0.038729
    13  C   -0.007414   0.004351  -0.000435   0.000023  -0.007588   0.004701
    14  H    0.000108  -0.000064   0.000010  -0.000055   0.000003  -0.000057
    15  N    0.007643   0.000139  -0.000040   0.000019   0.008643   0.000135
    16  C    0.003095  -0.000037   0.000004  -0.000002   0.000095   0.000008
    17  H    0.000015  -0.000001  -0.000000   0.000000   0.000000   0.000000
    18  H   -0.000153   0.000620   0.000002   0.000000   0.000000  -0.000000
    19  H    0.503243  -0.024569  -0.002790   0.003955   0.001505  -0.000067
    20  H   -0.024569   0.539550  -0.002679  -0.003001  -0.000045  -0.000082
    21  H   -0.002790  -0.002679   0.523558  -0.027391  -0.002893  -0.002234
    22  H    0.003955  -0.003001  -0.027391   0.571855   0.004137  -0.003663
    23  H    0.001505  -0.000045  -0.002893   0.004137   0.498522  -0.025481
    24  H   -0.000067  -0.000082  -0.002234  -0.003663  -0.025481   0.538266
    25  H   -0.000029   0.000012  -0.000087  -0.000081  -0.002319  -0.002282
    26  H    0.000019  -0.000030  -0.000081   0.002385   0.004075  -0.003052
    27  H    0.000081   0.000000  -0.000000   0.000000  -0.000038  -0.000000
              25         26         27
     1  O    0.000000   0.000000   0.007658
     2  N   -0.000000  -0.000000  -0.000758
     3  O    0.000000   0.000000   0.000063
     4  C    0.000023   0.000007  -0.062716
     5  C   -0.000003  -0.000005   0.002228
     6  N   -0.000091  -0.000052   0.000007
     7  C    0.005129  -0.003843  -0.000402
     8  H   -0.000033   0.001643   0.000009
     9  C   -0.000420   0.000978  -0.000056
    10  C    0.004184  -0.002229   0.000007
    11  C   -0.033338  -0.041554   0.000011
    12  C    0.398097   0.396599  -0.000030
    13  C   -0.035387  -0.047533   0.004938
    14  H   -0.002778  -0.001037  -0.000179
    15  N    0.000365   0.004924  -0.040177
    16  C   -0.000036  -0.000060   0.403495
    17  H   -0.000000   0.000000  -0.000075
    18  H    0.000002   0.000000   0.000000
    19  H   -0.000029   0.000019   0.000081
    20  H    0.000012  -0.000030   0.000000
    21  H   -0.000087  -0.000081  -0.000000
    22  H   -0.000081   0.002385   0.000000
    23  H   -0.002319   0.004075  -0.000038
    24  H   -0.002282  -0.003052  -0.000000
    25  H    0.506628  -0.024184  -0.000012
    26  H   -0.024184   0.563348   0.000001
    27  H   -0.000012   0.000001   0.429781
 Mulliken charges:
               1
     1  O   -0.467884
     2  N    0.498353
     3  O   -0.500385
     4  C    0.002916
     5  C    0.192850
     6  N   -0.771862
     7  C    0.056227
     8  H    0.180203
     9  C   -0.300871
    10  C   -0.328328
    11  C   -0.321381
    12  C   -0.306265
    13  C   -0.035582
    14  H    0.188061
    15  N   -0.512416
    16  C    0.100491
    17  H    0.285026
    18  H    0.405528
    19  H    0.191306
    20  H    0.162794
    21  H    0.174951
    22  H    0.149050
    23  H    0.200288
    24  H    0.164447
    25  H    0.186638
    26  H    0.149679
    27  H    0.256165
 Sum of Mulliken charges =  -0.00000
 Mulliken charges with hydrogens summed into heavy atoms:
               1
     1  O   -0.467884
     2  N    0.498353
     3  O   -0.500385
     4  C    0.002916
     5  C    0.477876
     6  N   -0.366334
     7  C    0.236430
     9  C    0.053229
    10  C   -0.004327
    11  C    0.043354
    12  C    0.030053
    13  C    0.152479
    15  N   -0.512416
    16  C    0.356657
 Electronic spatial extent (au):  <R**2>=           3003.6894
 Charge=             -0.0000 electrons
 Dipole moment (field-independent basis, Debye):
    X=              5.4109    Y=              4.6701    Z=              1.8248  Tot=              7.3768
 Quadrupole moment (field-independent basis, Debye-Ang):
   XX=           -105.9394   YY=            -79.1158   ZZ=            -81.8018
   XY=             -1.0631   XZ=             -2.2894   YZ=              1.9705
 Traceless Quadrupole moment (field-independent basis, Debye-Ang):
   XX=            -16.9871   YY=              9.8365   ZZ=              7.1506
   XY=             -1.0631   XZ=             -2.2894   YZ=              1.9705
 Octapole moment (field-independent basis, Debye-Ang**2):
  XXX=             90.7094  YYY=             32.9752  ZZZ=              2.5555  XYY=             -5.5597
  XXY=              6.4689  XXZ=             14.2925  XZZ=             -7.9508  YZZ=              0.9788
  YYZ=             11.2036  XYZ=              1.4487
 Hexadecapole moment (field-independent basis, Debye-Ang**3):
 XXXX=          -3364.6613 YYYY=           -592.1586 ZZZZ=           -321.9657 XXXY=             -0.5307
 XXXZ=            -70.6494 YYYX=              5.5735 YYYZ=             23.8317 ZZZX=            -24.6846
 ZZZY=              2.8563 XXYY=           -621.0050 XXZZ=           -532.3399 YYZZ=           -157.4279
 XXYZ=             -9.6392 YYXZ=            -11.5075 ZZXY=              3.5828
 N-N= 9.311189471933D+02 E-N=-3.408949054749D+03  KE= 6.596234650684D+02
 Unable to Open any file for archive entry.
 1\1\GINC-LOTUS\FOpt\RMP2-FC\6-31G(d)\C9H13N3O2\ALEXEY\02-Jul-2023\0\\#
 MP2/6-31G* SCF=Tight Opt=(ModRedun, MaxCycle=20 ) NoSymm\\MolName:\\0,
 1\O,-3.4944998998,-1.3087421829,-0.6656225673\N,-3.1147865933,-0.20070
 14688,-0.2417555186\O,-3.8829946881,0.7632546363,-0.0572306966\C,-1.69
 88034022,-0.0499042402,0.077382677\C,-1.3074864292,1.2476489586,0.3094
 497447\N,-0.0623664389,1.7402738223,0.400418381\C,1.2079607121,1.02570
 0764,0.358401795\H,1.8653212735,1.5773690054,1.0470643268\C,1.88118724
 79,1.0118534606,-1.0121315691\C,3.2856642876,0.4146456201,-0.865676655
 2\C,3.2587044877,-0.9683913275,-0.2093976573\C,2.492453074,-0.95610944
 33,1.1151706069\C,1.0754407908,-0.4129823297,0.8983342917\H,0.51836500
 6,-0.3739955072,1.8479671704\N,0.41318708,-1.3205371618,-0.0295481907\
 C,-0.8405683185,-1.1544205792,-0.3079951014\H,-2.0851624481,1.94549769
 64,0.6076781734\H,-0.0093429151,2.7131922702,0.6792710741\H,1.27471397
 98,0.4167655379,-1.7030343532\H,1.9336150519,2.0320636338,-1.411821375
 8\H,3.768579286,0.3585768648,-1.8479395719\H,3.8958966366,1.0968218822
 ,-0.256679311\H,2.7696203619,-1.6816580897,-0.8801327278\H,4.283416520
 6,-1.3231490935,-0.0472384928\H,2.4207864861,-1.9702868457,1.521682196
 2\H,3.0162244427,-0.3403675069,1.8595029274\H,-1.3021355923,-1.9213983
 762,-0.928149576\\Version=ES64L-G16RevC.02\HF=-661.2958197\MP2=-663.33
 129\RMSD=6.624e-09\RMSF=2.837e-03\Dipole=1.9817913,1.6491556,0.6597154
 \PG=C01 [X(C9H13N3O2)]\\@
 The archive entry for this job was punched.


 UNDER MOST GREENE GRASSE LY MOST GREATE SNAKES.
 -- PROVERBS AND REASONS OF THE YEAR 1585
           AS REPRINTED IN PAISLEY MAGAZINE 1828.
 Job cpu time:       0 days  1 hours 12 minutes 13.1 seconds.
 Elapsed time:       0 days  0 hours 21 minutes 42.1 seconds.
 File lengths (MBytes):  RWF=     36 Int=      0 D2E=      0 Chk=      7 Scr=      1
 Normal termination of Gaussian 16 at Sun Jul  2 00:28:29 2023.
