 Entering Gaussian System, Link 0=g09
 Initial command:
 /home/ana/programs/g09/l1.exe /home/ana/programs/g09/scratch/Gau-700787.inp -scrdir=/home/ana/programs/g09/scratch/
 Entering Link 1 = /home/ana/programs/g09/l1.exe PID=    700789.
  
 Copyright (c) 1988,1990,1992,1993,1995,1998,2003,2009, Gaussian, Inc.
                  All Rights Reserved.
  
 This is part of the Gaussian(R) 09 program.  It is based on
 the Gaussian(R) 03 system (copyright 2003, Gaussian, Inc.),
 the Gaussian(R) 98 system (copyright 1998, Gaussian, Inc.),
 the Gaussian(R) 94 system (copyright 1995, Gaussian, Inc.),
 the Gaussian 92(TM) system (copyright 1992, Gaussian, Inc.),
 the Gaussian 90(TM) system (copyright 1990, Gaussian, Inc.),
 the Gaussian 88(TM) system (copyright 1988, Gaussian, Inc.),
 the Gaussian 86(TM) system (copyright 1986, Carnegie Mellon
 University), and the Gaussian 82(TM) system (copyright 1983,
 Carnegie Mellon University). Gaussian is a federally registered
 trademark of Gaussian, Inc.
  
 This software contains proprietary and confidential information,
 including trade secrets, belonging to Gaussian, Inc.
  
 This software is provided under written license and may be
 used, copied, transmitted, or stored only in accord with that
 written license.
  
 The following legend is applicable only to US Government
 contracts under FAR:
  
                    RESTRICTED RIGHTS LEGEND
  
 Use, reproduction and disclosure by the US Government is
 subject to restrictions as set forth in subparagraphs (a)
 and (c) of the Commercial Computer Software - Restricted
 Rights clause in FAR 52.227-19.
  
 Gaussian, Inc.
 340 Quinnipiac St., Bldg. 40, Wallingford CT 06492
  
  
 ---------------------------------------------------------------
 Warning -- This program may not be used in any manner that
 competes with the business of Gaussian, Inc. or will provide
 assistance to any competitor of Gaussian, Inc.  The licensee
 of this program is prohibited from giving any competitor of
 Gaussian, Inc. access to this program.  By using this program,
 the user acknowledges that Gaussian, Inc. is engaged in the
 business of creating and licensing software in the field of
 computational chemistry and represents and warrants to the
 licensee that it is not a competitor of Gaussian, Inc. and that
 it will not use this program in any manner prohibited above.
 ---------------------------------------------------------------
  

 Cite this work as:
 Gaussian 09, Revision A.01,
 M. J. Frisch, G. W. Trucks, H. B. Schlegel, G. E. Scuseria, 
 M. A. Robb, J. R. Cheeseman, G. Scalmani, V. Barone, B. Mennucci, 
 G. A. Petersson, H. Nakatsuji, M. Caricato, X. Li, H. P. Hratchian, 
 A. F. Izmaylov, J. Bloino, G. Zheng, J. L. Sonnenberg, M. Hada, 
 M. Ehara, K. Toyota, R. Fukuda, J. Hasegawa, M. Ishida, T. Nakajima, 
 Y. Honda, O. Kitao, H. Nakai, T. Vreven, J. A. Montgomery, Jr., 
 J. E. Peralta, F. Ogliaro, M. Bearpark, J. J. Heyd, E. Brothers, 
 K. N. Kudin, V. N. Staroverov, R. Kobayashi, J. Normand, 
 K. Raghavachari, A. Rendell, J. C. Burant, S. S. Iyengar, J. Tomasi, 
 M. Cossi, N. Rega, J. M. Millam, M. Klene, J. E. Knox, J. B. Cross, 
 V. Bakken, C. Adamo, J. Jaramillo, R. Gomperts, R. E. Stratmann, 
 O. Yazyev, A. J. Austin, R. Cammi, C. Pomelli, J. W. Ochterski, 
 R. L. Martin, K. Morokuma, V. G. Zakrzewski, G. A. Voth, 
 P. Salvador, J. J. Dannenberg, S. Dapprich, A. D. Daniels, 
 O. Farkas, J. B. Foresman, J. V. Ortiz, J. Cioslowski, 
 and D. J. Fox, Gaussian, Inc., Wallingford CT, 2009.
 
 ******************************************
 Gaussian 09:  EM64L-G09RevA.01  8-May-2009
                24-Sep-2021 
 ******************************************
 %NPROC=4
 Will use up to    4 processors via shared memory.
 %NoSave
 ------------------------------
 #HF/6-31G* Opt=Z-matrix NoSymm
 ------------------------------
 1/10=7,18=40,38=1/1,3;
 2/12=2,15=1,17=6,18=5,29=3,40=1/2;
 3/5=1,6=6,7=1,11=9,16=1,25=1,30=1,71=1/1,2,3;
 4//1;
 5/5=2,38=5/2;
 6/7=2,8=2,9=2,10=2,28=1/1;
 7/29=1,30=1/1,2,3,16;
 1/10=7,18=40/3(2);
 2/15=1,29=3/2;
 99//99;
 2/15=1,29=3/2;
 3/5=1,6=6,7=1,11=9,16=1,25=1,30=1,71=1/1,2,3;
 4/5=5,16=3/1;
 5/5=2,38=5/2;
 7/30=1/1,2,3,16;
 1/18=40/3(-5);
 2/15=1,29=3/2;
 6/7=2,8=2,9=2,10=2,19=2,28=1/1;
 99/9=1/99;
 ------------------------------
 water interaction with atom F7
 ------------------------------
 Symbolic Z-matrix:
 Charge =  0 Multiplicity = 1
 9                    -1   -1.9693    2.05368   0.00007 
 6                    -1   -1.22225   0.94423   0.00003 
 6                    -1    0.14003   1.0574   -0.00002 
 6                    -1    0.92795  -0.12364  -0.00008 
 6                    -1    2.41466  -0.01865  -0.00001 
 9                    -1    3.00708  -1.23461  -0.00056 
 9                    -1    2.85829   0.65448  -1.08602 
 9                    -1    2.85827   0.6535    1.08665 
 6                    -1    0.30654  -1.34149  -0.00009 
 7                    -1   -1.05417  -1.38997  -0.00006 
 6                    -1   -1.9305   -0.3121    0. 
 16                   -1   -3.57098  -0.50661   0.00003 
 1                    -1    0.59686   2.0431   -0.00002 
 1                    -1    0.83176  -2.28899  -0.00015 
 1                    -1   -1.52148  -2.29639  -0.00009 
 X                    7    RDUM     5    ADUM     4    DDUM     0
 X                    16   RDUM     7    ADUM     5    DDUM     0
 H1                   7    RX       16   ADUM     17   DH1      0
 X                    18   RDUM     7    ADUM     16   DDUM     0
 OH2                  18   ROH      19   ADUM     7    DOH2     0
 H2                   20   ROH      18   AHOH     16   DH2      0
       Variables:
  RX                    2.3258                   
       Constants:
  RDUM                  1.                       
  ROH                   0.9572                   
  ADUM                 90.                       
  AHOH                104.52                     
  DDUM                  0.                       
  DH1                 180.                       
  DOH2                180.                       
  DH2                   0.                       
 

 GradGradGradGradGradGradGradGradGradGradGradGradGradGradGradGradGradGrad
 Berny optimization.
 Initialization pass.
                       ----------------------------
                       !    Initial Parameters    !
                       ! (Angstroms and Degrees)  !
 ----------------------                            ----------------------
 !      Name          Value   Derivative information (Atomic Units)     !
 ------------------------------------------------------------------------
 !       RX          2.3258   estimate D2E/DX2                          !
 !      RDUM         1.0      Frozen                                    !
 !       ROH         0.9572   Frozen                                    !
 !      ADUM        90.0      Frozen                                    !
 !      AHOH       104.52     Frozen                                    !
 !      DDUM         0.0      Frozen                                    !
 !       DH1       180.0      Frozen                                    !
 !      DOH2       180.0      Frozen                                    !
 !       DH2         0.0      Frozen                                    !
 ------------------------------------------------------------------------
 Trust Radius=3.00D-01 FncErr=1.00D-07 GrdErr=1.00D-07
 Number of steps in this run=  20 maximum allowed number of steps= 100.
 GradGradGradGradGradGradGradGradGradGradGradGradGradGradGradGradGradGrad

 ---------------------------------------------------------------------------------------------------
                            Z-MATRIX (ANGSTROMS AND DEGREES)
   CD    Cent   Atom    N1       Length/X        N2       Alpha/Y        N3        Beta/Z          J
 ---------------------------------------------------------------------------------------------------
      1      1  F       -1  -1.969300          2.053680          0.000070
      2      2  C       -1  -1.222250          0.944230          0.000030
      3      3  C       -1   0.140030          1.057400         -0.000020
      4      4  C       -1   0.927950         -0.123640         -0.000080
      5      5  C       -1   2.414660         -0.018650         -0.000010
      6      6  F       -1   3.007080         -1.234610         -0.000560
      7      7  F       -1   2.858290          0.654480         -1.086020
      8      8  F       -1   2.858270          0.653500          1.086650
      9      9  C       -1   0.306540         -1.341490         -0.000090
     10     10  N       -1  -1.054170         -1.389970         -0.000060
     11     11  C       -1  -1.930500         -0.312100          0.000000
     12     12  S       -1  -3.570980         -0.506610          0.000030
     13     13  H       -1   0.596860          2.043100         -0.000020
     14     14  H       -1   0.831760         -2.288990         -0.000150
     15     15  H       -1  -1.521480         -2.296390         -0.000090
     16         X        7   1.000000(    15)      5   90.000(    34)      4    0.000(    52)      0
     17         X       16   1.000000(    16)      7   90.000(    35)      5    0.000(    53)      0
     18     16  H        7   2.325800(    17)     16   90.000(    36)     17  180.000(    54)      0
     19         X       18   1.000000(    18)      7   90.000(    37)     16    0.000(    55)      0
     20     17  O       18   0.957200(    19)     19   90.000(    38)      7  180.000(    56)      0
     21     18  H       20   0.957200(    20)     18  104.520(    39)     16    0.000(    57)      0
 ---------------------------------------------------------------------------------------------------
                         Z-Matrix orientation:                         
 ---------------------------------------------------------------------
 Center     Atomic      Atomic             Coordinates (Angstroms)
 Number     Number       Type             X           Y           Z
 ---------------------------------------------------------------------
      1          9           0       -1.969300    2.053680    0.000070
      2          6           0       -1.222250    0.944230    0.000030
      3          6           0        0.140030    1.057400   -0.000020
      4          6           0        0.927950   -0.123640   -0.000080
      5          6           0        2.414660   -0.018650   -0.000010
      6          9           0        3.007080   -1.234610   -0.000560
      7          9           0        2.858290    0.654480   -1.086020
      8          9           0        2.858270    0.653500    1.086650
      9          6           0        0.306540   -1.341490   -0.000090
     10          7           0       -1.054170   -1.389970   -0.000060
     11          6           0       -1.930500   -0.312100    0.000000
     12         16           0       -3.570980   -0.506610    0.000030
     13          1           0        0.596860    2.043100   -0.000020
     14          1           0        0.831760   -2.288990   -0.000150
     15          1           0       -1.521480   -2.296390   -0.000090
     16         -1           0        1.915565    0.772301   -1.398091
     17         -1           0        1.587564    0.274618   -0.595142
     18          1           0        3.621154    1.811992   -2.953518
     19         -1           0        2.678430    1.929813   -3.265589
     20          8           0        3.935117    2.288374   -3.722101
     21          1           0        3.140278    2.516988   -4.203972
 ---------------------------------------------------------------------
                    Distance matrix (angstroms):
                    1          2          3          4          5
     1  F    0.000000
     2  C    1.337521   0.000000
     3  C    2.332777   1.366973   0.000000
     4  C    3.624194   2.400772   1.419744   0.000000
     5  C    4.849088   3.762214   2.516312   1.490413   0.000000
     6  F    5.964663   4.757581   3.670597   2.357337   1.352598
     7  F    5.142274   4.232525   2.954772   2.347541   1.352527
     8  F    5.142625   4.232719   2.955134   2.347566   1.352555
     9  C    4.087374   2.749857   2.404662   1.367227   2.488790
    10  N    3.563171   2.340244   2.723184   2.352104   3.730054
    11  C    2.366098   1.442215   2.482463   2.864656   4.355058
    12  S    3.020011   2.760701   4.027123   4.515201   6.005497
    13  H    2.566182   2.125247   1.086415   2.191890   2.748674
    14  H    5.167661   3.830492   3.417136   2.167485   2.767673
    15  H    4.373060   3.254406   3.742796   3.274225   4.547669
    16  X    4.323073   3.439504   2.277808   1.931975   1.682061
    17  X    4.021271   2.949181   1.749935   0.973550   1.060318
    18  H    6.327344   5.738904   4.627179   4.441038   3.678327
    19  X    5.681660   5.181790   4.227117   4.236083   3.811835
    20  O    6.983679   6.500724   5.456360   5.358573   4.635527
    21  H    6.632979   6.259301   5.367038   5.435073   4.962789
                    6          7          8          9         10
     6  F    0.000000
     7  F    2.183809   0.000000
     8  F    2.183834   2.172670   0.000000
     9  C    2.702654   3.416807   3.416477   0.000000
    10  N    4.064221   4.546034   4.545756   1.361573   0.000000
    11  C    5.023019   5.004620   5.004549   2.462517   1.389157
    12  S    6.618222   6.622926   6.622828   3.966382   2.667332
    13  H    4.068482   2.867355   2.868068   3.397019   3.809445
    14  H    2.417382   3.734964   3.734451   1.083334   2.089251
    15  H    4.651369   5.391592   5.391203   2.062399   1.019792
    16  X    2.678094   1.000000   2.660215   3.001913   3.930551
    17  X    2.155533   1.414214   2.141651   2.146372   3.178637
    18  H    4.287054   2.325800   4.271657   5.445535   6.390159
    19  X    4.558728   2.531669   4.539086   5.195264   5.967993
    20  O    5.207930   3.283000   5.191965   6.340020   7.230269
    21  H    5.635681   3.642812   5.616297   6.371071   7.108487
                   11         12         13         14         15
    11  C    0.000000
    12  S    1.651971   0.000000
    13  H    3.454637   4.885889   0.000000
    14  H    3.396789   4.749842   4.338454   0.000000
    15  H    2.026007   2.720986   4.828927   2.353252   0.000000
    16  X    4.233533   5.804527   2.304022   3.535587   4.815034
    17  X    3.615966   5.251202   2.112627   2.738127   4.078030
    18  H    6.637462   8.113332   4.233547   5.772448   7.214446
    19  X    6.077210   7.460264   3.874237   5.645492   6.794374
    20  O    7.417679   8.832196   5.005797   6.666034   8.040390
    21  H    7.168676   8.476837   4.936270   6.789610   7.910324
                   16         17         18         19         20
    16  X    0.000000
    17  X    1.000000   0.000000
    18  H    2.531669   3.472887   0.000000
    19  X    2.325800   3.325800   1.000000   0.000000
    20  O    3.431922   4.398192   0.957200   1.384280   0.000000
    21  H    3.523751   4.523582   1.513901   1.199434   0.957200
                   21
    21  H    0.000000
 Symmetry turned off by external request.
 Stoichiometry    C6H5F4NOS
 Framework group  C1[X(C6H5F4NOS)]
 Deg. of freedom    48
 Full point group                 C1      NOp   1
 Rotational constants (GHZ):      0.9954727      0.3190645      0.2798036
 Standard basis: 6-31G(d) (6D, 7F)
 Integral buffers will be    131072 words long.
 Raffenetti 1 integral format.
 Two-electron integral symmetry is turned off.
   209 basis functions,   408 primitive gaussians,   209 cartesian basis functions
    54 alpha electrons       54 beta electrons
       nuclear repulsion energy       904.1695727048 Hartrees.
 NAtoms=   18 NActive=   18 NUniq=   18 SFac= 7.50D-01 NAtFMM=   80 NAOKFM=F Big=F
 One-electron integrals computed using PRISM.
 NBasis=   209 RedAO= T  NBF=   209
 NBsUse=   209 1.00D-06 NBFU=   209
 Harris functional with IExCor=  205 diagonalized for initial guess.
 ExpMin= 1.17D-01 ExpMax= 2.19D+04 ExpMxC= 3.30D+03 IAcc=1 IRadAn=         1 AccDes= 0.00D+00
 HarFok:  IExCor=  205 AccDes= 0.00D+00 IRadAn=         1 IDoV= 1
 ScaDFX=  1.000000  1.000000  1.000000  1.000000
 FoFCou: FMM=F IPFlag=           0 FMFlag=      100000 FMFlg1=           0
         NFxFlg=           0 DoJE=T BraDBF=F KetDBF=T FulRan=T
         Omega=  0.000000  0.000000  1.000000  0.000000  0.000000 ICntrl=     500 IOpCl=  0
         NMat0=    1 NMatS0=    1 NMatT0=    0 NMatD0=    1 NMtDS0=    0 NMtDT0=    0
         I1Cent=           4 NGrid=           0.
 Symmetry not used in FoFCou.
 Requested convergence on RMS density matrix=1.00D-08 within 128 cycles.
 Requested convergence on MAX density matrix=1.00D-06.
 Requested convergence on             energy=1.00D-06.
 No special actions if energy rises.
 Integral accuracy reduced to 1.0D-05 until final iterations.
 Initial convergence to 1.0D-05 achieved.  Increase integral accuracy.
 SCF Done:  E(RHF) =  -1154.67412501     A.U. after   15 cycles
             Convg  =    0.5534D-08             -V/T =  2.0019

 **********************************************************************

            Population analysis using the SCF density.

 **********************************************************************

 Alpha  occ. eigenvalues --  -91.90878 -26.37492 -26.37387 -26.36537 -26.33864
 Alpha  occ. eigenvalues --  -20.55689 -15.69141 -11.55044 -11.38243 -11.37645
 Alpha  occ. eigenvalues --  -11.36640 -11.31697 -11.30843  -8.91965  -6.60292
 Alpha  occ. eigenvalues --   -6.60017  -6.59890  -1.74986  -1.66001  -1.65321
 Alpha  occ. eigenvalues --   -1.65114  -1.35979  -1.33890  -1.17659  -1.12511
 Alpha  occ. eigenvalues --   -1.03608  -0.97777  -0.93169  -0.88733  -0.85485
 Alpha  occ. eigenvalues --   -0.84583  -0.84272  -0.77531  -0.76389  -0.74326
 Alpha  occ. eigenvalues --   -0.73202  -0.72401  -0.71738  -0.70731  -0.70409
 Alpha  occ. eigenvalues --   -0.68526  -0.68244  -0.67020  -0.64546  -0.62957
 Alpha  occ. eigenvalues --   -0.61279  -0.59921  -0.56799  -0.52980  -0.49499
 Alpha  occ. eigenvalues --   -0.47087  -0.43699  -0.34496  -0.31398
 Alpha virt. eigenvalues --    0.04033   0.08229   0.17285   0.21539   0.24079
 Alpha virt. eigenvalues --    0.24823   0.25998   0.26113   0.29118   0.31338
 Alpha virt. eigenvalues --    0.33522   0.34956   0.38878   0.40817   0.42094
 Alpha virt. eigenvalues --    0.43810   0.46243   0.49063   0.53750   0.55077
 Alpha virt. eigenvalues --    0.56324   0.59350   0.60798   0.63923   0.66206
 Alpha virt. eigenvalues --    0.67378   0.71449   0.72591   0.73111   0.74908
 Alpha virt. eigenvalues --    0.76714   0.77448   0.82483   0.84042   0.87026
 Alpha virt. eigenvalues --    0.88629   0.89444   0.91716   0.95234   0.99360
 Alpha virt. eigenvalues --    1.01769   1.02277   1.02620   1.04174   1.07068
 Alpha virt. eigenvalues --    1.08811   1.09394   1.12529   1.13202   1.14805
 Alpha virt. eigenvalues --    1.15650   1.17018   1.17340   1.18103   1.24009
 Alpha virt. eigenvalues --    1.27918   1.29278   1.30844   1.32590   1.33758
 Alpha virt. eigenvalues --    1.34357   1.36827   1.40890   1.41617   1.41930
 Alpha virt. eigenvalues --    1.44452   1.46941   1.51580   1.59507   1.59958
 Alpha virt. eigenvalues --    1.60854   1.62771   1.63241   1.63835   1.64595
 Alpha virt. eigenvalues --    1.65586   1.66952   1.69175   1.69646   1.71537
 Alpha virt. eigenvalues --    1.73946   1.75785   1.76894   1.80909   1.86075
 Alpha virt. eigenvalues --    1.91306   1.91900   1.93151   1.99403   2.02349
 Alpha virt. eigenvalues --    2.03657   2.03920   2.05413   2.07043   2.08585
 Alpha virt. eigenvalues --    2.09583   2.11393   2.12127   2.17541   2.19782
 Alpha virt. eigenvalues --    2.21934   2.22018   2.24062   2.27943   2.29186
 Alpha virt. eigenvalues --    2.29859   2.32263   2.33235   2.34124   2.35300
 Alpha virt. eigenvalues --    2.37399   2.38659   2.42763   2.44519   2.45156
 Alpha virt. eigenvalues --    2.46534   2.51742   2.60227   2.61467   2.63743
 Alpha virt. eigenvalues --    2.64939   2.67750   2.74642   2.82330   2.84054
 Alpha virt. eigenvalues --    2.84125   2.90759   2.92374   2.92813   2.95039
 Alpha virt. eigenvalues --    2.99738   3.06610   3.09047   3.16724   3.21572
 Alpha virt. eigenvalues --    3.29014   3.37200   3.38407   3.42434   3.44844
 Alpha virt. eigenvalues --    3.49020   3.70714   4.02532   4.35936   4.39655
 Alpha virt. eigenvalues --    4.44591   4.47779   4.59623   4.63698   4.72918
 Alpha virt. eigenvalues --    4.81612   5.02591   5.16530   5.57368   6.02684
          Condensed to atoms (all electrons):
              1          2          3          4          5          6
     1  F    9.159071   0.267953  -0.033787   0.002214  -0.000015   0.000000
     2  C    0.267953   4.575849   0.569985  -0.026571   0.000790  -0.000019
     3  C   -0.033787   0.569985   5.071998   0.352772  -0.012563   0.002181
     4  C    0.002214  -0.026571   0.352772   5.208030   0.418865  -0.045277
     5  C   -0.000015   0.000790  -0.012563   0.418865   3.550300   0.290795
     6  F    0.000000  -0.000019   0.002181  -0.045277   0.290795   9.183238
     7  F    0.000000   0.000293   0.005128  -0.053995   0.273025  -0.030159
     8  F    0.000000   0.000292   0.005075  -0.055388   0.286454  -0.030757
     9  C    0.000132  -0.023011  -0.054570   0.592255  -0.020966   0.005423
    10  N    0.001383  -0.053463  -0.021193  -0.035885   0.001227   0.000238
    11  C   -0.040745   0.377292  -0.079143  -0.001229   0.000082   0.000002
    12  S    0.003495  -0.083541   0.001593  -0.000047   0.000006   0.000000
    13  H   -0.000269  -0.016934   0.368685  -0.030625  -0.000259   0.000035
    14  H    0.000000  -0.000114   0.001803  -0.022671  -0.000140   0.004980
    15  H   -0.000018   0.003854  -0.000572   0.002344  -0.000015   0.000001
    16  H    0.000000   0.000000   0.000009   0.000075   0.000083   0.000012
    17  O    0.000000   0.000000   0.000000  -0.000003   0.000012   0.000000
    18  H    0.000000   0.000000   0.000000   0.000000   0.000000   0.000000
              7          8          9         10         11         12
     1  F    0.000000   0.000000   0.000132   0.001383  -0.040745   0.003495
     2  C    0.000293   0.000292  -0.023011  -0.053463   0.377292  -0.083541
     3  C    0.005128   0.005075  -0.054570  -0.021193  -0.079143   0.001593
     4  C   -0.053995  -0.055388   0.592255  -0.035885  -0.001229  -0.000047
     5  C    0.273025   0.286454  -0.020966   0.001227   0.000082   0.000006
     6  F   -0.030159  -0.030757   0.005423   0.000238   0.000002   0.000000
     7  F    9.210197  -0.033441   0.000481  -0.000005  -0.000002   0.000000
     8  F   -0.033441   9.196221   0.000504  -0.000006  -0.000002   0.000000
     9  C    0.000481   0.000504   4.732337   0.266779  -0.038427   0.003295
    10  N   -0.000005  -0.000006   0.266779   7.235674   0.211461  -0.104403
    11  C   -0.000002  -0.000002  -0.038427   0.211461   4.957058   0.447502
    12  S    0.000000   0.000000   0.003295  -0.104403   0.447502  15.943743
    13  H    0.000899   0.000901   0.002411  -0.000262   0.002624  -0.000056
    14  H    0.000083   0.000083   0.379786  -0.031832   0.000955  -0.000131
    15  H    0.000000   0.000000  -0.021463   0.309773  -0.017805   0.013693
    16  H    0.009048   0.000014  -0.000001   0.000000   0.000000   0.000000
    17  O   -0.000823   0.000000   0.000000   0.000000   0.000000   0.000000
    18  H   -0.000022   0.000000   0.000000   0.000000   0.000000   0.000000
             13         14         15         16         17         18
     1  F   -0.000269   0.000000  -0.000018   0.000000   0.000000   0.000000
     2  C   -0.016934  -0.000114   0.003854   0.000000   0.000000   0.000000
     3  C    0.368685   0.001803  -0.000572   0.000009   0.000000   0.000000
     4  C   -0.030625  -0.022671   0.002344   0.000075  -0.000003   0.000000
     5  C   -0.000259  -0.000140  -0.000015   0.000083   0.000012   0.000000
     6  F    0.000035   0.004980   0.000001   0.000012   0.000000   0.000000
     7  F    0.000899   0.000083   0.000000   0.009048  -0.000823  -0.000022
     8  F    0.000901   0.000083   0.000000   0.000014   0.000000   0.000000
     9  C    0.002411   0.379786  -0.021463  -0.000001   0.000000   0.000000
    10  N   -0.000262  -0.031832   0.309773   0.000000   0.000000   0.000000
    11  C    0.002624   0.000955  -0.017805   0.000000   0.000000   0.000000
    12  S   -0.000056  -0.000131   0.013693   0.000000   0.000000   0.000000
    13  H    0.393238  -0.000062   0.000008   0.000003   0.000000   0.000000
    14  H   -0.000062   0.379598  -0.002110   0.000000   0.000000   0.000000
    15  H    0.000008  -0.002110   0.269591   0.000000   0.000000   0.000000
    16  H    0.000003   0.000000   0.000000   0.308619   0.261904  -0.018451
    17  O    0.000000   0.000000   0.000000   0.261904   8.351886   0.265255
    18  H    0.000000   0.000000   0.000000  -0.018451   0.265255   0.323237
 Mulliken atomic charges:
              1
     1  F   -0.359414
     2  C    0.407343
     3  C   -0.177401
     4  C   -0.304860
     5  C    1.212319
     6  F   -0.380693
     7  F   -0.380706
     8  F   -0.369951
     9  C    0.175035
    10  N   -0.779487
    11  C    0.180377
    12  S   -0.225150
    13  H    0.279662
    14  H    0.289771
    15  H    0.442718
    16  H    0.438685
    17  O   -0.878230
    18  H    0.429982
 Sum of Mulliken atomic charges =   0.00000
 Mulliken charges with hydrogens summed into heavy atoms:
              1
     1  F   -0.359414
     2  C    0.407343
     3  C    0.102262
     4  C   -0.304860
     5  C    1.212319
     6  F   -0.380693
     7  F   -0.380706
     8  F   -0.369951
     9  C    0.464806
    10  N   -0.336769
    11  C    0.180377
    12  S   -0.225150
    17  O   -0.009563
 Sum of Mulliken charges with hydrogens summed into heavy atoms =   0.00000
 Electronic spatial extent (au):  <R**2>=           3859.6950
 Charge=              0.0000 electrons
 Dipole moment (field-independent basis, Debye):
    X=              1.2071    Y=             -3.2873    Z=              0.7800  Tot=              3.5877
 Quadrupole moment (field-independent basis, Debye-Ang):
   XX=           -120.7228   YY=            -73.4091   ZZ=            -84.8841
   XY=             -5.1792   XZ=             11.0432   YZ=              2.0881
 Traceless Quadrupole moment (field-independent basis, Debye-Ang):
   XX=            -27.7175   YY=             19.5962   ZZ=              8.1212
   XY=             -5.1792   XZ=             11.0432   YZ=              2.0881
 Octapole moment (field-independent basis, Debye-Ang**2):
  XXX=            -60.5020  YYY=            -61.0745  ZZZ=             81.2824  XYY=            -23.6171
  XXY=            -55.6849  XXZ=             94.9573  XZZ=            -53.4342  YZZ=            -14.9885
  YYZ=             30.2055  XYZ=             27.6722
 Hexadecapole moment (field-independent basis, Debye-Ang**3):
 XXXX=          -3682.0867 YYYY=           -678.3206 ZZZZ=           -686.9878 XXXY=           -442.3180
 XXXZ=            651.3359 YYYX=           -234.0345 YYYZ=            182.7618 ZZZX=            447.4276
 ZZZY=            160.9590 XXYY=           -765.2000 XXZZ=           -917.0842 YYZZ=           -242.2725
 XXYZ=            228.7770 YYXZ=            164.2787 ZZXY=           -170.9365
 N-N= 9.041695727048D+02 E-N=-4.545675968598D+03  KE= 1.152539202038D+03
 Calling FoFJK, ICntrl=      2127 FMM=F ISym2X=0 I1Cent= 0 IOpClX= 0 NMat=1 NMatS=1 NMatT=0.
 -------------------------------------------------------------------
 Center     Atomic                   Forces (Hartrees/Bohr)
 Number     Number              X              Y              Z
 -------------------------------------------------------------------
      1        9           0.000000000    0.000000000    0.000000000
      2        6           0.000000000    0.000000000    0.000000000
      3        6           0.000000000    0.000000000    0.000000000
      4        6           0.000000000    0.000000000    0.000000000
      5        6           0.000000000    0.000000000    0.000000000
      6        9           0.000000000    0.000000000    0.000000000
      7        9           0.000000000    0.000000000    0.000000000
      8        9           0.000000000    0.000000000    0.000000000
      9        6           0.000000000    0.000000000    0.000000000
     10        7           0.000000000    0.000000000    0.000000000
     11        6           0.000000000    0.000000000    0.000000000
     12       16           0.000000000    0.000000000    0.000000000
     13        1           0.000000000    0.000000000    0.000000000
     14        1           0.000000000    0.000000000    0.000000000
     15        1           0.000000000    0.000000000    0.000000000
     16        1           0.005298638    0.005037346   -0.008146303
     17        8          -0.014639255   -0.003117687    0.003711082
     18        1           0.009626328   -0.001901923    0.004278929
 -------------------------------------------------------------------
 Cartesian Forces:  Max     0.014639255 RMS     0.002957117
 -----------------------------------------------------------------------------------------------
                       Internal Coordinate Forces (Hartree/Bohr or radian)
  Cent   Atom   N1       Length/X         N2         Alpha/Y        N3         Beta/Z          J
 -----------------------------------------------------------------------------------------------
      1  F 
      2  C 
      3  C 
      4  C 
      5  C 
      6  F 
      7  F 
      8  F 
      9  C 
     10  N 
     11  C 
     12  S 
     13  H 
     14  H 
     15  H 
         X        7   0.000000(     1)      5   0.000670(     7)      4  -0.000080(    13)     0
         X       16   0.000000(     2)      7   0.000000(     8)      5   0.000291(    14)     0
     16  H        7   0.000228(     3)     16   0.000670(     9)     17  -0.000291(    15)     0
         X       18   0.000000(     4)      7  -0.000290(    10)     16   0.000000(    16)     0
     17  O       18  -0.010558(     5)     19  -0.000290(    11)      7  -0.000120(    17)     0
     18  H       20  -0.010602(     6)     18   0.002678(    12)     16  -0.000080(    18)     0
 -----------------------------------------------------------------------------------------------
 Internal  Forces:  Max     0.010601831 RMS     0.003592869

 GradGradGradGradGradGradGradGradGradGradGradGradGradGradGradGradGradGrad
 Berny optimization.
 Search for a local minimum.
 Step number   1 out of a maximum of   20
 All quantities printed in internal units (Hartrees-Bohrs-Radians)
 Second derivative matrix not updated -- first step.
 The second derivative matrix:
                          RX       RDUM       ROH      ADUM      AHOH
           RX           0.02624
           RDUM         0.00000   0.00000
           ROH          0.00000   0.00000   1.12160
           ADUM         0.00000   0.00000   0.00000   2.14731
           AHOH         0.00000   0.00000   0.00000   0.00000   0.16000
           DDUM         0.00000   0.00000   0.00000  -0.08024   0.00000
           DH1          0.00000   0.00000   0.00000   0.08024   0.00000
           DOH2         0.00000   0.00000   0.00000   0.12538   0.00000
           DH2          0.00000   0.00000   0.00000   0.00000   0.00000
                         DDUM       DH1      DOH2       DH2
           DDUM         0.18247
           DH1         -0.18247   0.18247
           DOH2         0.00000   0.00000   0.28511
           DH2          0.00000   0.00000   0.00000   0.00000
     Eigenvalues ---    0.026241000.000001000.000001000.000001000.00000
     Eigenvalues --- 1000.000001000.000001000.000001000.00000
 RFO step:  Lambda=-1.98200932D-06 EMin= 2.62359971D-02
 Linear search not attempted -- first point.
 Variable       Old X    -DE/DX   Delta X   Delta X   Delta X     New X
                                 (Linear)    (Quad)   (Total)
    RX        4.39513   0.00023   0.00000   0.00869   0.00869   4.40382
   RDUM       1.88973   0.00000   0.00000   0.00000   0.00000   1.88973
   ROH        1.80885  -0.02116   0.00000   0.00000   0.00000   1.80885
   ADUM       1.57080   0.00076   0.00000   0.00000   0.00000   1.57080
   AHOH       1.82422   0.00268   0.00000   0.00000   0.00000   1.82422
   DDUM       0.00000   0.00021   0.00000   0.00000   0.00000   0.00000
   DH1        3.14159  -0.00029   0.00000   0.00000   0.00000   3.14159
   DOH2       3.14159  -0.00012   0.00000   0.00000   0.00000   3.14159
   DH2        0.00000  -0.00008   0.00000   0.00000   0.00000   0.00000
         Item               Value     Threshold  Converged?
 Maximum Force            0.000228     0.000450     YES
 RMS     Force            0.000228     0.000300     YES
 Maximum Displacement     0.008691     0.001800     NO 
 RMS     Displacement     0.002897     0.001200     NO 
 Predicted change in Energy=-9.910047D-07
 GradGradGradGradGradGradGradGradGradGradGradGradGradGradGradGradGradGrad

 ---------------------------------------------------------------------------------------------------
                            Z-MATRIX (ANGSTROMS AND DEGREES)
   CD    Cent   Atom    N1       Length/X        N2       Alpha/Y        N3        Beta/Z          J
 ---------------------------------------------------------------------------------------------------
      1      1  F       -1  -1.969300          2.053680          0.000070
      2      2  C       -1  -1.222250          0.944230          0.000030
      3      3  C       -1   0.140030          1.057400         -0.000020
      4      4  C       -1   0.927950         -0.123640         -0.000080
      5      5  C       -1   2.414660         -0.018650         -0.000010
      6      6  F       -1   3.007080         -1.234610         -0.000560
      7      7  F       -1   2.858290          0.654480         -1.086020
      8      8  F       -1   2.858270          0.653500          1.086650
      9      9  C       -1   0.306540         -1.341490         -0.000090
     10     10  N       -1  -1.054170         -1.389970         -0.000060
     11     11  C       -1  -1.930500         -0.312100          0.000000
     12     12  S       -1  -3.570980         -0.506610          0.000030
     13     13  H       -1   0.596860          2.043100         -0.000020
     14     14  H       -1   0.831760         -2.288990         -0.000150
     15     15  H       -1  -1.521480         -2.296390         -0.000090
     16         X        7   1.000000(    15)      5   90.000(    34)      4    0.000(    52)      0
     17         X       16   1.000000(    16)      7   90.000(    35)      5    0.000(    53)      0
     18     16  H        7   2.330399(    17)     16   90.000(    36)     17  180.000(    54)      0
     19         X       18   1.000000(    18)      7   90.000(    37)     16    0.000(    55)      0
     20     17  O       18   0.957200(    19)     19   90.000(    38)      7  180.000(    56)      0
     21     18  H       20   0.957200(    20)     18  104.520(    39)     16    0.000(    57)      0
 ---------------------------------------------------------------------------------------------------
                         Z-Matrix orientation:                         
 ---------------------------------------------------------------------
 Center     Atomic      Atomic             Coordinates (Angstroms)
 Number     Number       Type             X           Y           Z
 ---------------------------------------------------------------------
      1          9           0       -1.969300    2.053680    0.000070
      2          6           0       -1.222250    0.944230    0.000030
      3          6           0        0.140030    1.057400   -0.000020
      4          6           0        0.927950   -0.123640   -0.000080
      5          6           0        2.414660   -0.018650   -0.000010
      6          9           0        3.007080   -1.234610   -0.000560
      7          9           0        2.858290    0.654480   -1.086020
      8          9           0        2.858270    0.653500    1.086650
      9          6           0        0.306540   -1.341490   -0.000090
     10          7           0       -1.054170   -1.389970   -0.000060
     11          6           0       -1.930500   -0.312100    0.000000
     12         16           0       -3.570980   -0.506610    0.000030
     13          1           0        0.596860    2.043100   -0.000020
     14          1           0        0.831760   -2.288990   -0.000150
     15          1           0       -1.521480   -2.296390   -0.000090
     16         -1           0        1.915565    0.772301   -1.398091
     17         -1           0        1.587564    0.274618   -0.595142
     18          1           0        3.622663    1.814281   -2.957211
     19         -1           0        2.679938    1.932102   -3.269282
     20          8           0        3.936625    2.290663   -3.725794
     21          1           0        3.141787    2.519277   -4.207665
 ---------------------------------------------------------------------
                    Distance matrix (angstroms):
                    1          2          3          4          5
     1  F    0.000000
     2  C    1.337521   0.000000
     3  C    2.332777   1.366973   0.000000
     4  C    3.624194   2.400772   1.419744   0.000000
     5  C    4.849088   3.762214   2.516312   1.490413   0.000000
     6  F    5.964663   4.757581   3.670597   2.357337   1.352598
     7  F    5.142274   4.232525   2.954772   2.347541   1.352527
     8  F    5.142625   4.232719   2.955134   2.347566   1.352555
     9  C    4.087374   2.749857   2.404662   1.367227   2.488790
    10  N    3.563171   2.340244   2.723184   2.352104   3.730054
    11  C    2.366098   1.442215   2.482463   2.864656   4.355058
    12  S    3.020011   2.760701   4.027123   4.515201   6.005497
    13  H    2.566182   2.125247   1.086415   2.191890   2.748674
    14  H    5.167661   3.830492   3.417136   2.167485   2.767673
    15  H    4.373060   3.254406   3.742796   3.274225   4.547669
    16  X    4.323073   3.439504   2.277808   1.931975   1.682061
    17  X    4.021271   2.949181   1.749935   0.973550   1.060318
    18  H    6.330314   5.742425   4.631045   4.445406   3.682926
    19  X    5.684968   5.185688   4.231349   4.240663   3.816274
    20  O    6.987001   6.504509   5.460445   5.363015   4.640126
    21  H    6.636642   6.263408   5.371397   5.439655   4.967308
                    6          7          8          9         10
     6  F    0.000000
     7  F    2.183809   0.000000
     8  F    2.183834   2.172670   0.000000
     9  C    2.702654   3.416807   3.416477   0.000000
    10  N    4.064221   4.546034   4.545756   1.361573   0.000000
    11  C    5.023019   5.004620   5.004549   2.462517   1.389157
    12  S    6.618222   6.622926   6.622828   3.966382   2.667332
    13  H    4.068482   2.867355   2.868068   3.397019   3.809445
    14  H    2.417382   3.734964   3.734451   1.083334   2.089251
    15  H    4.651369   5.391592   5.391203   2.062399   1.019792
    16  X    2.678094   1.000000   2.660215   3.001913   3.930551
    17  X    2.155533   1.414214   2.141651   2.146372   3.178637
    18  H    4.291441   2.330399   4.276040   5.449782   6.394117
    19  X    4.562853   2.535894   4.543211   5.199715   5.972230
    20  O    5.212386   3.287599   5.196419   6.344362   7.234376
    21  H    5.639995   3.647260   5.620611   6.375565   7.112820
                   11         12         13         14         15
    11  C    0.000000
    12  S    1.651971   0.000000
    13  H    3.454637   4.885889   0.000000
    14  H    3.396789   4.749842   4.338454   0.000000
    15  H    2.026007   2.720986   4.828927   2.353252   0.000000
    16  X    4.233533   5.804527   2.304022   3.535587   4.815034
    17  X    3.615966   5.251202   2.112627   2.738127   4.078030
    18  H    6.641100   8.116668   4.237077   5.776693   7.218337
    19  X    6.081183   7.463893   3.878094   5.649832   6.798505
    20  O    7.421528   8.835759   5.009662   6.670370   8.044429
    21  H    7.172812   8.480679   4.940412   6.794029   7.914568
                   16         17         18         19         20
    16  X    0.000000
    17  X    1.000000   0.000000
    18  H    2.535894   3.477292   0.000000
    19  X    2.330399   3.330399   1.000000   0.000000
    20  O    3.436322   4.402670   0.957200   1.384280   0.000000
    21  H    3.528349   4.528181   1.513901   1.199434   0.957200
                   21
    21  H    0.000000
 Symmetry turned off by external request.
 Stoichiometry    C6H5F4NOS
 Framework group  C1[X(C6H5F4NOS)]
 Deg. of freedom    48
 Full point group                 C1      NOp   1
 Rotational constants (GHZ):      0.9946767      0.3189705      0.2796869
 Standard basis: 6-31G(d) (6D, 7F)
 Integral buffers will be    131072 words long.
 Raffenetti 1 integral format.
 Two-electron integral symmetry is turned off.
   209 basis functions,   408 primitive gaussians,   209 cartesian basis functions
    54 alpha electrons       54 beta electrons
       nuclear repulsion energy       904.0940114124 Hartrees.
 NAtoms=   18 NActive=   18 NUniq=   18 SFac= 7.50D-01 NAtFMM=   80 NAOKFM=F Big=F
 One-electron integrals computed using PRISM.
 NBasis=   209 RedAO= T  NBF=   209
 NBsUse=   209 1.00D-06 NBFU=   209
 Initial guess read from the read-write file.
 B after Tr=     0.000000    0.000000    0.000000
         Rot=    1.000000    0.000000    0.000000    0.000000 Ang=   0.00 deg.
 Requested convergence on RMS density matrix=1.00D-08 within 128 cycles.
 Requested convergence on MAX density matrix=1.00D-06.
 Requested convergence on             energy=1.00D-06.
 No special actions if energy rises.
 SCF Done:  E(RHF) =  -1154.67412689     A.U. after    6 cycles
             Convg  =    0.3572D-08             -V/T =  2.0019
 Calling FoFJK, ICntrl=      2127 FMM=F ISym2X=0 I1Cent= 0 IOpClX= 0 NMat=1 NMatS=1 NMatT=0.
 -------------------------------------------------------------------
 Center     Atomic                   Forces (Hartrees/Bohr)
 Number     Number              X              Y              Z
 -------------------------------------------------------------------
      1        9           0.000000000    0.000000000    0.000000000
      2        6           0.000000000    0.000000000    0.000000000
      3        6           0.000000000    0.000000000    0.000000000
      4        6           0.000000000    0.000000000    0.000000000
      5        6           0.000000000    0.000000000    0.000000000
      6        9           0.000000000    0.000000000    0.000000000
      7        9           0.000000000    0.000000000    0.000000000
      8        9           0.000000000    0.000000000    0.000000000
      9        6           0.000000000    0.000000000    0.000000000
     10        7           0.000000000    0.000000000    0.000000000
     11        6           0.000000000    0.000000000    0.000000000
     12       16           0.000000000    0.000000000    0.000000000
     13        1           0.000000000    0.000000000    0.000000000
     14        1           0.000000000    0.000000000    0.000000000
     15        1           0.000000000    0.000000000    0.000000000
     16        1           0.005287617    0.005027386   -0.008129600
     17        8          -0.014633999   -0.003117715    0.003710625
     18        1           0.009623958   -0.001902476    0.004280211
 -------------------------------------------------------------------
 Cartesian Forces:  Max     0.014633999 RMS     0.002954992
 -----------------------------------------------------------------------------------------------
                       Internal Coordinate Forces (Hartree/Bohr or radian)
  Cent   Atom   N1       Length/X         N2         Alpha/Y        N3         Beta/Z          J
 -----------------------------------------------------------------------------------------------
      1  F 
      2  C 
      3  C 
      4  C 
      5  C 
      6  F 
      7  F 
      8  F 
      9  C 
     10  N 
     11  C 
     12  S 
     13  H 
     14  H 
     15  H 
         X        7   0.000000(     1)      5   0.000669(     7)      4  -0.000080(    13)     0
         X       16   0.000000(     2)      7   0.000000(     8)      5   0.000291(    14)     0
     16  H        7   0.000206(     3)     16   0.000669(     9)     17  -0.000291(    15)     0
         X       18   0.000000(     4)      7  -0.000289(    10)     16   0.000000(    16)     0
     17  O       18  -0.010558(     5)     19  -0.000289(    11)      7  -0.000119(    17)     0
     18  H       20  -0.010601(     6)     18   0.002674(    12)     16  -0.000080(    18)     0
 -----------------------------------------------------------------------------------------------
 Internal  Forces:  Max     0.010600639 RMS     0.003592375

 GradGradGradGradGradGradGradGradGradGradGradGradGradGradGradGradGradGrad
 Berny optimization.
 Search for a local minimum.
 Step number   2 out of a maximum of   20
 All quantities printed in internal units (Hartrees-Bohrs-Radians)
 Update second derivatives using D2CorN and points    1    2
 DE= -1.89D-06 DEPred=-9.91D-07 R= 1.90D+00
 SS=  1.41D+00  RLast= 8.69D-03 DXNew= 5.0454D-01 2.6073D-02
 Trust test= 1.90D+00 RLast= 8.69D-03 DXMaxT set to 3.00D-01
 The second derivative matrix:
                          RX       RDUM       ROH      ADUM      AHOH
           RX           0.00253
           RDUM         0.00000   0.00000
           ROH         -0.00007   0.00000   1.12160
           ADUM         0.00002   0.00000   0.00000   2.14731
           AHOH         0.00026   0.00000   0.00000   0.00000   0.16000
           DDUM        -0.00001   0.00000   0.00000  -0.08024   0.00000
           DH1         -0.00003   0.00000   0.00000   0.08024   0.00000
           DOH2        -0.00004   0.00000   0.00000   0.12538   0.00000
           DH2         -0.00003   0.00000   0.00000   0.00000   0.00000
                         DDUM       DH1      DOH2       DH2
           DDUM         0.18247
           DH1         -0.18247   0.18247
           DOH2         0.00000   0.00000   0.28511
           DH2          0.00000   0.00000   0.00000   0.00000
     Eigenvalues ---    0.002531000.000001000.000001000.000001000.00000
     Eigenvalues --- 1000.000001000.000001000.000001000.00000
 RFO step:  Lambda= 0.00000000D+00 EMin= 2.53014415D-03
 Quartic linear search produced a step of  2.00000.
 Variable       Old X    -DE/DX   Delta X   Delta X   Delta X     New X
                                 (Linear)    (Quad)   (Total)
    RX        4.40382   0.00021   0.01738   0.00000   0.01738   4.42120
   RDUM       1.88973   0.00000   0.00000   0.00000   0.00000   1.88973
   ROH        1.80885  -0.02116   0.00000   0.00000   0.00000   1.80885
   ADUM       1.57080   0.00076   0.00000   0.00000   0.00000   1.57080
   AHOH       1.82422   0.00267   0.00000   0.00000   0.00000   1.82422
   DDUM       0.00000   0.00021   0.00000   0.00000   0.00000   0.00000
   DH1        3.14159  -0.00029   0.00000   0.00000   0.00000   3.14159
   DOH2       3.14159  -0.00012   0.00000   0.00000   0.00000   3.14159
   DH2        0.00000  -0.00008   0.00000   0.00000   0.00000   0.00000
         Item               Value     Threshold  Converged?
 Maximum Force            0.000206     0.000450     YES
 RMS     Force            0.000206     0.000300     YES
 Maximum Displacement     0.017382     0.001800     NO 
 RMS     Displacement     0.005794     0.001200     NO 
 Predicted change in Energy=-3.199272D-06
 GradGradGradGradGradGradGradGradGradGradGradGradGradGradGradGradGradGrad

 ---------------------------------------------------------------------------------------------------
                            Z-MATRIX (ANGSTROMS AND DEGREES)
   CD    Cent   Atom    N1       Length/X        N2       Alpha/Y        N3        Beta/Z          J
 ---------------------------------------------------------------------------------------------------
      1      1  F       -1  -1.969300          2.053680          0.000070
      2      2  C       -1  -1.222250          0.944230          0.000030
      3      3  C       -1   0.140030          1.057400         -0.000020
      4      4  C       -1   0.927950         -0.123640         -0.000080
      5      5  C       -1   2.414660         -0.018650         -0.000010
      6      6  F       -1   3.007080         -1.234610         -0.000560
      7      7  F       -1   2.858290          0.654480         -1.086020
      8      8  F       -1   2.858270          0.653500          1.086650
      9      9  C       -1   0.306540         -1.341490         -0.000090
     10     10  N       -1  -1.054170         -1.389970         -0.000060
     11     11  C       -1  -1.930500         -0.312100          0.000000
     12     12  S       -1  -3.570980         -0.506610          0.000030
     13     13  H       -1   0.596860          2.043100         -0.000020
     14     14  H       -1   0.831760         -2.288990         -0.000150
     15     15  H       -1  -1.521480         -2.296390         -0.000090
     16         X        7   1.000000(    15)      5   90.000(    34)      4    0.000(    52)      0
     17         X       16   1.000000(    16)      7   90.000(    35)      5    0.000(    53)      0
     18     16  H        7   2.339597(    17)     16   90.000(    36)     17  180.000(    54)      0
     19         X       18   1.000000(    18)      7   90.000(    37)     16    0.000(    55)      0
     20     17  O       18   0.957200(    19)     19   90.000(    38)      7  180.000(    56)      0
     21     18  H       20   0.957200(    20)     18  104.520(    39)     16    0.000(    57)      0
 ---------------------------------------------------------------------------------------------------
                         Z-Matrix orientation:                         
 ---------------------------------------------------------------------
 Center     Atomic      Atomic             Coordinates (Angstroms)
 Number     Number       Type             X           Y           Z
 ---------------------------------------------------------------------
      1          9           0       -1.969300    2.053680    0.000070
      2          6           0       -1.222250    0.944230    0.000030
      3          6           0        0.140030    1.057400   -0.000020
      4          6           0        0.927950   -0.123640   -0.000080
      5          6           0        2.414660   -0.018650   -0.000010
      6          9           0        3.007080   -1.234610   -0.000560
      7          9           0        2.858290    0.654480   -1.086020
      8          9           0        2.858270    0.653500    1.086650
      9          6           0        0.306540   -1.341490   -0.000090
     10          7           0       -1.054170   -1.389970   -0.000060
     11          6           0       -1.930500   -0.312100    0.000000
     12         16           0       -3.570980   -0.506610    0.000030
     13          1           0        0.596860    2.043100   -0.000020
     14          1           0        0.831760   -2.288990   -0.000150
     15          1           0       -1.521480   -2.296390   -0.000090
     16         -1           0        1.915565    0.772301   -1.398091
     17         -1           0        1.587564    0.274618   -0.595142
     18          1           0        3.625680    1.818858   -2.964597
     19         -1           0        2.682955    1.936679   -3.276668
     20          8           0        3.939642    2.295241   -3.733180
     21          1           0        3.144804    2.523854   -4.215050
 ---------------------------------------------------------------------
                    Distance matrix (angstroms):
                    1          2          3          4          5
     1  F    0.000000
     2  C    1.337521   0.000000
     3  C    2.332777   1.366973   0.000000
     4  C    3.624194   2.400772   1.419744   0.000000
     5  C    4.849088   3.762214   2.516312   1.490413   0.000000
     6  F    5.964663   4.757581   3.670597   2.357337   1.352598
     7  F    5.142274   4.232525   2.954772   2.347541   1.352527
     8  F    5.142625   4.232719   2.955134   2.347566   1.352555
     9  C    4.087374   2.749857   2.404662   1.367227   2.488790
    10  N    3.563171   2.340244   2.723184   2.352104   3.730054
    11  C    2.366098   1.442215   2.482463   2.864656   4.355058
    12  S    3.020011   2.760701   4.027123   4.515201   6.005497
    13  H    2.566182   2.125247   1.086415   2.191890   2.748674
    14  H    5.167661   3.830492   3.417136   2.167485   2.767673
    15  H    4.373060   3.254406   3.742796   3.274225   4.547669
    16  X    4.323073   3.439504   2.277808   1.931975   1.682061
    17  X    4.021271   2.949181   1.749935   0.973550   1.060318
    18  H    6.336260   5.749471   4.638781   4.454145   3.692124
    19  X    5.691588   5.193489   4.239814   4.249822   3.825151
    20  O    6.993647   6.512082   5.468618   5.371900   4.649324
    21  H    6.643972   6.271625   5.380115   5.448820   4.976345
                    6          7          8          9         10
     6  F    0.000000
     7  F    2.183809   0.000000
     8  F    2.183834   2.172670   0.000000
     9  C    2.702654   3.416807   3.416477   0.000000
    10  N    4.064221   4.546034   4.545756   1.361573   0.000000
    11  C    5.023019   5.004620   5.004549   2.462517   1.389157
    12  S    6.618222   6.622926   6.622828   3.966382   2.667332
    13  H    4.068482   2.867355   2.868068   3.397019   3.809445
    14  H    2.417382   3.734964   3.734451   1.083334   2.089251
    15  H    4.651369   5.391592   5.391203   2.062399   1.019792
    16  X    2.678094   1.000000   2.660215   3.001913   3.930551
    17  X    2.155533   1.414214   2.141651   2.146372   3.178637
    18  H    4.300215   2.339597   4.284808   5.458277   6.402035
    19  X    4.571107   2.544350   4.551464   5.208618   5.980707
    20  O    5.221299   3.296797   5.205328   6.353047   7.242591
    21  H    5.648624   3.656157   5.629241   6.384553   7.121485
                   11         12         13         14         15
    11  C    0.000000
    12  S    1.651971   0.000000
    13  H    3.454637   4.885889   0.000000
    14  H    3.396789   4.749842   4.338454   0.000000
    15  H    2.026007   2.720986   4.828927   2.353252   0.000000
    16  X    4.233533   5.804527   2.304022   3.535587   4.815034
    17  X    3.615966   5.251202   2.112627   2.738127   4.078030
    18  H    6.648380   8.123345   4.244143   5.785184   7.226121
    19  X    6.089132   7.471152   3.885813   5.658513   6.806770
    20  O    7.429228   8.842888   5.017395   6.679043   8.052508
    21  H    7.181086   8.488367   4.948699   6.802869   7.923058
                   16         17         18         19         20
    16  X    0.000000
    17  X    1.000000   0.000000
    18  H    2.544350   3.486102   0.000000
    19  X    2.339597   3.339597   1.000000   0.000000
    20  O    3.445123   4.411629   0.957200   1.384280   0.000000
    21  H    3.537545   4.537378   1.513901   1.199434   0.957200
                   21
    21  H    0.000000
 Symmetry turned off by external request.
 Stoichiometry    C6H5F4NOS
 Framework group  C1[X(C6H5F4NOS)]
 Deg. of freedom    48
 Full point group                 C1      NOp   1
 Rotational constants (GHZ):      0.9930877      0.3187825      0.2794535
 Standard basis: 6-31G(d) (6D, 7F)
 Integral buffers will be    131072 words long.
 Raffenetti 1 integral format.
 Two-electron integral symmetry is turned off.
   209 basis functions,   408 primitive gaussians,   209 cartesian basis functions
    54 alpha electrons       54 beta electrons
       nuclear repulsion energy       903.9433057544 Hartrees.
 NAtoms=   18 NActive=   18 NUniq=   18 SFac= 7.50D-01 NAtFMM=   80 NAOKFM=F Big=F
 One-electron integrals computed using PRISM.
 NBasis=   209 RedAO= T  NBF=   209
 NBsUse=   209 1.00D-06 NBFU=   209
 Initial guess read from the read-write file.
 B after Tr=     0.000000    0.000000    0.000000
         Rot=    1.000000    0.000000    0.000000    0.000000 Ang=   0.00 deg.
 Requested convergence on RMS density matrix=1.00D-08 within 128 cycles.
 Requested convergence on MAX density matrix=1.00D-06.
 Requested convergence on             energy=1.00D-06.
 No special actions if energy rises.
 SCF Done:  E(RHF) =  -1154.67413010     A.U. after    6 cycles
             Convg  =    0.7084D-08             -V/T =  2.0019
 Calling FoFJK, ICntrl=      2127 FMM=F ISym2X=0 I1Cent= 0 IOpClX= 0 NMat=1 NMatS=1 NMatT=0.
 -------------------------------------------------------------------
 Center     Atomic                   Forces (Hartrees/Bohr)
 Number     Number              X              Y              Z
 -------------------------------------------------------------------
      1        9           0.000000000    0.000000000    0.000000000
      2        6           0.000000000    0.000000000    0.000000000
      3        6           0.000000000    0.000000000    0.000000000
      4        6           0.000000000    0.000000000    0.000000000
      5        6           0.000000000    0.000000000    0.000000000
      6        9           0.000000000    0.000000000    0.000000000
      7        9           0.000000000    0.000000000    0.000000000
      8        9           0.000000000    0.000000000    0.000000000
      9        6           0.000000000    0.000000000    0.000000000
     10        7           0.000000000    0.000000000    0.000000000
     11        6           0.000000000    0.000000000    0.000000000
     12       16           0.000000000    0.000000000    0.000000000
     13        1           0.000000000    0.000000000    0.000000000
     14        1           0.000000000    0.000000000    0.000000000
     15        1           0.000000000    0.000000000    0.000000000
     16        1           0.005266088    0.005008094   -0.008097212
     17        8          -0.014623641   -0.003117771    0.003709712
     18        1           0.009619304   -0.001903542    0.004282711
 -------------------------------------------------------------------
 Cartesian Forces:  Max     0.014623641 RMS     0.002950853
 -----------------------------------------------------------------------------------------------
                       Internal Coordinate Forces (Hartree/Bohr or radian)
  Cent   Atom   N1       Length/X         N2         Alpha/Y        N3         Beta/Z          J
 -----------------------------------------------------------------------------------------------
      1  F 
      2  C 
      3  C 
      4  C 
      5  C 
      6  F 
      7  F 
      8  F 
      9  C 
     10  N 
     11  C 
     12  S 
     13  H 
     14  H 
     15  H 
         X        7   0.000000(     1)      5   0.000666(     7)      4  -0.000079(    13)     0
         X       16   0.000000(     2)      7   0.000000(     8)      5   0.000290(    14)     0
     16  H        7   0.000163(     3)     16   0.000666(     9)     17  -0.000290(    15)     0
         X       18   0.000000(     4)      7  -0.000287(    10)     16   0.000000(    16)     0
     17  O       18  -0.010558(     5)     19  -0.000287(    11)      7  -0.000118(    17)     0
     18  H       20  -0.010598(     6)     18   0.002665(    12)     16  -0.000079(    18)     0
 -----------------------------------------------------------------------------------------------
 Internal  Forces:  Max     0.010598288 RMS     0.003591418

 GradGradGradGradGradGradGradGradGradGradGradGradGradGradGradGradGradGrad
 Berny optimization.
 Search for a local minimum.
 Step number   3 out of a maximum of   20
 All quantities printed in internal units (Hartrees-Bohrs-Radians)
 Update second derivatives using D2CorN and points    2    3
 DE= -3.21D-06 DEPred=-3.20D-06 R= 1.00D+00
 SS=  1.41D+00  RLast= 1.74D-02 DXNew= 5.0454D-01 5.2146D-02
 Trust test= 1.00D+00 RLast= 1.74D-02 DXMaxT set to 3.00D-01
 The second derivative matrix:
                          RX       RDUM       ROH      ADUM      AHOH
           RX           0.00245
           RDUM         0.00000   0.00000
           ROH         -0.00010   0.00000   1.12160
           ADUM         0.00003   0.00000   0.00000   2.14731
           AHOH         0.00038   0.00000   0.00000   0.00000   0.16000
           DDUM        -0.00001   0.00000   0.00000  -0.08024   0.00000
           DH1         -0.00004   0.00000   0.00000   0.08024   0.00000
           DOH2        -0.00005   0.00000   0.00000   0.12538   0.00000
           DH2         -0.00005   0.00000   0.00000   0.00000   0.00000
                         DDUM       DH1      DOH2       DH2
           DDUM         0.18247
           DH1         -0.18247   0.18247
           DOH2         0.00000   0.00000   0.28511
           DH2          0.00000   0.00000   0.00000   0.00000
     Eigenvalues ---    0.002451000.000001000.000001000.000001000.00000
     Eigenvalues --- 1000.000001000.000001000.000001000.00000
 RFO step:  Lambda= 0.00000000D+00 EMin= 2.45248276D-03
 Quartic linear search produced a step of  2.00000.
 Variable       Old X    -DE/DX   Delta X   Delta X   Delta X     New X
                                 (Linear)    (Quad)   (Total)
    RX        4.42120   0.00016   0.03476   0.00000   0.03476   4.45596
   RDUM       1.88973   0.00000   0.00000   0.00000   0.00000   1.88973
   ROH        1.80885  -0.02116   0.00000   0.00000   0.00000   1.80885
   ADUM       1.57080   0.00076   0.00000   0.00000   0.00000   1.57080
   AHOH       1.82422   0.00266   0.00000   0.00000   0.00000   1.82422
   DDUM       0.00000   0.00021   0.00000   0.00000   0.00000   0.00000
   DH1        3.14159  -0.00029   0.00000   0.00000   0.00000   3.14159
   DOH2       3.14159  -0.00012   0.00000   0.00000   0.00000   3.14159
   DH2        0.00000  -0.00008   0.00000   0.00000   0.00000   0.00000
         Item               Value     Threshold  Converged?
 Maximum Force            0.000163     0.000450     YES
 RMS     Force            0.000163     0.000300     YES
 Maximum Displacement     0.034764     0.001800     NO 
 RMS     Displacement     0.011588     0.001200     NO 
 Predicted change in Energy=-4.199057D-06
 GradGradGradGradGradGradGradGradGradGradGradGradGradGradGradGradGradGrad

 ---------------------------------------------------------------------------------------------------
                            Z-MATRIX (ANGSTROMS AND DEGREES)
   CD    Cent   Atom    N1       Length/X        N2       Alpha/Y        N3        Beta/Z          J
 ---------------------------------------------------------------------------------------------------
      1      1  F       -1  -1.969300          2.053680          0.000070
      2      2  C       -1  -1.222250          0.944230          0.000030
      3      3  C       -1   0.140030          1.057400         -0.000020
      4      4  C       -1   0.927950         -0.123640         -0.000080
      5      5  C       -1   2.414660         -0.018650         -0.000010
      6      6  F       -1   3.007080         -1.234610         -0.000560
      7      7  F       -1   2.858290          0.654480         -1.086020
      8      8  F       -1   2.858270          0.653500          1.086650
      9      9  C       -1   0.306540         -1.341490         -0.000090
     10     10  N       -1  -1.054170         -1.389970         -0.000060
     11     11  C       -1  -1.930500         -0.312100          0.000000
     12     12  S       -1  -3.570980         -0.506610          0.000030
     13     13  H       -1   0.596860          2.043100         -0.000020
     14     14  H       -1   0.831760         -2.288990         -0.000150
     15     15  H       -1  -1.521480         -2.296390         -0.000090
     16         X        7   1.000000(    15)      5   90.000(    34)      4    0.000(    52)      0
     17         X       16   1.000000(    16)      7   90.000(    35)      5    0.000(    53)      0
     18     16  H        7   2.357994(    17)     16   90.000(    36)     17  180.000(    54)      0
     19         X       18   1.000000(    18)      7   90.000(    37)     16    0.000(    55)      0
     20     17  O       18   0.957200(    19)     19   90.000(    38)      7  180.000(    56)      0
     21     18  H       20   0.957200(    20)     18  104.520(    39)     16    0.000(    57)      0
 ---------------------------------------------------------------------------------------------------
                         Z-Matrix orientation:                         
 ---------------------------------------------------------------------
 Center     Atomic      Atomic             Coordinates (Angstroms)
 Number     Number       Type             X           Y           Z
 ---------------------------------------------------------------------
      1          9           0       -1.969300    2.053680    0.000070
      2          6           0       -1.222250    0.944230    0.000030
      3          6           0        0.140030    1.057400   -0.000020
      4          6           0        0.927950   -0.123640   -0.000080
      5          6           0        2.414660   -0.018650   -0.000010
      6          9           0        3.007080   -1.234610   -0.000560
      7          9           0        2.858290    0.654480   -1.086020
      8          9           0        2.858270    0.653500    1.086650
      9          6           0        0.306540   -1.341490   -0.000090
     10          7           0       -1.054170   -1.389970   -0.000060
     11          6           0       -1.930500   -0.312100    0.000000
     12         16           0       -3.570980   -0.506610    0.000030
     13          1           0        0.596860    2.043100   -0.000020
     14          1           0        0.831760   -2.288990   -0.000150
     15          1           0       -1.521480   -2.296390   -0.000090
     16         -1           0        1.915565    0.772301   -1.398091
     17         -1           0        1.587564    0.274618   -0.595142
     18          1           0        3.631714    1.828014   -2.979368
     19         -1           0        2.688989    1.945835   -3.291439
     20          8           0        3.945676    2.304396   -3.747951
     21          1           0        3.150838    2.533010   -4.229822
 ---------------------------------------------------------------------
                    Distance matrix (angstroms):
                    1          2          3          4          5
     1  F    0.000000
     2  C    1.337521   0.000000
     3  C    2.332777   1.366973   0.000000
     4  C    3.624194   2.400772   1.419744   0.000000
     5  C    4.849088   3.762214   2.516312   1.490413   0.000000
     6  F    5.964663   4.757581   3.670597   2.357337   1.352598
     7  F    5.142274   4.232525   2.954772   2.347541   1.352527
     8  F    5.142625   4.232719   2.955134   2.347566   1.352555
     9  C    4.087374   2.749857   2.404662   1.367227   2.488790
    10  N    3.563171   2.340244   2.723184   2.352104   3.730054
    11  C    2.366098   1.442215   2.482463   2.864656   4.355058
    12  S    3.020011   2.760701   4.027123   4.515201   6.005497
    13  H    2.566182   2.125247   1.086415   2.191890   2.748674
    14  H    5.167661   3.830492   3.417136   2.167485   2.767673
    15  H    4.373060   3.254406   3.742796   3.274225   4.547669
    16  X    4.323073   3.439504   2.277808   1.931975   1.682061
    17  X    4.021271   2.949181   1.749935   0.973550   1.060318
    18  H    6.348176   5.763580   4.654269   4.471627   3.710521
    19  X    5.704851   5.209105   4.256753   4.268141   3.842911
    20  O    7.006958   6.527241   5.484973   5.389672   4.667721
    21  H    6.658645   6.288065   5.397556   5.467151   4.994420
                    6          7          8          9         10
     6  F    0.000000
     7  F    2.183809   0.000000
     8  F    2.183834   2.172670   0.000000
     9  C    2.702654   3.416807   3.416477   0.000000
    10  N    4.064221   4.546034   4.545756   1.361573   0.000000
    11  C    5.023019   5.004620   5.004549   2.462517   1.389157
    12  S    6.618222   6.622926   6.622828   3.966382   2.667332
    13  H    4.068482   2.867355   2.868068   3.397019   3.809445
    14  H    2.417382   3.734964   3.734451   1.083334   2.089251
    15  H    4.651369   5.391592   5.391203   2.062399   1.019792
    16  X    2.678094   1.000000   2.660215   3.001913   3.930551
    17  X    2.155533   1.414214   2.141651   2.146372   3.178637
    18  H    4.317769   2.357994   4.302349   5.475275   6.417882
    19  X    4.587624   2.561276   4.567981   5.226428   5.997667
    20  O    5.239128   3.315194   5.223148   6.370421   7.259028
    21  H    5.665888   3.673956   5.646506   6.402532   7.138820
                   11         12         13         14         15
    11  C    0.000000
    12  S    1.651971   0.000000
    13  H    3.454637   4.885889   0.000000
    14  H    3.396789   4.749842   4.338454   0.000000
    15  H    2.026007   2.720986   4.828927   2.353252   0.000000
    16  X    4.233533   5.804527   2.304022   3.535587   4.815034
    17  X    3.615966   5.251202   2.112627   2.738127   4.078030
    18  H    6.662953   8.136712   4.258300   5.802172   7.241700
    19  X    6.105041   7.485684   3.901270   5.675881   6.823306
    20  O    7.444638   8.857158   5.032875   6.696393   8.068674
    21  H    7.197641   8.503750   4.965283   6.820552   7.940043
                   16         17         18         19         20
    16  X    0.000000
    17  X    1.000000   0.000000
    18  H    2.561276   3.503730   0.000000
    19  X    2.357994   3.357994   1.000000   0.000000
    20  O    3.462731   4.429548   0.957200   1.384280   0.000000
    21  H    3.555938   4.555772   1.513901   1.199434   0.957200
                   21
    21  H    0.000000
 Symmetry turned off by external request.
 Stoichiometry    C6H5F4NOS
 Framework group  C1[X(C6H5F4NOS)]
 Deg. of freedom    48
 Full point group                 C1      NOp   1
 Rotational constants (GHZ):      0.9899220      0.3184062      0.2789862
 Standard basis: 6-31G(d) (6D, 7F)
 Integral buffers will be    131072 words long.
 Raffenetti 1 integral format.
 Two-electron integral symmetry is turned off.
   209 basis functions,   408 primitive gaussians,   209 cartesian basis functions
    54 alpha electrons       54 beta electrons
       nuclear repulsion energy       903.6435495670 Hartrees.
 NAtoms=   18 NActive=   18 NUniq=   18 SFac= 7.50D-01 NAtFMM=   80 NAOKFM=F Big=F
 One-electron integrals computed using PRISM.
 NBasis=   209 RedAO= T  NBF=   209
 NBsUse=   209 1.00D-06 NBFU=   209
 Initial guess read from the read-write file.
 B after Tr=     0.000000    0.000000    0.000000
         Rot=    1.000000    0.000000    0.000000    0.000000 Ang=   0.00 deg.
 Harris functional with IExCor=  205 diagonalized for initial guess.
 ExpMin= 1.17D-01 ExpMax= 2.19D+04 ExpMxC= 3.30D+03 IAcc=1 IRadAn=         1 AccDes= 0.00D+00
 HarFok:  IExCor=  205 AccDes= 0.00D+00 IRadAn=         1 IDoV= 1
 ScaDFX=  1.000000  1.000000  1.000000  1.000000
 FoFCou: FMM=F IPFlag=           0 FMFlag=      100000 FMFlg1=           0
         NFxFlg=           0 DoJE=T BraDBF=F KetDBF=T FulRan=T
         Omega=  0.000000  0.000000  1.000000  0.000000  0.000000 ICntrl=     500 IOpCl=  0
         NMat0=    1 NMatS0=    1 NMatT0=    0 NMatD0=    1 NMtDS0=    0 NMtDT0=    0
         I1Cent=           4 NGrid=           0.
 Symmetry not used in FoFCou.
 Requested convergence on RMS density matrix=1.00D-08 within 128 cycles.
 Requested convergence on MAX density matrix=1.00D-06.
 Requested convergence on             energy=1.00D-06.
 No special actions if energy rises.
 Integral accuracy reduced to 1.0D-05 until final iterations.
 Initial convergence to 1.0D-05 achieved.  Increase integral accuracy.
 SCF Done:  E(RHF) =  -1154.67413437     A.U. after    7 cycles
             Convg  =    0.8589D-08             -V/T =  2.0019
 Calling FoFJK, ICntrl=      2127 FMM=F ISym2X=0 I1Cent= 0 IOpClX= 0 NMat=1 NMatS=1 NMatT=0.
 -------------------------------------------------------------------
 Center     Atomic                   Forces (Hartrees/Bohr)
 Number     Number              X              Y              Z
 -------------------------------------------------------------------
      1        9           0.000000000    0.000000000    0.000000000
      2        6           0.000000000    0.000000000    0.000000000
      3        6           0.000000000    0.000000000    0.000000000
      4        6           0.000000000    0.000000000    0.000000000
      5        6           0.000000000    0.000000000    0.000000000
      6        9           0.000000000    0.000000000    0.000000000
      7        9           0.000000000    0.000000000    0.000000000
      8        9           0.000000000    0.000000000    0.000000000
      9        6           0.000000000    0.000000000    0.000000000
     10        7           0.000000000    0.000000000    0.000000000
     11        6           0.000000000    0.000000000    0.000000000
     12       16           0.000000000    0.000000000    0.000000000
     13        1           0.000000000    0.000000000    0.000000000
     14        1           0.000000000    0.000000000    0.000000000
     15        1           0.000000000    0.000000000    0.000000000
     16        1           0.005224997    0.004971914   -0.008036332
     17        8          -0.014603514   -0.003117870    0.003707855
     18        1           0.009610340   -0.001905543    0.004287492
 -------------------------------------------------------------------
 Cartesian Forces:  Max     0.014603514 RMS     0.002943000
 -----------------------------------------------------------------------------------------------
                       Internal Coordinate Forces (Hartree/Bohr or radian)
  Cent   Atom   N1       Length/X         N2         Alpha/Y        N3         Beta/Z          J
 -----------------------------------------------------------------------------------------------
      1  F 
      2  C 
      3  C 
      4  C 
      5  C 
      6  F 
      7  F 
      8  F 
      9  C 
     10  N 
     11  C 
     12  S 
     13  H 
     14  H 
     15  H 
         X        7   0.000000(     1)      5   0.000661(     7)      4  -0.000076(    13)     0
         X       16   0.000000(     2)      7   0.000000(     8)      5   0.000288(    14)     0
     16  H        7   0.000083(     3)     16   0.000661(     9)     17  -0.000288(    15)     0
         X       18   0.000000(     4)      7  -0.000283(    10)     16   0.000000(    16)     0
     17  O       18  -0.010558(     5)     19  -0.000283(    11)      7  -0.000115(    17)     0
     18  H       20  -0.010594(     6)     18   0.002648(    12)     16  -0.000076(    18)     0
 -----------------------------------------------------------------------------------------------
 Internal  Forces:  Max     0.010593730 RMS     0.003589622

 GradGradGradGradGradGradGradGradGradGradGradGradGradGradGradGradGradGrad
 Berny optimization.
 Search for a local minimum.
 Step number   4 out of a maximum of   20
 All quantities printed in internal units (Hartrees-Bohrs-Radians)
 Update second derivatives using D2CorN and points    3    4
 DE= -4.27D-06 DEPred=-4.20D-06 R= 1.02D+00
 SS=  1.41D+00  RLast= 3.48D-02 DXNew= 5.0454D-01 1.0429D-01
 Trust test= 1.02D+00 RLast= 3.48D-02 DXMaxT set to 3.00D-01
 The second derivative matrix:
                          RX       RDUM       ROH      ADUM      AHOH
           RX           0.00230
           RDUM         0.00000   0.00000
           ROH         -0.00012   0.00000   1.12160
           ADUM         0.00003   0.00000   0.00000   2.14731
           AHOH         0.00043   0.00000   0.00000   0.00000   0.16000
           DDUM        -0.00001   0.00000   0.00000  -0.08024   0.00000
           DH1         -0.00005   0.00000   0.00000   0.08024   0.00000
           DOH2        -0.00006   0.00000   0.00000   0.12538   0.00000
           DH2         -0.00006   0.00000   0.00000   0.00000   0.00000
                         DDUM       DH1      DOH2       DH2
           DDUM         0.18247
           DH1         -0.18247   0.18247
           DOH2         0.00000   0.00000   0.28511
           DH2          0.00000   0.00000   0.00000   0.00000
     Eigenvalues ---    0.002301000.000001000.000001000.000001000.00000
     Eigenvalues --- 1000.000001000.000001000.000001000.00000
 RFO step:  Lambda= 0.00000000D+00 EMin= 2.30406927D-03
 Quartic linear search produced a step of  1.13971.
 Variable       Old X    -DE/DX   Delta X   Delta X   Delta X     New X
                                 (Linear)    (Quad)   (Total)
    RX        4.45596   0.00008   0.03962   0.00000   0.03962   4.49558
   RDUM       1.88973   0.00000   0.00000   0.00000   0.00000   1.88973
   ROH        1.80885  -0.02115   0.00000   0.00000   0.00000   1.80885
   ADUM       1.57080   0.00076   0.00000   0.00000   0.00000   1.57080
   AHOH       1.82422   0.00265   0.00000   0.00000   0.00000   1.82422
   DDUM       0.00000   0.00021   0.00000   0.00000   0.00000   0.00000
   DH1        3.14159  -0.00029   0.00000   0.00000   0.00000   3.14159
   DOH2       3.14159  -0.00012   0.00000   0.00000   0.00000   3.14159
   DH2        0.00000  -0.00008   0.00000   0.00000   0.00000   0.00000
         Item               Value     Threshold  Converged?
 Maximum Force            0.000083     0.000450     YES
 RMS     Force            0.000083     0.000300     YES
 Maximum Displacement     0.039621     0.001800     NO 
 RMS     Displacement     0.013207     0.001200     NO 
 Predicted change in Energy=-1.492627D-06
 GradGradGradGradGradGradGradGradGradGradGradGradGradGradGradGradGradGrad

 ---------------------------------------------------------------------------------------------------
                            Z-MATRIX (ANGSTROMS AND DEGREES)
   CD    Cent   Atom    N1       Length/X        N2       Alpha/Y        N3        Beta/Z          J
 ---------------------------------------------------------------------------------------------------
      1      1  F       -1  -1.969300          2.053680          0.000070
      2      2  C       -1  -1.222250          0.944230          0.000030
      3      3  C       -1   0.140030          1.057400         -0.000020
      4      4  C       -1   0.927950         -0.123640         -0.000080
      5      5  C       -1   2.414660         -0.018650         -0.000010
      6      6  F       -1   3.007080         -1.234610         -0.000560
      7      7  F       -1   2.858290          0.654480         -1.086020
      8      8  F       -1   2.858270          0.653500          1.086650
      9      9  C       -1   0.306540         -1.341490         -0.000090
     10     10  N       -1  -1.054170         -1.389970         -0.000060
     11     11  C       -1  -1.930500         -0.312100          0.000000
     12     12  S       -1  -3.570980         -0.506610          0.000030
     13     13  H       -1   0.596860          2.043100         -0.000020
     14     14  H       -1   0.831760         -2.288990         -0.000150
     15     15  H       -1  -1.521480         -2.296390         -0.000090
     16         X        7   1.000000(    15)      5   90.000(    34)      4    0.000(    52)      0
     17         X       16   1.000000(    16)      7   90.000(    35)      5    0.000(    53)      0
     18     16  H        7   2.378960(    17)     16   90.000(    36)     17  180.000(    54)      0
     19         X       18   1.000000(    18)      7   90.000(    37)     16    0.000(    55)      0
     20     17  O       18   0.957200(    19)     19   90.000(    38)      7  180.000(    56)      0
[...]
 !       DH1       180.0      -DE/DX =   -0.0003                        !
 !      DOH2       180.0      -DE/DX =   -0.0001                        !
 !       DH2         0.0      -DE/DX =   -0.0001                        !
 ------------------------------------------------------------------------
 GradGradGradGradGradGradGradGradGradGradGradGradGradGradGradGradGradGrad

 ---------------------------------------------------------------------------------------------------
                            Z-MATRIX (ANGSTROMS AND DEGREES)
   CD    Cent   Atom    N1       Length/X        N2       Alpha/Y        N3        Beta/Z          J
 ---------------------------------------------------------------------------------------------------
      1      1  F       -1  -1.969300          2.053680          0.000070
      2      2  C       -1  -1.222250          0.944230          0.000030
      3      3  C       -1   0.140030          1.057400         -0.000020
      4      4  C       -1   0.927950         -0.123640         -0.000080
      5      5  C       -1   2.414660         -0.018650         -0.000010
      6      6  F       -1   3.007080         -1.234610         -0.000560
      7      7  F       -1   2.858290          0.654480         -1.086020
      8      8  F       -1   2.858270          0.653500          1.086650
      9      9  C       -1   0.306540         -1.341490         -0.000090
     10     10  N       -1  -1.054170         -1.389970         -0.000060
     11     11  C       -1  -1.930500         -0.312100          0.000000
     12     12  S       -1  -3.570980         -0.506610          0.000030
     13     13  H       -1   0.596860          2.043100         -0.000020
     14     14  H       -1   0.831760         -2.288990         -0.000150
     15     15  H       -1  -1.521480         -2.296390         -0.000090
     16         X        7   1.000000(    15)      5   90.000(    34)      4    0.000(    52)      0
     17         X       16   1.000000(    16)      7   90.000(    35)      5    0.000(    53)      0
     18     16  H        7   2.378960(    17)     16   90.000(    36)     17  180.000(    54)      0
     19         X       18   1.000000(    18)      7   90.000(    37)     16    0.000(    55)      0
     20     17  O       18   0.957200(    19)     19   90.000(    38)      7  180.000(    56)      0
     21     18  H       20   0.957200(    20)     18  104.520(    39)     16    0.000(    57)      0
 ---------------------------------------------------------------------------------------------------
                         Z-Matrix orientation:                         
 ---------------------------------------------------------------------
 Center     Atomic      Atomic             Coordinates (Angstroms)
 Number     Number       Type             X           Y           Z
 ---------------------------------------------------------------------
      1          9           0       -1.969300    2.053680    0.000070
      2          6           0       -1.222250    0.944230    0.000030
      3          6           0        0.140030    1.057400   -0.000020
      4          6           0        0.927950   -0.123640   -0.000080
      5          6           0        2.414660   -0.018650   -0.000010
      6          9           0        3.007080   -1.234610   -0.000560
      7          9           0        2.858290    0.654480   -1.086020
      8          9           0        2.858270    0.653500    1.086650
      9          6           0        0.306540   -1.341490   -0.000090
     10          7           0       -1.054170   -1.389970   -0.000060
     11          6           0       -1.930500   -0.312100    0.000000
     12         16           0       -3.570980   -0.506610    0.000030
     13          1           0        0.596860    2.043100   -0.000020
     14          1           0        0.831760   -2.288990   -0.000150
     15          1           0       -1.521480   -2.296390   -0.000090
     16         -1           0        1.915565    0.772301   -1.398091
     17         -1           0        1.587564    0.274618   -0.595142
     18          1           0        3.638591    1.838449   -2.996203
     19         -1           0        2.695866    1.956270   -3.308274
     20          8           0        3.952553    2.314831   -3.764786
     21          1           0        3.157715    2.543445   -4.246657
 ---------------------------------------------------------------------
                    Distance matrix (angstroms):
                    1          2          3          4          5
     1  F    0.000000
     2  C    1.337521   0.000000
     3  C    2.332777   1.366973   0.000000
     4  C    3.624194   2.400772   1.419744   0.000000
     5  C    4.849088   3.762214   2.516312   1.490413   0.000000
     6  F    5.964663   4.757581   3.670597   2.357337   1.352598
     7  F    5.142274   4.232525   2.954772   2.347541   1.352527
     8  F    5.142625   4.232719   2.955134   2.347566   1.352555
     9  C    4.087374   2.749857   2.404662   1.367227   2.488790
    10  N    3.563171   2.340244   2.723184   2.352104   3.730054
    11  C    2.366098   1.442215   2.482463   2.864656   4.355058
    12  S    3.020011   2.760701   4.027123   4.515201   6.005497
    13  H    2.566182   2.125247   1.086415   2.191890   2.748674
    14  H    5.167661   3.830492   3.417136   2.167485   2.767673
    15  H    4.373060   3.254406   3.742796   3.274225   4.547669
    16  X    4.323073   3.439504   2.277808   1.931975   1.682061
    17  X    4.021271   2.949181   1.749935   0.973550   1.060318
    18  H    6.361794   5.779690   4.671946   4.491561   3.731487
    19  X    5.720000   5.226924   4.276074   4.289021   3.863159
    20  O    7.022157   6.544538   5.503629   5.409933   4.688687
    21  H    6.675391   6.306816   5.417442   5.488042   5.015024
                    6          7          8          9         10
     6  F    0.000000
     7  F    2.183809   0.000000
     8  F    2.183834   2.172670   0.000000
     9  C    2.702654   3.416807   3.416477   0.000000
    10  N    4.064221   4.546034   4.545756   1.361573   0.000000
    11  C    5.023019   5.004620   5.004549   2.462517   1.389157
    12  S    6.618222   6.622926   6.622828   3.966382   2.667332
    13  H    4.068482   2.867355   2.868068   3.397019   3.809445
    14  H    2.417382   3.734964   3.734451   1.083334   2.089251
    15  H    4.651369   5.391592   5.391203   2.062399   1.019792
    16  X    2.678094   1.000000   2.660215   3.001913   3.930551
    17  X    2.155533   1.414214   2.141651   2.146372   3.178637
    18  H    4.337784   2.378960   4.322348   5.494658   6.435959
    19  X    4.606467   2.580591   4.586823   5.246730   6.017007
    20  O    5.259453   3.336160   5.243463   6.390229   7.277774
    21  H    5.685572   3.694248   5.666191   6.423025   7.158583
                   11         12         13         14         15
    11  C    0.000000
    12  S    1.651971   0.000000
    13  H    3.454637   4.885889   0.000000
    14  H    3.396789   4.749842   4.338454   0.000000
    15  H    2.026007   2.720986   4.828927   2.353252   0.000000
    16  X    4.233533   5.804527   2.304022   3.535587   4.815034
    17  X    3.615966   5.251202   2.112627   2.738127   4.078030
    18  H    6.679586   8.151971   4.274473   5.821545   7.259471
    19  X    6.123189   7.502267   3.918917   5.695683   6.842164
    20  O    7.462218   8.873439   5.050542   6.716175   8.087109
    21  H    7.216520   8.521298   4.984200   6.840710   7.959409
                   16         17         18         19         20
    16  X    0.000000
    17  X    1.000000   0.000000
    18  H    2.580591   3.523829   0.000000
    19  X    2.378960   3.378960   1.000000   0.000000
    20  O    3.482810   4.449976   0.957200   1.384280   0.000000
    21  H    3.576900   4.576736   1.513901   1.199434   0.957200
                   21
    21  H    0.000000
 Symmetry turned off by external request.
 Stoichiometry    C6H5F4NOS
 Framework group  C1[X(C6H5F4NOS)]
 Deg. of freedom    48
 Full point group                 C1      NOp   1
 Rotational constants (GHZ):      0.9863337      0.3179767      0.2784529

 **********************************************************************

            Population analysis using the SCF density.

 **********************************************************************

 Alpha  occ. eigenvalues --  -91.90867 -26.37468 -26.37322 -26.36512 -26.33853
 Alpha  occ. eigenvalues --  -20.55735 -15.69129 -11.55009 -11.38232 -11.37633
 Alpha  occ. eigenvalues --  -11.36624 -11.31685 -11.30827  -8.91954  -6.60281
 Alpha  occ. eigenvalues --   -6.60005  -6.59878  -1.74948  -1.65957  -1.65288
 Alpha  occ. eigenvalues --   -1.65104  -1.35966  -1.33927  -1.17642  -1.12498
 Alpha  occ. eigenvalues --   -1.03584  -0.97754  -0.93149  -0.88717  -0.85460
 Alpha  occ. eigenvalues --   -0.84538  -0.84234  -0.77512  -0.76372  -0.74309
 Alpha  occ. eigenvalues --   -0.73160  -0.72367  -0.71727  -0.70718  -0.70438
 Alpha  occ. eigenvalues --   -0.68495  -0.68213  -0.66983  -0.64528  -0.62944
 Alpha  occ. eigenvalues --   -0.61263  -0.59902  -0.56839  -0.52969  -0.49537
 Alpha  occ. eigenvalues --   -0.47071  -0.43687  -0.34486  -0.31387
 Alpha virt. eigenvalues --    0.04045   0.08245   0.17297   0.21444   0.24078
 Alpha virt. eigenvalues --    0.24834   0.26012   0.26124   0.29121   0.31203
 Alpha virt. eigenvalues --    0.33506   0.34960   0.38889   0.40797   0.42109
 Alpha virt. eigenvalues --    0.43655   0.46255   0.49077   0.53758   0.55090
 Alpha virt. eigenvalues --    0.56333   0.59363   0.60809   0.63937   0.66227
 Alpha virt. eigenvalues --    0.67397   0.71463   0.72608   0.73129   0.74922
 Alpha virt. eigenvalues --    0.76724   0.77460   0.82496   0.84054   0.87039
 Alpha virt. eigenvalues --    0.88644   0.89456   0.91729   0.95246   0.99370
 Alpha virt. eigenvalues --    1.01782   1.02262   1.02523   1.04185   1.07081
 Alpha virt. eigenvalues --    1.08822   1.09394   1.12379   1.13199   1.14816
 Alpha virt. eigenvalues --    1.15659   1.16988   1.17224   1.18117   1.24021
 Alpha virt. eigenvalues --    1.27916   1.28968   1.30857   1.32617   1.33772
 Alpha virt. eigenvalues --    1.34369   1.36793   1.40893   1.41629   1.41942
 Alpha virt. eigenvalues --    1.44443   1.46952   1.51592   1.59552   1.59980
 Alpha virt. eigenvalues --    1.60885   1.62754   1.63227   1.63853   1.64608
 Alpha virt. eigenvalues --    1.65532   1.66951   1.69176   1.69654   1.71519
 Alpha virt. eigenvalues --    1.72876   1.75796   1.76541   1.80848   1.86075
 Alpha virt. eigenvalues --    1.91020   1.91892   1.93166   1.99434   2.02302
 Alpha virt. eigenvalues --    2.03621   2.03928   2.05429   2.07008   2.08619
 Alpha virt. eigenvalues --    2.09594   2.11433   2.12148   2.17552   2.19795
 Alpha virt. eigenvalues --    2.21962   2.22039   2.24079   2.27961   2.29202
 Alpha virt. eigenvalues --    2.29879   2.32264   2.33250   2.34157   2.35323
 Alpha virt. eigenvalues --    2.37414   2.38675   2.42779   2.44543   2.45171
 Alpha virt. eigenvalues --    2.46555   2.51757   2.60254   2.61480   2.63449
 Alpha virt. eigenvalues --    2.64956   2.67746   2.74664   2.82344   2.84067
 Alpha virt. eigenvalues --    2.84138   2.90782   2.92390   2.92830   2.94971
 Alpha virt. eigenvalues --    2.99762   3.06643   3.09064   3.16743   3.21589
 Alpha virt. eigenvalues --    3.29034   3.37214   3.38381   3.42446   3.44786
 Alpha virt. eigenvalues --    3.49020   3.70728   4.02044   4.35946   4.39664
 Alpha virt. eigenvalues --    4.44606   4.47793   4.59635   4.63717   4.72429
 Alpha virt. eigenvalues --    4.81598   5.02426   5.16300   5.57330   6.02460
          Condensed to atoms (all electrons):
              1          2          3          4          5          6
     1  F    9.159133   0.267931  -0.033787   0.002214  -0.000015   0.000000
     2  C    0.267931   4.575959   0.569938  -0.026564   0.000793  -0.000019
     3  C   -0.033787   0.569938   5.071847   0.352859  -0.012541   0.002182
     4  C    0.002214  -0.026564   0.352859   5.207930   0.418743  -0.045296
     5  C   -0.000015   0.000793  -0.012541   0.418743   3.550281   0.290738
     6  F    0.000000  -0.000019   0.002182  -0.045296   0.290738   9.183478
     7  F    0.000000   0.000293   0.005123  -0.054094   0.273716  -0.030200
     8  F    0.000000   0.000292   0.005071  -0.055395   0.286395  -0.030760
     9  C    0.000132  -0.023012  -0.054608   0.592243  -0.020962   0.005426
    10  N    0.001383  -0.053461  -0.021191  -0.035884   0.001226   0.000238
    11  C   -0.040748   0.377340  -0.079125  -0.001237   0.000082   0.000002
    12  S    0.003496  -0.083544   0.001594  -0.000047   0.000006   0.000000
    13  H   -0.000269  -0.016966   0.368696  -0.030605  -0.000260   0.000035
    14  H    0.000000  -0.000113   0.001803  -0.022666  -0.000140   0.004983
    15  H   -0.000018   0.003854  -0.000572   0.002343  -0.000015   0.000001
    16  H    0.000000   0.000000   0.000007   0.000065   0.000075   0.000010
    17  O    0.000000   0.000000   0.000000  -0.000003   0.000009   0.000000
    18  H    0.000000   0.000000   0.000000   0.000000   0.000000   0.000000
              7          8          9         10         11         12
     1  F    0.000000   0.000000   0.000132   0.001383  -0.040748   0.003496
     2  C    0.000293   0.000292  -0.023012  -0.053461   0.377340  -0.083544
     3  C    0.005123   0.005071  -0.054608  -0.021191  -0.079125   0.001594
     4  C   -0.054094  -0.055395   0.592243  -0.035884  -0.001237  -0.000047
     5  C    0.273716   0.286395  -0.020962   0.001226   0.000082   0.000006
     6  F   -0.030200  -0.030760   0.005426   0.000238   0.000002   0.000000
     7  F    9.210285  -0.033480   0.000485  -0.000005  -0.000002   0.000000
     8  F   -0.033480   9.196463   0.000505  -0.000006  -0.000002   0.000000
     9  C    0.000485   0.000505   4.732585   0.266702  -0.038434   0.003296
    10  N   -0.000005  -0.000006   0.266702   7.235666   0.211532  -0.104405
    11  C   -0.000002  -0.000002  -0.038434   0.211532   4.956973   0.447430
    12  S    0.000000   0.000000   0.003296  -0.104405   0.447430  15.944053
    13  H    0.000900   0.000902   0.002412  -0.000262   0.002624  -0.000056
    14  H    0.000083   0.000083   0.379795  -0.031844   0.000955  -0.000131
    15  H    0.000000   0.000000  -0.021465   0.309781  -0.017810   0.013695
    16  H    0.008194   0.000011   0.000000   0.000000   0.000000   0.000000
    17  O   -0.000677   0.000000   0.000000   0.000000   0.000000   0.000000
    18  H   -0.000022   0.000000   0.000000   0.000000   0.000000   0.000000
             13         14         15         16         17         18
     1  F   -0.000269   0.000000  -0.000018   0.000000   0.000000   0.000000
     2  C   -0.016966  -0.000113   0.003854   0.000000   0.000000   0.000000
     3  C    0.368696   0.001803  -0.000572   0.000007   0.000000   0.000000
     4  C   -0.030605  -0.022666   0.002343   0.000065  -0.000003   0.000000
     5  C   -0.000260  -0.000140  -0.000015   0.000075   0.000009   0.000000
     6  F    0.000035   0.004983   0.000001   0.000010   0.000000   0.000000
     7  F    0.000900   0.000083   0.000000   0.008194  -0.000677  -0.000022
     8  F    0.000902   0.000083   0.000000   0.000011   0.000000   0.000000
     9  C    0.002412   0.379795  -0.021465   0.000000   0.000000   0.000000
    10  N   -0.000262  -0.031844   0.309781   0.000000   0.000000   0.000000
    11  C    0.002624   0.000955  -0.017810   0.000000   0.000000   0.000000
    12  S   -0.000056  -0.000131   0.013695   0.000000   0.000000   0.000000
    13  H    0.393297  -0.000062   0.000008   0.000002   0.000000   0.000000
    14  H   -0.000062   0.379658  -0.002110   0.000000   0.000000   0.000000
    15  H    0.000008  -0.002110   0.269626   0.000000   0.000000   0.000000
    16  H    0.000002   0.000000   0.000000   0.310372   0.262155  -0.018501
    17  O    0.000000   0.000000   0.000000   0.262155   8.349900   0.265255
    18  H    0.000000   0.000000   0.000000  -0.018501   0.265255   0.322986
 Mulliken atomic charges:
              1
     1  F   -0.359452
     2  C    0.407280
     3  C   -0.177298
     4  C   -0.304605
     5  C    1.211869
     6  F   -0.380819
     7  F   -0.380599
     8  F   -0.370082
     9  C    0.174900
    10  N   -0.779470
    11  C    0.180417
    12  S   -0.225385
    13  H    0.279603
    14  H    0.289707
    15  H    0.442680
    16  H    0.437610
    17  O   -0.876639
    18  H    0.430283
 Sum of Mulliken atomic charges =   0.00000
 Mulliken charges with hydrogens summed into heavy atoms:
              1
     1  F   -0.359452
     2  C    0.407280
     3  C    0.102305
     4  C   -0.304605
     5  C    1.211869
     6  F   -0.380819
     7  F   -0.380599
     8  F   -0.370082
     9  C    0.464607
    10  N   -0.336790
    11  C    0.180417
    12  S   -0.225385
    17  O   -0.008746
 Sum of Mulliken charges with hydrogens summed into heavy atoms =   0.00000
 Electronic spatial extent (au):  <R**2>=           3880.1595
 Charge=              0.0000 electrons
 Dipole moment (field-independent basis, Debye):
    X=              1.2177    Y=             -3.2782    Z=              0.7670  Tot=              3.5802
 Quadrupole moment (field-independent basis, Debye-Ang):
   XX=           -120.7885   YY=            -73.4246   ZZ=            -84.8892
   XY=             -5.2164   XZ=             11.0972   YZ=              2.0948
 Traceless Quadrupole moment (field-independent basis, Debye-Ang):
   XX=            -27.7544   YY=             19.6095   ZZ=              8.1449
   XY=             -5.2164   XZ=             11.0972   YZ=              2.0948
 Octapole moment (field-independent basis, Debye-Ang**2):
  XXX=            -61.4780  YYY=            -61.7104  ZZZ=             82.2688  XYY=            -24.0657
  XXY=            -56.3915  XXZ=             96.0884  XZZ=            -54.3196  YZZ=            -15.2725
  YYZ=             30.5996  XYZ=             28.1677
 Hexadecapole moment (field-independent basis, Debye-Ang**3):
 XXXX=          -3693.1353 YYYY=           -683.7608 ZZZZ=           -699.8853 XXXY=           -449.2543
 XXXZ=            662.4295 YYYX=           -238.3878 YYYZ=            187.1656 ZZZX=            456.9584
 ZZZY=            165.0014 XXYY=           -769.6802 XXZZ=           -926.8428 YYZZ=           -245.5172
 XXYZ=            234.2777 YYXZ=            167.9056 ZZXY=           -174.9736
 N-N= 9.033045763101D+02 E-N=-4.543962985102D+03  KE= 1.152539272941D+03
 1\1\GINC-B1\FOpt\RHF\6-31G(d)\C6H5F4N1O1S1\ANA\24-Sep-2021\1\\#HF/6-31
 G* Opt=Z-matrix NoSymm\\water interaction with atom F7\\0,1\F,-1,-1.96
 93,2.05368,0.00007\C,-1,-1.22225,0.94423,0.00003\C,-1,0.14003,1.0574,-
 0.00002\C,-1,0.92795,-0.12364,-0.00008\C,-1,2.41466,-0.01865,-0.00001\
 F,-1,3.00708,-1.23461,-0.00056\F,-1,2.85829,0.65448,-1.08602\F,-1,2.85
 827,0.6535,1.08665\C,-1,0.30654,-1.34149,-0.00009\N,-1,-1.05417,-1.389
 97,-0.00006\C,-1,-1.9305,-0.3121,0.\S,-1,-3.57098,-0.50661,0.00003\H,-
 1,0.59686,2.0431,-0.00002\H,-1,0.83176,-2.28899,-0.00015\H,-1,-1.52148
 ,-2.29639,-0.00009\X,7,RDUM,5,ADUM,4,DDUM,0\X,16,RDUM,7,ADUM,5,DDUM,0\
 H,7,RX,16,ADUM,17,DH1,0\X,18,RDUM,7,ADUM,16,DDUM,0\O,18,ROH,19,ADUM,7,
 DOH2,0\H,20,ROH,18,AHOH,16,DH2,0\\RX=2.37896012\RDUM=1.\ROH=0.9572\ADU
 M=90.\AHOH=104.52\DDUM=0.\DH1=180.\DOH2=180.\DH2=0.\\Version=EM64L-G09
 RevA.01\HF=-1154.674136\RMSD=9.462e-09\RMSF=2.935e-03\Dipole=0.4790918
 ,-1.2897547,0.3017425\Quadrupole=-20.6347391,14.5791935,6.0555456,-3.8
 782677,8.2504958,1.557423\PG=C01 [X(C6H5F4N1O1S1)]\\@


 K N O W I N G  IS A BARRIER WHICH PREVENTS LEARNING

                     -- TEACHING OF THE BENE GESSERIT
 Job cpu time:  0 days  0 hours  3 minutes 44.4 seconds.
 File lengths (MBytes):  RWF=     33 Int=      0 D2E=      0 Chk=      3 Scr=      1
 Normal termination of Gaussian 09 at Fri Sep 24 08:08:03 2021.
