 Entering Gaussian System, Link 0=g09
 Initial command:
 /home/ana/programs/g09/l1.exe /home/ana/programs/g09/scratch/Gau-701690.inp -scrdir=/home/ana/programs/g09/scratch/
 Entering Link 1 = /home/ana/programs/g09/l1.exe PID=    701692.
  
 Copyright (c) 1988,1990,1992,1993,1995,1998,2003,2009, Gaussian, Inc.
                  All Rights Reserved.
  
 This is part of the Gaussian(R) 09 program.  It is based on
 the Gaussian(R) 03 system (copyright 2003, Gaussian, Inc.),
 the Gaussian(R) 98 system (copyright 1998, Gaussian, Inc.),
 the Gaussian(R) 94 system (copyright 1995, Gaussian, Inc.),
 the Gaussian 92(TM) system (copyright 1992, Gaussian, Inc.),
 the Gaussian 90(TM) system (copyright 1990, Gaussian, Inc.),
 the Gaussian 88(TM) system (copyright 1988, Gaussian, Inc.),
 the Gaussian 86(TM) system (copyright 1986, Carnegie Mellon
 University), and the Gaussian 82(TM) system (copyright 1983,
 Carnegie Mellon University). Gaussian is a federally registered
 trademark of Gaussian, Inc.
  
 This software contains proprietary and confidential information,
 including trade secrets, belonging to Gaussian, Inc.
  
 This software is provided under written license and may be
 used, copied, transmitted, or stored only in accord with that
 written license.
  
 The following legend is applicable only to US Government
 contracts under FAR:
  
                    RESTRICTED RIGHTS LEGEND
  
 Use, reproduction and disclosure by the US Government is
 subject to restrictions as set forth in subparagraphs (a)
 and (c) of the Commercial Computer Software - Restricted
 Rights clause in FAR 52.227-19.
  
 Gaussian, Inc.
 340 Quinnipiac St., Bldg. 40, Wallingford CT 06492
  
  
 ---------------------------------------------------------------
 Warning -- This program may not be used in any manner that
 competes with the business of Gaussian, Inc. or will provide
 assistance to any competitor of Gaussian, Inc.  The licensee
 of this program is prohibited from giving any competitor of
 Gaussian, Inc. access to this program.  By using this program,
 the user acknowledges that Gaussian, Inc. is engaged in the
 business of creating and licensing software in the field of
 computational chemistry and represents and warrants to the
 licensee that it is not a competitor of Gaussian, Inc. and that
 it will not use this program in any manner prohibited above.
 ---------------------------------------------------------------
  

 Cite this work as:
 Gaussian 09, Revision A.01,
 M. J. Frisch, G. W. Trucks, H. B. Schlegel, G. E. Scuseria, 
 M. A. Robb, J. R. Cheeseman, G. Scalmani, V. Barone, B. Mennucci, 
 G. A. Petersson, H. Nakatsuji, M. Caricato, X. Li, H. P. Hratchian, 
 A. F. Izmaylov, J. Bloino, G. Zheng, J. L. Sonnenberg, M. Hada, 
 M. Ehara, K. Toyota, R. Fukuda, J. Hasegawa, M. Ishida, T. Nakajima, 
 Y. Honda, O. Kitao, H. Nakai, T. Vreven, J. A. Montgomery, Jr., 
 J. E. Peralta, F. Ogliaro, M. Bearpark, J. J. Heyd, E. Brothers, 
 K. N. Kudin, V. N. Staroverov, R. Kobayashi, J. Normand, 
 K. Raghavachari, A. Rendell, J. C. Burant, S. S. Iyengar, J. Tomasi, 
 M. Cossi, N. Rega, J. M. Millam, M. Klene, J. E. Knox, J. B. Cross, 
 V. Bakken, C. Adamo, J. Jaramillo, R. Gomperts, R. E. Stratmann, 
 O. Yazyev, A. J. Austin, R. Cammi, C. Pomelli, J. W. Ochterski, 
 R. L. Martin, K. Morokuma, V. G. Zakrzewski, G. A. Voth, 
 P. Salvador, J. J. Dannenberg, S. Dapprich, A. D. Daniels, 
 O. Farkas, J. B. Foresman, J. V. Ortiz, J. Cioslowski, 
 and D. J. Fox, Gaussian, Inc., Wallingford CT, 2009.
 
 ******************************************
 Gaussian 09:  EM64L-G09RevA.01  8-May-2009
                24-Sep-2021 
 ******************************************
 %NPROC=4
 Will use up to    4 processors via shared memory.
 %NoSave
 ------------------------------
 #HF/6-31G* Opt=Z-matrix NoSymm
 ------------------------------
 1/10=7,18=40,38=1/1,3;
 2/12=2,15=1,17=6,18=5,29=3,40=1/2;
 3/5=1,6=6,7=1,11=9,16=1,25=1,30=1,71=1/1,2,3;
 4//1;
 5/5=2,38=5/2;
 6/7=2,8=2,9=2,10=2,28=1/1;
 7/29=1,30=1/1,2,3,16;
 1/10=7,18=40/3(2);
 2/15=1,29=3/2;
 99//99;
 2/15=1,29=3/2;
 3/5=1,6=6,7=1,11=9,16=1,25=1,30=1,71=1/1,2,3;
 4/5=5,16=3/1;
 5/5=2,38=5/2;
 7/30=1/1,2,3,16;
 1/18=40/3(-5);
 2/15=1,29=3/2;
 6/7=2,8=2,9=2,10=2,19=2,28=1/1;
 99/9=1/99;
 ------------------------------
 water interaction with atom F7
 ------------------------------
 Symbolic Z-matrix:
 Charge =  0 Multiplicity = 1
 9                    -1   -1.9693    2.05368   0.00007 
 6                    -1   -1.22225   0.94423   0.00003 
 6                    -1    0.14003   1.0574   -0.00002 
 6                    -1    0.92795  -0.12364  -0.00008 
 6                    -1    2.41466  -0.01865  -0.00001 
 9                    -1    3.00708  -1.23461  -0.00056 
 9                    -1    2.85829   0.65448  -1.08602 
 9                    -1    2.85827   0.6535    1.08665 
 6                    -1    0.30654  -1.34149  -0.00009 
 7                    -1   -1.05417  -1.38997  -0.00006 
 6                    -1   -1.9305   -0.3121    0. 
 16                   -1   -3.57098  -0.50661   0.00003 
 1                    -1    0.59686   2.0431   -0.00002 
 1                    -1    0.83176  -2.28899  -0.00015 
 1                    -1   -1.52148  -2.29639  -0.00009 
 X                    7    RDUM     5    ADUM     4    DDUM     0
 X                    16   RDUM     7    ADUM     5    DDUM     0
 H1                   7    RX       16   ADUM     17   DH1      0
 X                    18   RDUM     7    ADUM     16   DDUM     0
 OH2                  18   ROH      19   ADUM     7    DOH2     0
 H2                   20   ROH      18   AHOH     16   DH2      0
       Variables:
  RX                    2.3338                   
       Constants:
  RDUM                  1.                       
  ROH                   0.9572                   
  ADUM                 90.                       
  AHOH                104.52                     
  DDUM                  0.                       
  DH1                 180.                       
  DOH2                180.                       
  DH2                 270.                       
 

 GradGradGradGradGradGradGradGradGradGradGradGradGradGradGradGradGradGrad
 Berny optimization.
 Initialization pass.
                       ----------------------------
                       !    Initial Parameters    !
                       ! (Angstroms and Degrees)  !
 ----------------------                            ----------------------
 !      Name          Value   Derivative information (Atomic Units)     !
 ------------------------------------------------------------------------
 !       RX          2.3338   estimate D2E/DX2                          !
 !      RDUM         1.0      Frozen                                    !
 !       ROH         0.9572   Frozen                                    !
 !      ADUM        90.0      Frozen                                    !
 !      AHOH       104.52     Frozen                                    !
 !      DDUM         0.0      Frozen                                    !
 !       DH1       180.0      Frozen                                    !
 !      DOH2       180.0      Frozen                                    !
 !       DH2       270.0      Frozen                                    !
 ------------------------------------------------------------------------
 Trust Radius=3.00D-01 FncErr=1.00D-07 GrdErr=1.00D-07
 Number of steps in this run=  20 maximum allowed number of steps= 100.
 GradGradGradGradGradGradGradGradGradGradGradGradGradGradGradGradGradGrad

 ---------------------------------------------------------------------------------------------------
                            Z-MATRIX (ANGSTROMS AND DEGREES)
   CD    Cent   Atom    N1       Length/X        N2       Alpha/Y        N3        Beta/Z          J
 ---------------------------------------------------------------------------------------------------
      1      1  F       -1  -1.969300          2.053680          0.000070
      2      2  C       -1  -1.222250          0.944230          0.000030
      3      3  C       -1   0.140030          1.057400         -0.000020
      4      4  C       -1   0.927950         -0.123640         -0.000080
      5      5  C       -1   2.414660         -0.018650         -0.000010
      6      6  F       -1   3.007080         -1.234610         -0.000560
      7      7  F       -1   2.858290          0.654480         -1.086020
      8      8  F       -1   2.858270          0.653500          1.086650
      9      9  C       -1   0.306540         -1.341490         -0.000090
     10     10  N       -1  -1.054170         -1.389970         -0.000060
     11     11  C       -1  -1.930500         -0.312100          0.000000
     12     12  S       -1  -3.570980         -0.506610          0.000030
     13     13  H       -1   0.596860          2.043100         -0.000020
     14     14  H       -1   0.831760         -2.288990         -0.000150
     15     15  H       -1  -1.521480         -2.296390         -0.000090
     16         X        7   1.000000(    15)      5   90.000(    34)      4    0.000(    52)      0
     17         X       16   1.000000(    16)      7   90.000(    35)      5    0.000(    53)      0
     18     16  H        7   2.333800(    17)     16   90.000(    36)     17  180.000(    54)      0
     19         X       18   1.000000(    18)      7   90.000(    37)     16    0.000(    55)      0
     20     17  O       18   0.957200(    19)     19   90.000(    38)      7  180.000(    56)      0
     21     18  H       20   0.957200(    20)     18  104.520(    39)     16  270.000(    57)      0
 ---------------------------------------------------------------------------------------------------
                         Z-Matrix orientation:                         
 ---------------------------------------------------------------------
 Center     Atomic      Atomic             Coordinates (Angstroms)
 Number     Number       Type             X           Y           Z
 ---------------------------------------------------------------------
      1          9           0       -1.969300    2.053680    0.000070
      2          6           0       -1.222250    0.944230    0.000030
      3          6           0        0.140030    1.057400   -0.000020
      4          6           0        0.927950   -0.123640   -0.000080
      5          6           0        2.414660   -0.018650   -0.000010
      6          9           0        3.007080   -1.234610   -0.000560
      7          9           0        2.858290    0.654480   -1.086020
      8          9           0        2.858270    0.653500    1.086650
      9          6           0        0.306540   -1.341490   -0.000090
     10          7           0       -1.054170   -1.389970   -0.000060
     11          6           0       -1.930500   -0.312100    0.000000
     12         16           0       -3.570980   -0.506610    0.000030
     13          1           0        0.596860    2.043100   -0.000020
     14          1           0        0.831760   -2.288990   -0.000150
     15          1           0       -1.521480   -2.296390   -0.000090
     16         -1           0        1.915565    0.772301   -1.398091
     17         -1           0        1.587564    0.274618   -0.595142
     18          1           0        3.623778    1.815973   -2.959942
     19         -1           0        2.681054    1.933794   -3.272013
     20          8           0        3.937741    2.292355   -3.728525
     21          1           0        4.072711    1.615524   -4.391785
 ---------------------------------------------------------------------
                    Distance matrix (angstroms):
                    1          2          3          4          5
     1  F    0.000000
     2  C    1.337521   0.000000
     3  C    2.332777   1.366973   0.000000
     4  C    3.624194   2.400772   1.419744   0.000000
     5  C    4.849088   3.762214   2.516312   1.490413   0.000000
     6  F    5.964663   4.757581   3.670597   2.357337   1.352598
     7  F    5.142274   4.232525   2.954772   2.347541   1.352527
     8  F    5.142625   4.232719   2.955134   2.347566   1.352555
     9  C    4.087374   2.749857   2.404662   1.367227   2.488790
    10  N    3.563171   2.340244   2.723184   2.352104   3.730054
    11  C    2.366098   1.442215   2.482463   2.864656   4.355058
    12  S    3.020011   2.760701   4.027123   4.515201   6.005497
    13  H    2.566182   2.125247   1.086415   2.191890   2.748674
    14  H    5.167661   3.830492   3.417136   2.167485   2.767673
    15  H    4.373060   3.254406   3.742796   3.274225   4.547669
    16  X    4.323073   3.439504   2.277808   1.931975   1.682061
    17  X    4.021271   2.949181   1.749935   0.973550   1.060318
    18  H    6.332511   5.745029   4.633905   4.448637   3.686327
    19  X    5.687415   5.188572   4.234478   4.244049   3.819556
    20  O    6.989457   6.507309   5.463467   5.366300   4.643527
    21  H    7.482397   6.911967   5.921578   5.674618   4.970649
                    6          7          8          9         10
     6  F    0.000000
     7  F    2.183809   0.000000
     8  F    2.183834   2.172670   0.000000
     9  C    2.702654   3.416807   3.416477   0.000000
    10  N    4.064221   4.546034   4.545756   1.361573   0.000000
    11  C    5.023019   5.004620   5.004549   2.462517   1.389157
    12  S    6.618222   6.622926   6.622828   3.966382   2.667332
    13  H    4.068482   2.867355   2.868068   3.397019   3.809445
    14  H    2.417382   3.734964   3.734451   1.083334   2.089251
    15  H    4.651369   5.391592   5.391203   2.062399   1.019792
    16  X    2.678094   1.000000   2.660215   3.001913   3.930551
    17  X    2.155533   1.414214   2.141651   2.146372   3.178637
    18  H    4.294685   2.333800   4.279282   5.452923   6.397044
    19  X    4.565904   2.539020   4.546262   5.203007   5.975364
    20  O    5.215682   3.291000   5.199713   6.347573   7.237413
    21  H    5.342443   3.650549   5.693295   6.497304   7.389530
                   11         12         13         14         15
    11  C    0.000000
    12  S    1.651971   0.000000
    13  H    3.454637   4.885889   0.000000
    14  H    3.396789   4.749842   4.338454   0.000000
    15  H    2.026007   2.720986   4.828927   2.353252   0.000000
    16  X    4.233533   5.804527   2.304022   3.535587   4.815034
    17  X    3.615966   5.251202   2.112627   2.738127   4.078030
    18  H    6.643791   8.119136   4.239689   5.779832   7.221214
    19  X    6.084122   7.466576   3.880947   5.653042   6.801561
    20  O    7.424374   8.838394   5.012520   6.673576   8.047416
    21  H    7.683883   9.067387   5.617113   6.710846   8.116960
                   16         17         18         19         20
    16  X    0.000000
    17  X    1.000000   0.000000
    18  H    2.539020   3.480549   0.000000
    19  X    2.333800   3.333800   1.000000   0.000000
    20  O    3.439576   4.405982   0.957200   1.384280   0.000000
    21  H    3.785037   4.731647   1.513901   1.814358   0.957200
                   21
    21  H    0.000000
 Symmetry turned off by external request.
 Stoichiometry    C6H5F4NOS
 Framework group  C1[X(C6H5F4NOS)]
 Deg. of freedom    48
 Full point group                 C1      NOp   1
 Rotational constants (GHZ):      0.9995700      0.3170785      0.2792928
 Standard basis: 6-31G(d) (6D, 7F)
 Integral buffers will be    131072 words long.
 Raffenetti 1 integral format.
 Two-electron integral symmetry is turned off.
   209 basis functions,   408 primitive gaussians,   209 cartesian basis functions
    54 alpha electrons       54 beta electrons
       nuclear repulsion energy       903.7335534139 Hartrees.
 NAtoms=   18 NActive=   18 NUniq=   18 SFac= 7.50D-01 NAtFMM=   80 NAOKFM=F Big=F
 One-electron integrals computed using PRISM.
 NBasis=   209 RedAO= T  NBF=   209
 NBsUse=   209 1.00D-06 NBFU=   209
 Harris functional with IExCor=  205 diagonalized for initial guess.
 ExpMin= 1.17D-01 ExpMax= 2.19D+04 ExpMxC= 3.30D+03 IAcc=1 IRadAn=         1 AccDes= 0.00D+00
 HarFok:  IExCor=  205 AccDes= 0.00D+00 IRadAn=         1 IDoV= 1
 ScaDFX=  1.000000  1.000000  1.000000  1.000000
 FoFCou: FMM=F IPFlag=           0 FMFlag=      100000 FMFlg1=           0
         NFxFlg=           0 DoJE=T BraDBF=F KetDBF=T FulRan=T
         Omega=  0.000000  0.000000  1.000000  0.000000  0.000000 ICntrl=     500 IOpCl=  0
         NMat0=    1 NMatS0=    1 NMatT0=    0 NMatD0=    1 NMtDS0=    0 NMtDT0=    0
         I1Cent=           4 NGrid=           0.
 Symmetry not used in FoFCou.
 Requested convergence on RMS density matrix=1.00D-08 within 128 cycles.
 Requested convergence on MAX density matrix=1.00D-06.
 Requested convergence on             energy=1.00D-06.
 No special actions if energy rises.
 Integral accuracy reduced to 1.0D-05 until final iterations.
 Initial convergence to 1.0D-05 achieved.  Increase integral accuracy.
 SCF Done:  E(RHF) =  -1154.67432904     A.U. after   15 cycles
             Convg  =    0.5470D-08             -V/T =  2.0019

 **********************************************************************

            Population analysis using the SCF density.

 **********************************************************************

 Alpha  occ. eigenvalues --  -91.90713 -26.37558 -26.37372 -26.36507 -26.33614
 Alpha  occ. eigenvalues --  -20.55688 -15.69000 -11.55019 -11.38075 -11.37433
 Alpha  occ. eigenvalues --  -11.36519 -11.31474 -11.30722  -8.91800  -6.60127
 Alpha  occ. eigenvalues --   -6.59852  -6.59725  -1.74998  -1.66034  -1.65306
 Alpha  occ. eigenvalues --   -1.64860  -1.35836  -1.33886  -1.17511  -1.12341
 Alpha  occ. eigenvalues --   -1.03503  -0.97667  -0.93039  -0.88585  -0.85385
 Alpha  occ. eigenvalues --   -0.84585  -0.84264  -0.77395  -0.76247  -0.74180
 Alpha  occ. eigenvalues --   -0.73210  -0.72377  -0.71489  -0.70551  -0.70413
 Alpha  occ. eigenvalues --   -0.68515  -0.68250  -0.67026  -0.64371  -0.62812
 Alpha  occ. eigenvalues --   -0.61139  -0.59787  -0.56805  -0.52813  -0.49499
 Alpha  occ. eigenvalues --   -0.46912  -0.43519  -0.34333  -0.31236
 Alpha virt. eigenvalues --    0.04223   0.08366   0.17392   0.21587   0.24331
 Alpha virt. eigenvalues --    0.24903   0.26178   0.26235   0.29213   0.31399
 Alpha virt. eigenvalues --    0.33665   0.35103   0.38982   0.40876   0.42219
 Alpha virt. eigenvalues --    0.43786   0.46398   0.49220   0.53863   0.55229
 Alpha virt. eigenvalues --    0.56485   0.59485   0.60950   0.64090   0.66293
 Alpha virt. eigenvalues --    0.67369   0.71595   0.72740   0.73195   0.75095
 Alpha virt. eigenvalues --    0.76877   0.77621   0.82652   0.84192   0.87231
 Alpha virt. eigenvalues --    0.88765   0.89572   0.91861   0.95411   0.99503
 Alpha virt. eigenvalues --    1.01875   1.02392   1.02623   1.04411   1.07267
 Alpha virt. eigenvalues --    1.08976   1.09508   1.12545   1.13292   1.14971
 Alpha virt. eigenvalues --    1.15826   1.17017   1.17334   1.18177   1.24141
 Alpha virt. eigenvalues --    1.28051   1.29239   1.31011   1.32623   1.33883
 Alpha virt. eigenvalues --    1.34499   1.36886   1.40927   1.41763   1.42087
 Alpha virt. eigenvalues --    1.44432   1.47132   1.51810   1.59553   1.60068
 Alpha virt. eigenvalues --    1.60803   1.62835   1.63248   1.63909   1.64653
 Alpha virt. eigenvalues --    1.65721   1.67101   1.69405   1.69740   1.71699
 Alpha virt. eigenvalues --    1.73848   1.75949   1.76902   1.80993   1.86205
 Alpha virt. eigenvalues --    1.91344   1.91893   1.93295   1.99439   2.02342
 Alpha virt. eigenvalues --    2.03643   2.04075   2.05498   2.07043   2.08572
 Alpha virt. eigenvalues --    2.09832   2.11412   2.12150   2.17755   2.19976
 Alpha virt. eigenvalues --    2.22014   2.22114   2.24194   2.27923   2.29306
 Alpha virt. eigenvalues --    2.29944   2.32318   2.33383   2.34149   2.35339
 Alpha virt. eigenvalues --    2.37548   2.38799   2.42963   2.44591   2.45297
 Alpha virt. eigenvalues --    2.46613   2.51882   2.60335   2.61646   2.63690
 Alpha virt. eigenvalues --    2.65077   2.67778   2.74724   2.82501   2.84250
 Alpha virt. eigenvalues --    2.84284   2.90868   2.92527   2.92964   2.95015
 Alpha virt. eigenvalues --    2.99847   3.06634   3.09183   3.16822   3.21676
 Alpha virt. eigenvalues --    3.29120   3.37218   3.38386   3.42658   3.44857
 Alpha virt. eigenvalues --    3.49188   3.70875   4.02471   4.36087   4.39814
 Alpha virt. eigenvalues --    4.44747   4.47947   4.59787   4.63813   4.72861
 Alpha virt. eigenvalues --    4.81748   5.02672   5.16489   5.57557   6.02668
          Condensed to atoms (all electrons):
              1          2          3          4          5          6
     1  F    9.158179   0.268169  -0.033647   0.002211  -0.000015   0.000000
     2  C    0.268169   4.573673   0.570507  -0.026353   0.000780  -0.000019
     3  C   -0.033647   0.570507   5.069065   0.352910  -0.012594   0.002164
     4  C    0.002211  -0.026353   0.352910   5.206923   0.419660  -0.045319
     5  C   -0.000015   0.000780  -0.012594   0.419660   3.551759   0.289985
     6  F    0.000000  -0.000019   0.002164  -0.045319   0.289985   9.185492
     7  F    0.000000   0.000290   0.005084  -0.054157   0.273223  -0.030189
     8  F    0.000000   0.000292   0.005056  -0.055489   0.286640  -0.030743
     9  C    0.000133  -0.023040  -0.054351   0.591896  -0.021111   0.005400
    10  N    0.001382  -0.053306  -0.021148  -0.035830   0.001222   0.000237
    11  C   -0.040757   0.377655  -0.079403  -0.001164   0.000082   0.000002
    12  S    0.003529  -0.083378   0.001584  -0.000051   0.000006   0.000000
    13  H   -0.000283  -0.016593   0.368320  -0.030514  -0.000249   0.000034
    14  H    0.000000  -0.000114   0.001800  -0.022898  -0.000134   0.004961
    15  H   -0.000018   0.003858  -0.000574   0.002350  -0.000016   0.000001
    16  H    0.000000   0.000000   0.000009   0.000073   0.000083   0.000012
    17  O    0.000000   0.000000   0.000000  -0.000003   0.000011   0.000000
    18  H    0.000000   0.000000   0.000000   0.000000   0.000000   0.000000
              7          8          9         10         11         12
     1  F    0.000000   0.000000   0.000133   0.001382  -0.040757   0.003529
     2  C    0.000290   0.000292  -0.023040  -0.053306   0.377655  -0.083378
     3  C    0.005084   0.005056  -0.054351  -0.021148  -0.079403   0.001584
     4  C   -0.054157  -0.055489   0.591896  -0.035830  -0.001164  -0.000051
     5  C    0.273223   0.286640  -0.021111   0.001222   0.000082   0.000006
     6  F   -0.030189  -0.030743   0.005400   0.000237   0.000002   0.000000
     7  F    9.210375  -0.033440   0.000462  -0.000005  -0.000002   0.000000
     8  F   -0.033440   9.196001   0.000499  -0.000006  -0.000002   0.000000
     9  C    0.000462   0.000499   4.733387   0.266936  -0.038436   0.003324
    10  N   -0.000005  -0.000006   0.266936   7.235765   0.211246  -0.104557
    11  C   -0.000002  -0.000002  -0.038436   0.211246   4.957156   0.447216
    12  S    0.000000   0.000000   0.003324  -0.104557   0.447216  15.944835
    13  H    0.000881   0.000887   0.002396  -0.000260   0.002614  -0.000055
    14  H    0.000081   0.000083   0.380140  -0.031937   0.000956  -0.000133
    15  H    0.000000   0.000000  -0.021514   0.309789  -0.017805   0.013791
    16  H    0.008921   0.000013   0.000000   0.000000   0.000000   0.000000
    17  O   -0.000800   0.000000   0.000000   0.000000   0.000000   0.000000
    18  H   -0.000023   0.000000   0.000000   0.000000   0.000000   0.000000
             13         14         15         16         17         18
     1  F   -0.000283   0.000000  -0.000018   0.000000   0.000000   0.000000
     2  C   -0.016593  -0.000114   0.003858   0.000000   0.000000   0.000000
     3  C    0.368320   0.001800  -0.000574   0.000009   0.000000   0.000000
     4  C   -0.030514  -0.022898   0.002350   0.000073  -0.000003   0.000000
     5  C   -0.000249  -0.000134  -0.000016   0.000083   0.000011   0.000000
     6  F    0.000034   0.004961   0.000001   0.000012   0.000000   0.000000
     7  F    0.000881   0.000081   0.000000   0.008921  -0.000800  -0.000023
     8  F    0.000887   0.000083   0.000000   0.000013   0.000000   0.000000
     9  C    0.002396   0.380140  -0.021514   0.000000   0.000000   0.000000
    10  N   -0.000260  -0.031937   0.309789   0.000000   0.000000   0.000000
    11  C    0.002614   0.000956  -0.017805   0.000000   0.000000   0.000000
    12  S   -0.000055  -0.000133   0.013791   0.000000   0.000000   0.000000
    13  H    0.390188  -0.000062   0.000008   0.000002   0.000000   0.000000
    14  H   -0.000062   0.381443  -0.002128   0.000000   0.000000   0.000000
    15  H    0.000008  -0.002128   0.270146   0.000000   0.000000   0.000000
    16  H    0.000002   0.000000   0.000000   0.308967   0.262015  -0.018512
    17  O    0.000000   0.000000   0.000000   0.262015   8.351848   0.265537
    18  H    0.000000   0.000000   0.000000  -0.018512   0.265537   0.322253
 Mulliken atomic charges:
              1
     1  F   -0.358885
     2  C    0.407579
     3  C   -0.174779
     4  C   -0.304244
     5  C    1.210666
     6  F   -0.382018
     7  F   -0.380702
     8  F   -0.369793
     9  C    0.173880
    10  N   -0.779529
    11  C    0.180642
    12  S   -0.226111
    13  H    0.282687
    14  H    0.287940
    15  H    0.442111
    16  H    0.438418
    17  O   -0.878607
    18  H    0.430744
 Sum of Mulliken atomic charges =   0.00000
 Mulliken charges with hydrogens summed into heavy atoms:
              1
     1  F   -0.358885
     2  C    0.407579
     3  C    0.107908
     4  C   -0.304244
     5  C    1.210666
     6  F   -0.382018
     7  F   -0.380702
     8  F   -0.369793
     9  C    0.461820
    10  N   -0.337418
    11  C    0.180642
    12  S   -0.226111
    17  O   -0.009445
 Sum of Mulliken charges with hydrogens summed into heavy atoms =   0.00000
 Electronic spatial extent (au):  <R**2>=           3872.6805
 Charge=              0.0000 electrons
 Dipole moment (field-independent basis, Debye):
    X=              2.9394    Y=             -4.9067    Z=              0.4216  Tot=              5.7352
 Quadrupole moment (field-independent basis, Debye-Ang):
   XX=           -108.6476   YY=            -80.2380   ZZ=            -81.7542
   XY=             -7.6216   XZ=              1.8934   YZ=              9.1693
 Traceless Quadrupole moment (field-independent basis, Debye-Ang):
   XX=            -18.4343   YY=              9.9753   ZZ=              8.4590
   XY=             -7.6216   XZ=              1.8934   YZ=              9.1693
 Octapole moment (field-independent basis, Debye-Ang**2):
  XXX=              2.0859  YYY=            -80.3647  ZZZ=             60.5907  XYY=            -40.4129
  XXY=            -51.9310  XXZ=             34.5935  XZZ=             -7.0771  YZZ=            -43.1998
  YYZ=             60.3452  XYZ=             36.7566
 Hexadecapole moment (field-independent basis, Debye-Ang**3):
 XXXX=          -3405.3326 YYYY=           -726.0496 ZZZZ=           -568.2027 XXXY=           -391.1545
 XXXZ=            344.9335 YYYX=           -287.9941 YYYZ=            272.7556 ZZZX=            220.6984
 ZZZY=            269.4585 XXYY=           -799.7899 XXZZ=           -628.0124 YYZZ=           -370.6102
 XXYZ=            205.2918 YYXZ=            238.3192 ZZXY=           -200.5087
 N-N= 9.037335534139D+02 E-N=-4.544917464832D+03  KE= 1.152539256535D+03
 Calling FoFJK, ICntrl=      2127 FMM=F ISym2X=0 I1Cent= 0 IOpClX= 0 NMat=1 NMatS=1 NMatT=0.
 -------------------------------------------------------------------
 Center     Atomic                   Forces (Hartrees/Bohr)
 Number     Number              X              Y              Z
 -------------------------------------------------------------------
      1        9           0.000000000    0.000000000    0.000000000
      2        6           0.000000000    0.000000000    0.000000000
      3        6           0.000000000    0.000000000    0.000000000
      4        6           0.000000000    0.000000000    0.000000000
      5        6           0.000000000    0.000000000    0.000000000
      6        9           0.000000000    0.000000000    0.000000000
      7        9           0.000000000    0.000000000    0.000000000
      8        9           0.000000000    0.000000000    0.000000000
      9        6           0.000000000    0.000000000    0.000000000
     10        7           0.000000000    0.000000000    0.000000000
     11        6           0.000000000    0.000000000    0.000000000
     12       16           0.000000000    0.000000000    0.000000000
     13        1           0.000000000    0.000000000    0.000000000
     14        1           0.000000000    0.000000000    0.000000000
     15        1           0.000000000    0.000000000    0.000000000
     16        1           0.003900960    0.006395636   -0.007838564
     17        8          -0.002706194   -0.014760761    0.001293274
     18        1          -0.001003099    0.008433112    0.006569928
 -------------------------------------------------------------------
 Cartesian Forces:  Max     0.014760761 RMS     0.002917788
 -----------------------------------------------------------------------------------------------
                       Internal Coordinate Forces (Hartree/Bohr or radian)
  Cent   Atom   N1       Length/X         N2         Alpha/Y        N3         Beta/Z          J
 -----------------------------------------------------------------------------------------------
      1  F 
      2  C 
      3  C 
      4  C 
      5  C 
      6  F 
      7  F 
      8  F 
      9  C 
     10  N 
     11  C 
     12  S 
     13  H 
     14  H 
     15  H 
         X        7   0.000000(     1)      5   0.000308(     7)      4  -0.000194(    13)     0
         X       16   0.000000(     2)      7   0.000000(     8)      5  -0.000419(    14)     0
     16  H        7   0.000077(     3)     16   0.000308(     9)     17   0.000419(    15)     0
         X       18   0.000000(     4)      7  -0.000488(    10)     16   0.000000(    16)     0
     17  O       18  -0.010680(     5)     19  -0.000488(    11)      7  -0.000296(    17)     0
     18  H       20  -0.010657(     6)     18   0.002363(    12)     16  -0.000194(    18)     0
 -----------------------------------------------------------------------------------------------
 Internal  Forces:  Max     0.010679566 RMS     0.003608560

 GradGradGradGradGradGradGradGradGradGradGradGradGradGradGradGradGradGrad
 Berny optimization.
 Search for a local minimum.
 Step number   1 out of a maximum of   20
 All quantities printed in internal units (Hartrees-Bohrs-Radians)
 Second derivative matrix not updated -- first step.
 The second derivative matrix:
                          RX       RDUM       ROH      ADUM      AHOH
           RX           0.02594
           RDUM         0.00000   0.00000
           ROH          0.00000   0.00000   1.12160
           ADUM         0.00000   0.00000   0.00000   2.14731
           AHOH         0.00000   0.00000   0.00000   0.00000   0.16000
           DDUM         0.00000   0.00000   0.00000  -0.08024   0.00000
           DH1          0.00000   0.00000   0.00000   0.08024   0.00000
           DOH2         0.00000   0.00000   0.00000   0.12538   0.00000
           DH2          0.00000   0.00000   0.00000   0.00000   0.00000
                         DDUM       DH1      DOH2       DH2
           DDUM         0.18247
           DH1         -0.18247   0.18247
           DOH2         0.00000   0.00000   0.28511
           DH2          0.00000   0.00000   0.00000   0.00000
     Eigenvalues ---    0.025941000.000001000.000001000.000001000.00000
     Eigenvalues --- 1000.000001000.000001000.000001000.00000
 RFO step:  Lambda=-2.28052576D-07 EMin= 2.59438842D-02
 Linear search not attempted -- first point.
 Variable       Old X    -DE/DX   Delta X   Delta X   Delta X     New X
                                 (Linear)    (Quad)   (Total)
    RX        4.41024   0.00008   0.00000   0.00296   0.00296   4.41321
   RDUM       1.88973   0.00000   0.00000   0.00000   0.00000   1.88973
   ROH        1.80885  -0.02134   0.00000   0.00000   0.00000   1.80885
   ADUM       1.57080  -0.00036   0.00000   0.00000   0.00000   1.57080
   AHOH       1.82422   0.00236   0.00000   0.00000   0.00000   1.82422
   DDUM       0.00000  -0.00061   0.00000   0.00000   0.00000   0.00000
   DH1        3.14159   0.00042   0.00000   0.00000   0.00000   3.14159
   DOH2       3.14159  -0.00030   0.00000   0.00000   0.00000   3.14159
   DH2        4.71239  -0.00019   0.00000   0.00000   0.00000   4.71239
         Item               Value     Threshold  Converged?
 Maximum Force            0.000077     0.000450     YES
 RMS     Force            0.000077     0.000300     YES
 Maximum Displacement     0.002965     0.001800     NO 
 RMS     Displacement     0.000988     0.001200     YES
 Predicted change in Energy=-1.140263D-07
 GradGradGradGradGradGradGradGradGradGradGradGradGradGradGradGradGradGrad

 ---------------------------------------------------------------------------------------------------
                            Z-MATRIX (ANGSTROMS AND DEGREES)
   CD    Cent   Atom    N1       Length/X        N2       Alpha/Y        N3        Beta/Z          J
 ---------------------------------------------------------------------------------------------------
      1      1  F       -1  -1.969300          2.053680          0.000070
      2      2  C       -1  -1.222250          0.944230          0.000030
      3      3  C       -1   0.140030          1.057400         -0.000020
      4      4  C       -1   0.927950         -0.123640         -0.000080
      5      5  C       -1   2.414660         -0.018650         -0.000010
      6      6  F       -1   3.007080         -1.234610         -0.000560
      7      7  F       -1   2.858290          0.654480         -1.086020
      8      8  F       -1   2.858270          0.653500          1.086650
      9      9  C       -1   0.306540         -1.341490         -0.000090
     10     10  N       -1  -1.054170         -1.389970         -0.000060
     11     11  C       -1  -1.930500         -0.312100          0.000000
     12     12  S       -1  -3.570980         -0.506610          0.000030
     13     13  H       -1   0.596860          2.043100         -0.000020
     14     14  H       -1   0.831760         -2.288990         -0.000150
     15     15  H       -1  -1.521480         -2.296390         -0.000090
     16         X        7   1.000000(    15)      5   90.000(    34)      4    0.000(    52)      0
     17         X       16   1.000000(    16)      7   90.000(    35)      5    0.000(    53)      0
     18     16  H        7   2.335369(    17)     16   90.000(    36)     17  180.000(    54)      0
     19         X       18   1.000000(    18)      7   90.000(    37)     16    0.000(    55)      0
     20     17  O       18   0.957200(    19)     19   90.000(    38)      7  180.000(    56)      0
     21     18  H       20   0.957200(    20)     18  104.520(    39)     16  270.000(    57)      0
 ---------------------------------------------------------------------------------------------------
                         Z-Matrix orientation:                         
 ---------------------------------------------------------------------
 Center     Atomic      Atomic             Coordinates (Angstroms)
 Number     Number       Type             X           Y           Z
 ---------------------------------------------------------------------
      1          9           0       -1.969300    2.053680    0.000070
      2          6           0       -1.222250    0.944230    0.000030
      3          6           0        0.140030    1.057400   -0.000020
      4          6           0        0.927950   -0.123640   -0.000080
      5          6           0        2.414660   -0.018650   -0.000010
      6          9           0        3.007080   -1.234610   -0.000560
      7          9           0        2.858290    0.654480   -1.086020
      8          9           0        2.858270    0.653500    1.086650
      9          6           0        0.306540   -1.341490   -0.000090
     10          7           0       -1.054170   -1.389970   -0.000060
     11          6           0       -1.930500   -0.312100    0.000000
     12         16           0       -3.570980   -0.506610    0.000030
     13          1           0        0.596860    2.043100   -0.000020
     14          1           0        0.831760   -2.288990   -0.000150
     15          1           0       -1.521480   -2.296390   -0.000090
     16         -1           0        1.915565    0.772301   -1.398091
     17         -1           0        1.587564    0.274618   -0.595142
     18          1           0        3.624293    1.816754   -2.961202
     19         -1           0        2.681568    1.934575   -3.273273
     20          8           0        3.938255    2.293136   -3.729784
     21          1           0        4.073225    1.616305   -4.393045
 ---------------------------------------------------------------------
                    Distance matrix (angstroms):
                    1          2          3          4          5
     1  F    0.000000
     2  C    1.337521   0.000000
     3  C    2.332777   1.366973   0.000000
     4  C    3.624194   2.400772   1.419744   0.000000
     5  C    4.849088   3.762214   2.516312   1.490413   0.000000
     6  F    5.964663   4.757581   3.670597   2.357337   1.352598
     7  F    5.142274   4.232525   2.954772   2.347541   1.352527
     8  F    5.142625   4.232719   2.955134   2.347566   1.352555
     9  C    4.087374   2.749857   2.404662   1.367227   2.488790
    10  N    3.563171   2.340244   2.723184   2.352104   3.730054
    11  C    2.366098   1.442215   2.482463   2.864656   4.355058
    12  S    3.020011   2.760701   4.027123   4.515201   6.005497
    13  H    2.566182   2.125247   1.086415   2.191890   2.748674
    14  H    5.167661   3.830492   3.417136   2.167485   2.767673
    15  H    4.373060   3.254406   3.742796   3.274225   4.547669
    16  X    4.323073   3.439504   2.277808   1.931975   1.682061
    17  X    4.021271   2.949181   1.749935   0.973550   1.060318
    18  H    6.333526   5.746231   4.635224   4.450128   3.687896
    19  X    5.688544   5.189903   4.235922   4.245611   3.821070
    20  O    6.990591   6.508600   5.464861   5.367815   4.645096
    21  H    7.483506   6.913237   5.922927   5.676117   4.972190
                    6          7          8          9         10
     6  F    0.000000
     7  F    2.183809   0.000000
     8  F    2.183834   2.172670   0.000000
     9  C    2.702654   3.416807   3.416477   0.000000
    10  N    4.064221   4.546034   4.545756   1.361573   0.000000
    11  C    5.023019   5.004620   5.004549   2.462517   1.389157
    12  S    6.618222   6.622926   6.622828   3.966382   2.667332
    13  H    4.068482   2.867355   2.868068   3.397019   3.809445
    14  H    2.417382   3.734964   3.734451   1.083334   2.089251
    15  H    4.651369   5.391592   5.391203   2.062399   1.019792
    16  X    2.678094   1.000000   2.660215   3.001913   3.930551
    17  X    2.155533   1.414214   2.141651   2.146372   3.178637
    18  H    4.296181   2.335369   4.280777   5.454372   6.398395
    19  X    4.567312   2.540462   4.547670   5.204525   5.976810
    20  O    5.217202   3.292569   5.201232   6.349054   7.238814
    21  H    5.343997   3.652067   5.694749   6.498810   7.390953
                   11         12         13         14         15
    11  C    0.000000
    12  S    1.651971   0.000000
    13  H    3.454637   4.885889   0.000000
    14  H    3.396789   4.749842   4.338454   0.000000
    15  H    2.026007   2.720986   4.828927   2.353252   0.000000
    16  X    4.233533   5.804527   2.304022   3.535587   4.815034
    17  X    3.615966   5.251202   2.112627   2.738127   4.078030
    18  H    6.645033   8.120275   4.240894   5.781280   7.222542
    19  X    6.085477   7.467815   3.882263   5.654522   6.802970
    20  O    7.425688   8.839610   5.013839   6.675056   8.048794
    21  H    7.685201   9.068614   5.618357   6.712373   8.118372
                   16         17         18         19         20
    16  X    0.000000
    17  X    1.000000   0.000000
    18  H    2.540462   3.482052   0.000000
    19  X    2.335369   3.335369   1.000000   0.000000
    20  O    3.441077   4.407510   0.957200   1.384280   0.000000
    21  H    3.786501   4.733149   1.513901   1.814358   0.957200
                   21
    21  H    0.000000
 Symmetry turned off by external request.
 Stoichiometry    C6H5F4NOS
 Framework group  C1[X(C6H5F4NOS)]
 Deg. of freedom    48
 Full point group                 C1      NOp   1
 Rotational constants (GHZ):      0.9992987      0.3170465      0.2792530
 Standard basis: 6-31G(d) (6D, 7F)
 Integral buffers will be    131072 words long.
 Raffenetti 1 integral format.
 Two-electron integral symmetry is turned off.
   209 basis functions,   408 primitive gaussians,   209 cartesian basis functions
    54 alpha electrons       54 beta electrons
       nuclear repulsion energy       903.7080149228 Hartrees.
 NAtoms=   18 NActive=   18 NUniq=   18 SFac= 7.50D-01 NAtFMM=   80 NAOKFM=F Big=F
 One-electron integrals computed using PRISM.
 NBasis=   209 RedAO= T  NBF=   209
 NBsUse=   209 1.00D-06 NBFU=   209
 Initial guess read from the read-write file.
 B after Tr=     0.000000    0.000000    0.000000
         Rot=    1.000000    0.000000    0.000000    0.000000 Ang=   0.00 deg.
 Requested convergence on RMS density matrix=1.00D-08 within 128 cycles.
 Requested convergence on MAX density matrix=1.00D-06.
 Requested convergence on             energy=1.00D-06.
 No special actions if energy rises.
 SCF Done:  E(RHF) =  -1154.67432925     A.U. after    5 cycles
             Convg  =    0.3656D-08             -V/T =  2.0019
 Calling FoFJK, ICntrl=      2127 FMM=F ISym2X=0 I1Cent= 0 IOpClX= 0 NMat=1 NMatS=1 NMatT=0.
 -------------------------------------------------------------------
 Center     Atomic                   Forces (Hartrees/Bohr)
 Number     Number              X              Y              Z
 -------------------------------------------------------------------
      1        9           0.000000000    0.000000000    0.000000000
      2        6           0.000000000    0.000000000    0.000000000
      3        6           0.000000000    0.000000000    0.000000000
      4        6           0.000000000    0.000000000    0.000000000
      5        6           0.000000000    0.000000000    0.000000000
      6        9           0.000000000    0.000000000    0.000000000
      7        9           0.000000000    0.000000000    0.000000000
      8        9           0.000000000    0.000000000    0.000000000
      9        6           0.000000000    0.000000000    0.000000000
     10        7           0.000000000    0.000000000    0.000000000
     11        6           0.000000000    0.000000000    0.000000000
     12       16           0.000000000    0.000000000    0.000000000
     13        1           0.000000000    0.000000000    0.000000000
     14        1           0.000000000    0.000000000    0.000000000
     15        1           0.000000000    0.000000000    0.000000000
     16        1           0.003898047    0.006391554   -0.007833198
     17        8          -0.002705579   -0.014759568    0.001293467
     18        1          -0.001003341    0.008432371    0.006569992
 -------------------------------------------------------------------
 Cartesian Forces:  Max     0.014759568 RMS     0.002917127
 -----------------------------------------------------------------------------------------------
                       Internal Coordinate Forces (Hartree/Bohr or radian)
  Cent   Atom   N1       Length/X         N2         Alpha/Y        N3         Beta/Z          J
 -----------------------------------------------------------------------------------------------
      1  F 
      2  C 
      3  C 
      4  C 
      5  C 
      6  F 
      7  F 
      8  F 
      9  C 
     10  N 
     11  C 
     12  S 
     13  H 
     14  H 
     15  H 
         X        7   0.000000(     1)      5   0.000308(     7)      4  -0.000194(    13)     0
         X       16   0.000000(     2)      7   0.000000(     8)      5  -0.000419(    14)     0
     16  H        7   0.000070(     3)     16   0.000308(     9)     17   0.000419(    15)     0
         X       18   0.000000(     4)      7  -0.000487(    10)     16   0.000000(    16)     0
     17  O       18  -0.010679(     5)     19  -0.000487(    11)      7  -0.000296(    17)     0
     18  H       20  -0.010656(     6)     18   0.002362(    12)     16  -0.000194(    18)     0
 -----------------------------------------------------------------------------------------------
 Internal  Forces:  Max     0.010679424 RMS     0.003608399

 GradGradGradGradGradGradGradGradGradGradGradGradGradGradGradGradGradGrad
 Berny optimization.
 Search for a local minimum.
 Step number   2 out of a maximum of   20
 All quantities printed in internal units (Hartrees-Bohrs-Radians)
 Update second derivatives using D2CorN and points    2
 DE= -2.17D-07 DEPred=-1.14D-07 R= 1.91D+00
 Trust test= 1.91D+00 RLast= 2.96D-03 DXMaxT set to 3.00D-01
 The second derivative matrix:
                          RX       RDUM       ROH      ADUM      AHOH
           RX           0.02594
           RDUM         0.00000   0.00000
           ROH          0.00000   0.00000   1.12160
           ADUM         0.00000   0.00000   0.00000   2.14731
           AHOH         0.00000   0.00000   0.00000   0.00000   0.16000
           DDUM         0.00000   0.00000   0.00000  -0.08024   0.00000
           DH1          0.00000   0.00000   0.00000   0.08024   0.00000
           DOH2         0.00000   0.00000   0.00000   0.12538   0.00000
           DH2          0.00000   0.00000   0.00000   0.00000   0.00000
                         DDUM       DH1      DOH2       DH2
           DDUM         0.18247
           DH1         -0.18247   0.18247
           DOH2         0.00000   0.00000   0.28511
           DH2          0.00000   0.00000   0.00000   0.00000
     Eigenvalues ---    0.025941000.000001000.000001000.000001000.00000
     Eigenvalues --- 1000.000001000.000001000.000001000.00000
 RFO step:  Lambda= 0.00000000D+00 EMin= 2.59438842D-02
 Quartic linear search produced a step of  2.00000.
 Variable       Old X    -DE/DX   Delta X   Delta X   Delta X     New X
                                 (Linear)    (Quad)   (Total)
    RX        4.41321   0.00007   0.00593   0.00000   0.00593   4.41914
   RDUM       1.88973   0.00000   0.00000   0.00000   0.00000   1.88973
   ROH        1.80885  -0.02134   0.00000   0.00000   0.00000   1.80885
   ADUM       1.57080  -0.00036   0.00000   0.00000   0.00000   1.57080
   AHOH       1.82422   0.00236   0.00000   0.00000   0.00000   1.82422
   DDUM       0.00000  -0.00061   0.00000   0.00000   0.00000   0.00000
   DH1        3.14159   0.00042   0.00000   0.00000   0.00000   3.14159
   DOH2       3.14159  -0.00030   0.00000   0.00000   0.00000   3.14159
   DH2        4.71239  -0.00019   0.00000   0.00000   0.00000   4.71239
         Item               Value     Threshold  Converged?
 Maximum Force            0.000070     0.000450     YES
 RMS     Force            0.000070     0.000300     YES
 Maximum Displacement     0.005930     0.001800     NO 
 RMS     Displacement     0.001977     0.001200     NO 
 Predicted change in Energy=-4.241552D-08
 GradGradGradGradGradGradGradGradGradGradGradGradGradGradGradGradGradGrad

 ---------------------------------------------------------------------------------------------------
                            Z-MATRIX (ANGSTROMS AND DEGREES)
   CD    Cent   Atom    N1       Length/X        N2       Alpha/Y        N3        Beta/Z          J
 ---------------------------------------------------------------------------------------------------
      1      1  F       -1  -1.969300          2.053680          0.000070
      2      2  C       -1  -1.222250          0.944230          0.000030
      3      3  C       -1   0.140030          1.057400         -0.000020
      4      4  C       -1   0.927950         -0.123640         -0.000080
      5      5  C       -1   2.414660         -0.018650         -0.000010
      6      6  F       -1   3.007080         -1.234610         -0.000560
      7      7  F       -1   2.858290          0.654480         -1.086020
      8      8  F       -1   2.858270          0.653500          1.086650
      9      9  C       -1   0.306540         -1.341490         -0.000090
     10     10  N       -1  -1.054170         -1.389970         -0.000060
     11     11  C       -1  -1.930500         -0.312100          0.000000
     12     12  S       -1  -3.570980         -0.506610          0.000030
     13     13  H       -1   0.596860          2.043100         -0.000020
     14     14  H       -1   0.831760         -2.288990         -0.000150
     15     15  H       -1  -1.521480         -2.296390         -0.000090
     16         X        7   1.000000(    15)      5   90.000(    34)      4    0.000(    52)      0
     17         X       16   1.000000(    16)      7   90.000(    35)      5    0.000(    53)      0
     18     16  H        7   2.338507(    17)     16   90.000(    36)     17  180.000(    54)      0
     19         X       18   1.000000(    18)      7   90.000(    37)     16    0.000(    55)      0
     20     17  O       18   0.957200(    19)     19   90.000(    38)      7  180.000(    56)      0
     21     18  H       20   0.957200(    20)     18  104.520(    39)     16  270.000(    57)      0
 ---------------------------------------------------------------------------------------------------
                         Z-Matrix orientation:                         
 ---------------------------------------------------------------------
 Center     Atomic      Atomic             Coordinates (Angstroms)
 Number     Number       Type             X           Y           Z
 ---------------------------------------------------------------------
      1          9           0       -1.969300    2.053680    0.000070
      2          6           0       -1.222250    0.944230    0.000030
      3          6           0        0.140030    1.057400   -0.000020
      4          6           0        0.927950   -0.123640   -0.000080
      5          6           0        2.414660   -0.018650   -0.000010
      6          9           0        3.007080   -1.234610   -0.000560
      7          9           0        2.858290    0.654480   -1.086020
      8          9           0        2.858270    0.653500    1.086650
      9          6           0        0.306540   -1.341490   -0.000090
     10          7           0       -1.054170   -1.389970   -0.000060
     11          6           0       -1.930500   -0.312100    0.000000
     12         16           0       -3.570980   -0.506610    0.000030
     13          1           0        0.596860    2.043100   -0.000020
     14          1           0        0.831760   -2.288990   -0.000150
     15          1           0       -1.521480   -2.296390   -0.000090
     16         -1           0        1.915565    0.772301   -1.398091
     17         -1           0        1.587564    0.274618   -0.595142
     18          1           0        3.625322    1.818316   -2.963721
     19         -1           0        2.682597    1.936137   -3.275792
     20          8           0        3.939285    2.294698   -3.732304
     21          1           0        4.074254    1.617867   -4.395565
 ---------------------------------------------------------------------
                    Distance matrix (angstroms):
                    1          2          3          4          5
     1  F    0.000000
     2  C    1.337521   0.000000
     3  C    2.332777   1.366973   0.000000
     4  C    3.624194   2.400772   1.419744   0.000000
     5  C    4.849088   3.762214   2.516312   1.490413   0.000000
     6  F    5.964663   4.757581   3.670597   2.357337   1.352598
     7  F    5.142274   4.232525   2.954772   2.347541   1.352527
     8  F    5.142625   4.232719   2.955134   2.347566   1.352555
     9  C    4.087374   2.749857   2.404662   1.367227   2.488790
    10  N    3.563171   2.340244   2.723184   2.352104   3.730054
    11  C    2.366098   1.442215   2.482463   2.864656   4.355058
    12  S    3.020011   2.760701   4.027123   4.515201   6.005497
    13  H    2.566182   2.125247   1.086415   2.191890   2.748674
    14  H    5.167661   3.830492   3.417136   2.167485   2.767673
    15  H    4.373060   3.254406   3.742796   3.274225   4.547669
    16  X    4.323073   3.439504   2.277808   1.931975   1.682061
    17  X    4.021271   2.949181   1.749935   0.973550   1.060318
    18  H    6.335555   5.748635   4.637864   4.453109   3.691034
    19  X    5.690803   5.192564   4.238810   4.248736   3.824099
    20  O    6.992859   6.511184   5.467649   5.370846   4.648234
    21  H    7.485726   6.915779   5.925627   5.679116   4.975273
                    6          7          8          9         10
     6  F    0.000000
     7  F    2.183809   0.000000
     8  F    2.183834   2.172670   0.000000
     9  C    2.702654   3.416807   3.416477   0.000000
    10  N    4.064221   4.546034   4.545756   1.361573   0.000000
    11  C    5.023019   5.004620   5.004549   2.462517   1.389157
    12  S    6.618222   6.622926   6.622828   3.966382   2.667332
    13  H    4.068482   2.867355   2.868068   3.397019   3.809445
    14  H    2.417382   3.734964   3.734451   1.083334   2.089251
    15  H    4.651369   5.391592   5.391203   2.062399   1.019792
    16  X    2.678094   1.000000   2.660215   3.001913   3.930551
    17  X    2.155533   1.414214   2.141651   2.146372   3.178637
    18  H    4.299175   2.338507   4.283768   5.457270   6.401096
    19  X    4.570128   2.543347   4.550486   5.207563   5.979702
    20  O    5.220243   3.295707   5.204271   6.352017   7.241617
    21  H    5.347107   3.655102   5.697657   6.501820   7.393800
                   11         12         13         14         15
    11  C    0.000000
    12  S    1.651971   0.000000
    13  H    3.454637   4.885889   0.000000
    14  H    3.396789   4.749842   4.338454   0.000000
    15  H    2.026007   2.720986   4.828927   2.353252   0.000000
    16  X    4.233533   5.804527   2.304022   3.535587   4.815034
    17  X    3.615966   5.251202   2.112627   2.738127   4.078030
    18  H    6.647516   8.122553   4.243305   5.784177   7.225198
    19  X    6.088189   7.470291   3.884897   5.657484   6.805790
    20  O    7.428315   8.842043   5.016478   6.678014   8.051550
    21  H    7.687837   9.071067   5.620846   6.715428   8.121197
                   16         17         18         19         20
    16  X    0.000000
    17  X    1.000000   0.000000
    18  H    2.543347   3.485058   0.000000
    19  X    2.338507   3.338507   1.000000   0.000000
    20  O    3.444079   4.410566   0.957200   1.384280   0.000000
    21  H    3.789429   4.736154   1.513901   1.814358   0.957200
                   21
    21  H    0.000000
 Symmetry turned off by external request.
 Stoichiometry    C6H5F4NOS
 Framework group  C1[X(C6H5F4NOS)]
 Deg. of freedom    48
 Full point group                 C1      NOp   1
 Rotational constants (GHZ):      0.9987564      0.3169825      0.2791736
 Standard basis: 6-31G(d) (6D, 7F)
 Integral buffers will be    131072 words long.
 Raffenetti 1 integral format.
 Two-electron integral symmetry is turned off.
   209 basis functions,   408 primitive gaussians,   209 cartesian basis functions
    54 alpha electrons       54 beta electrons
       nuclear repulsion energy       903.6569859678 Hartrees.
 NAtoms=   18 NActive=   18 NUniq=   18 SFac= 7.50D-01 NAtFMM=   80 NAOKFM=F Big=F
 One-electron integrals computed using PRISM.
 NBasis=   209 RedAO= T  NBF=   209
 NBsUse=   209 1.00D-06 NBFU=   209
 Initial guess read from the read-write file.
 B after Tr=     0.000000    0.000000    0.000000
         Rot=    1.000000    0.000000    0.000000    0.000000 Ang=   0.00 deg.
 Requested convergence on RMS density matrix=1.00D-08 within 128 cycles.
 Requested convergence on MAX density matrix=1.00D-06.
 Requested convergence on             energy=1.00D-06.
 No special actions if energy rises.
 SCF Done:  E(RHF) =  -1154.67432962     A.U. after    5 cycles
             Convg  =    0.7063D-08             -V/T =  2.0019
 Calling FoFJK, ICntrl=      2127 FMM=F ISym2X=0 I1Cent= 0 IOpClX= 0 NMat=1 NMatS=1 NMatT=0.
 -------------------------------------------------------------------
 Center     Atomic                   Forces (Hartrees/Bohr)
 Number     Number              X              Y              Z
 -------------------------------------------------------------------
      1        9           0.000000000    0.000000000    0.000000000
      2        6           0.000000000    0.000000000    0.000000000
      3        6           0.000000000    0.000000000    0.000000000
      4        6           0.000000000    0.000000000    0.000000000
      5        6           0.000000000    0.000000000    0.000000000
      6        9           0.000000000    0.000000000    0.000000000
      7        9           0.000000000    0.000000000    0.000000000
      8        9           0.000000000    0.000000000    0.000000000
      9        6           0.000000000    0.000000000    0.000000000
     10        7           0.000000000    0.000000000    0.000000000
     11        6           0.000000000    0.000000000    0.000000000
     12       16           0.000000000    0.000000000    0.000000000
     13        1           0.000000000    0.000000000    0.000000000
     14        1           0.000000000    0.000000000    0.000000000
     15        1           0.000000000    0.000000000    0.000000000
     16        1           0.003892272    0.006383462   -0.007822576
     17        8          -0.002704353   -0.014757196    0.001293847
     18        1          -0.001003818    0.008430907    0.006570111
 -------------------------------------------------------------------
 Cartesian Forces:  Max     0.014757196 RMS     0.002915818
 -----------------------------------------------------------------------------------------------
                       Internal Coordinate Forces (Hartree/Bohr or radian)
  Cent   Atom   N1       Length/X         N2         Alpha/Y        N3         Beta/Z          J
 -----------------------------------------------------------------------------------------------
      1  F 
      2  C 
      3  C 
      4  C 
      5  C 
      6  F 
      7  F 
      8  F 
      9  C 
     10  N 
     11  C 
     12  S 
     13  H 
     14  H 
     15  H 
         X        7   0.000000(     1)      5   0.000308(     7)      4  -0.000194(    13)     0
         X       16   0.000000(     2)      7   0.000000(     8)      5  -0.000417(    14)     0
     16  H        7   0.000056(     3)     16   0.000308(     9)     17   0.000417(    15)     0
         X       18   0.000000(     4)      7  -0.000486(    10)     16   0.000000(    16)     0
     17  O       18  -0.010679(     5)     19  -0.000486(    11)      7  -0.000296(    17)     0
     18  H       20  -0.010656(     6)     18   0.002359(    12)     16  -0.000194(    18)     0
 -----------------------------------------------------------------------------------------------
 Internal  Forces:  Max     0.010679127 RMS     0.003608079

 GradGradGradGradGradGradGradGradGradGradGradGradGradGradGradGradGradGrad
 Berny optimization.
 Search for a local minimum.
 Step number   3 out of a maximum of   20
 All quantities printed in internal units (Hartrees-Bohrs-Radians)
 Update second derivatives using D2CorN and points    2    3
 DE= -3.72D-07 DEPred=-4.24D-08 R= 8.76D+00
 Trust test= 8.76D+00 RLast= 5.93D-03 DXMaxT set to 3.00D-01
 The second derivative matrix:
                          RX       RDUM       ROH      ADUM      AHOH
           RX           0.00239
           RDUM         0.00000   0.00000
           ROH         -0.00010   0.00000   1.12160
           ADUM        -0.00029   0.00000   0.00000   2.14731
           AHOH         0.00019   0.00000   0.00000   0.00000   0.16000
           DDUM        -0.00013   0.00000   0.00000  -0.08024   0.00000
           DH1          0.00009   0.00000   0.00000   0.08024   0.00000
           DOH2         0.00001   0.00000   0.00000   0.12538   0.00000
           DH2         -0.00004   0.00000   0.00000   0.00000   0.00000
                         DDUM       DH1      DOH2       DH2
           DDUM         0.18247
           DH1         -0.18247   0.18247
           DOH2         0.00000   0.00000   0.28511
           DH2          0.00000   0.00000   0.00000   0.00000
     Eigenvalues ---    0.002391000.000001000.000001000.000001000.00000
     Eigenvalues --- 1000.000001000.000001000.000001000.00000
 RFO step:  Lambda= 0.00000000D+00 EMin= 2.38705285D-03
 Quartic linear search produced a step of  2.00000.
 Variable       Old X    -DE/DX   Delta X   Delta X   Delta X     New X
                                 (Linear)    (Quad)   (Total)
    RX        4.41914   0.00006   0.01186   0.00000   0.01186   4.43100
   RDUM       1.88973   0.00000   0.00000   0.00000   0.00000   1.88973
   ROH        1.80885  -0.02133   0.00000   0.00000   0.00000   1.80885
   ADUM       1.57080  -0.00035   0.00000   0.00000   0.00000   1.57080
   AHOH       1.82422   0.00236   0.00000   0.00000   0.00000   1.82422
   DDUM       0.00000  -0.00061   0.00000   0.00000   0.00000   0.00000
   DH1        3.14159   0.00042   0.00000   0.00000   0.00000   3.14159
   DOH2       3.14159  -0.00030   0.00000   0.00000   0.00000   3.14159
   DH2        4.71239  -0.00019   0.00000   0.00000   0.00000   4.71239
         Item               Value     Threshold  Converged?
 Maximum Force            0.000056     0.000450     YES
 RMS     Force            0.000056     0.000300     YES
 Maximum Displacement     0.011859     0.001800     NO 
 RMS     Displacement     0.003953     0.001200     NO 
 Predicted change in Energy=-4.916454D-07
 GradGradGradGradGradGradGradGradGradGradGradGradGradGradGradGradGradGrad

 ---------------------------------------------------------------------------------------------------
                            Z-MATRIX (ANGSTROMS AND DEGREES)
   CD    Cent   Atom    N1       Length/X        N2       Alpha/Y        N3        Beta/Z          J
 ---------------------------------------------------------------------------------------------------
      1      1  F       -1  -1.969300          2.053680          0.000070
      2      2  C       -1  -1.222250          0.944230          0.000030
      3      3  C       -1   0.140030          1.057400         -0.000020
      4      4  C       -1   0.927950         -0.123640         -0.000080
      5      5  C       -1   2.414660         -0.018650         -0.000010
      6      6  F       -1   3.007080         -1.234610         -0.000560
      7      7  F       -1   2.858290          0.654480         -1.086020
      8      8  F       -1   2.858270          0.653500          1.086650
      9      9  C       -1   0.306540         -1.341490         -0.000090
     10     10  N       -1  -1.054170         -1.389970         -0.000060
     11     11  C       -1  -1.930500         -0.312100          0.000000
     12     12  S       -1  -3.570980         -0.506610          0.000030
     13     13  H       -1   0.596860          2.043100         -0.000020
     14     14  H       -1   0.831760         -2.288990         -0.000150
     15     15  H       -1  -1.521480         -2.296390         -0.000090
     16         X        7   1.000000(    15)      5   90.000(    34)      4    0.000(    52)      0
     17         X       16   1.000000(    16)      7   90.000(    35)      5    0.000(    53)      0
     18     16  H        7   2.344782(    17)     16   90.000(    36)     17  180.000(    54)      0
     19         X       18   1.000000(    18)      7   90.000(    37)     16    0.000(    55)      0
     20     17  O       18   0.957200(    19)     19   90.000(    38)      7  180.000(    56)      0
     21     18  H       20   0.957200(    20)     18  104.520(    39)     16  270.000(    57)      0
 ---------------------------------------------------------------------------------------------------
                         Z-Matrix orientation:                         
 ---------------------------------------------------------------------
 Center     Atomic      Atomic             Coordinates (Angstroms)
 Number     Number       Type             X           Y           Z
 ---------------------------------------------------------------------
      1          9           0       -1.969300    2.053680    0.000070
      2          6           0       -1.222250    0.944230    0.000030
      3          6           0        0.140030    1.057400   -0.000020
      4          6           0        0.927950   -0.123640   -0.000080
      5          6           0        2.414660   -0.018650   -0.000010
      6          9           0        3.007080   -1.234610   -0.000560
      7          9           0        2.858290    0.654480   -1.086020
      8          9           0        2.858270    0.653500    1.086650
      9          6           0        0.306540   -1.341490   -0.000090
     10          7           0       -1.054170   -1.389970   -0.000060
     11          6           0       -1.930500   -0.312100    0.000000
     12         16           0       -3.570980   -0.506610    0.000030
     13          1           0        0.596860    2.043100   -0.000020
     14          1           0        0.831760   -2.288990   -0.000150
     15          1           0       -1.521480   -2.296390   -0.000090
     16         -1           0        1.915565    0.772301   -1.398091
     17         -1           0        1.587564    0.274618   -0.595142
     18          1           0        3.627381    1.821439   -2.968760
     19         -1           0        2.684656    1.939260   -3.280831
     20          8           0        3.941343    2.297821   -3.737343
     21          1           0        4.076313    1.620990   -4.400604
 ---------------------------------------------------------------------
                    Distance matrix (angstroms):
                    1          2          3          4          5
     1  F    0.000000
     2  C    1.337521   0.000000
     3  C    2.332777   1.366973   0.000000
     4  C    3.624194   2.400772   1.419744   0.000000
     5  C    4.849088   3.762214   2.516312   1.490413   0.000000
     6  F    5.964663   4.757581   3.670597   2.357337   1.352598
     7  F    5.142274   4.232525   2.954772   2.347541   1.352527
     8  F    5.142625   4.232719   2.955134   2.347566   1.352555
     9  C    4.087374   2.749857   2.404662   1.367227   2.488790
    10  N    3.563171   2.340244   2.723184   2.352104   3.730054
    11  C    2.366098   1.442215   2.482463   2.864656   4.355058
    12  S    3.020011   2.760701   4.027123   4.515201   6.005497
    13  H    2.566182   2.125247   1.086415   2.191890   2.748674
    14  H    5.167661   3.830492   3.417136   2.167485   2.767673
    15  H    4.373060   3.254406   3.742796   3.274225   4.547669
    16  X    4.323073   3.439504   2.277808   1.931975   1.682061
    17  X    4.021271   2.949181   1.749935   0.973550   1.060318
    18  H    6.339615   5.753445   4.643144   4.459072   3.697309
    19  X    5.695323   5.197889   4.244587   4.254985   3.830156
    20  O    6.997397   6.516353   5.473226   5.376909   4.654509
    21  H    7.490166   6.920863   5.931028   5.685115   4.981439
                    6          7          8          9         10
     6  F    0.000000
     7  F    2.183809   0.000000
     8  F    2.183834   2.172670   0.000000
     9  C    2.702654   3.416807   3.416477   0.000000
    10  N    4.064221   4.546034   4.545756   1.361573   0.000000
    11  C    5.023019   5.004620   5.004549   2.462517   1.389157
    12  S    6.618222   6.622926   6.622828   3.966382   2.667332
    13  H    4.068482   2.867355   2.868068   3.397019   3.809445
    14  H    2.417382   3.734964   3.734451   1.083334   2.089251
    15  H    4.651369   5.391592   5.391203   2.062399   1.019792
    16  X    2.678094   1.000000   2.660215   3.001913   3.930551
    17  X    2.155533   1.414214   2.141651   2.146372   3.178637
    18  H    4.305162   2.344782   4.289751   5.463067   6.406500
    19  X    4.575761   2.549118   4.556118   5.213638   5.985487
    20  O    5.226324   3.301982   5.210350   6.357943   7.247223
    21  H    5.353326   3.661173   5.703474   6.507841   7.399495
                   11         12         13         14         15
    11  C    0.000000
    12  S    1.651971   0.000000
    13  H    3.454637   4.885889   0.000000
    14  H    3.396789   4.749842   4.338454   0.000000
    15  H    2.026007   2.720986   4.828927   2.353252   0.000000
    16  X    4.233533   5.804527   2.304022   3.535587   4.815034
    17  X    3.615966   5.251202   2.112627   2.738127   4.078030
    18  H    6.652485   8.127110   4.248130   5.789971   7.230511
    19  X    6.093615   7.475246   3.890167   5.663408   6.811429
    20  O    7.433570   8.846908   5.021756   6.683933   8.057063
    21  H    7.693111   9.075976   5.625825   6.721537   8.126849
                   16         17         18         19         20
    16  X    0.000000
    17  X    1.000000   0.000000
    18  H    2.549118   3.491070   0.000000
    19  X    2.344782   3.344782   1.000000   0.000000
    20  O    3.450085   4.416679   0.957200   1.384280   0.000000
    21  H    3.795285   4.742165   1.513901   1.814358   0.957200
                   21
    21  H    0.000000
 Symmetry turned off by external request.
 Stoichiometry    C6H5F4NOS
 Framework group  C1[X(C6H5F4NOS)]
 Deg. of freedom    48
 Full point group                 C1      NOp   1
 Rotational constants (GHZ):      0.9976731      0.3168546      0.2790146
 Standard basis: 6-31G(d) (6D, 7F)
 Integral buffers will be    131072 words long.
 Raffenetti 1 integral format.
 Two-electron integral symmetry is turned off.
   209 basis functions,   408 primitive gaussians,   209 cartesian basis functions
    54 alpha electrons       54 beta electrons
       nuclear repulsion energy       903.5551196702 Hartrees.
 NAtoms=   18 NActive=   18 NUniq=   18 SFac= 7.50D-01 NAtFMM=   80 NAOKFM=F Big=F
 One-electron integrals computed using PRISM.
 NBasis=   209 RedAO= T  NBF=   209
 NBsUse=   209 1.00D-06 NBFU=   209
 Initial guess read from the read-write file.
 B after Tr=     0.000000    0.000000    0.000000
         Rot=    1.000000    0.000000    0.000000    0.000000 Ang=   0.00 deg.
 Requested convergence on RMS density matrix=1.00D-08 within 128 cycles.
 Requested convergence on MAX density matrix=1.00D-06.
 Requested convergence on             energy=1.00D-06.
 No special actions if energy rises.
 SCF Done:  E(RHF) =  -1154.67433012     A.U. after    6 cycles
             Convg  =    0.4407D-08             -V/T =  2.0019
 Calling FoFJK, ICntrl=      2127 FMM=F ISym2X=0 I1Cent= 0 IOpClX= 0 NMat=1 NMatS=1 NMatT=0.
 -------------------------------------------------------------------
 Center     Atomic                   Forces (Hartrees/Bohr)
 Number     Number              X              Y              Z
 -------------------------------------------------------------------
      1        9           0.000000000    0.000000000    0.000000000
      2        6           0.000000000    0.000000000    0.000000000
      3        6           0.000000000    0.000000000    0.000000000
      4        6           0.000000000    0.000000000    0.000000000
      5        6           0.000000000    0.000000000    0.000000000
      6        9           0.000000000    0.000000000    0.000000000
      7        9           0.000000000    0.000000000    0.000000000
      8        9           0.000000000    0.000000000    0.000000000
      9        6           0.000000000    0.000000000    0.000000000
     10        7           0.000000000    0.000000000    0.000000000
     11        6           0.000000000    0.000000000    0.000000000
     12       16           0.000000000    0.000000000    0.000000000
     13        1           0.000000000    0.000000000    0.000000000
     14        1           0.000000000    0.000000000    0.000000000
     15        1           0.000000000    0.000000000    0.000000000
     16        1           0.003880909    0.006367539   -0.007801756
     17        8          -0.002701899   -0.014752467    0.001294549
     18        1          -0.001004761    0.008428037    0.006570345
 -------------------------------------------------------------------
 Cartesian Forces:  Max     0.014752467 RMS     0.002913241
 -----------------------------------------------------------------------------------------------
                       Internal Coordinate Forces (Hartree/Bohr or radian)
  Cent   Atom   N1       Length/X         N2         Alpha/Y        N3         Beta/Z          J
 -----------------------------------------------------------------------------------------------
      1  F 
      2  C 
      3  C 
      4  C 
      5  C 
      6  F 
      7  F 
      8  F 
      9  C 
     10  N 
     11  C 
     12  S 
     13  H 
     14  H 
     15  H 
         X        7   0.000000(     1)      5   0.000309(     7)      4  -0.000193(    13)     0
         X       16   0.000000(     2)      7   0.000000(     8)      5  -0.000415(    14)     0
     16  H        7   0.000028(     3)     16   0.000309(     9)     17   0.000415(    15)     0
         X       18   0.000000(     4)      7  -0.000483(    10)     16   0.000000(    16)     0
     17  O       18  -0.010678(     5)     19  -0.000483(    11)      7  -0.000296(    17)     0
     18  H       20  -0.010654(     6)     18   0.002355(    12)     16  -0.000193(    18)     0
 -----------------------------------------------------------------------------------------------
 Internal  Forces:  Max     0.010678458 RMS     0.003607446

 GradGradGradGradGradGradGradGradGradGradGradGradGradGradGradGradGradGrad
 Berny optimization.
 Search for a local minimum.
 Step number   4 out of a maximum of   20
 All quantities printed in internal units (Hartrees-Bohrs-Radians)
 Update second derivatives using D2CorN and points    3    4
 DE= -4.94D-07 DEPred=-4.92D-07 R= 1.01D+00
 Trust test= 1.01D+00 RLast= 1.19D-02 DXMaxT set to 3.00D-01
 The second derivative matrix:
                          RX       RDUM       ROH      ADUM      AHOH
           RX           0.00234
           RDUM         0.00000   0.00000
           ROH         -0.00015   0.00000   1.12160
           ADUM        -0.00043   0.00000   0.00000   2.14731
           AHOH         0.00028   0.00000   0.00000   0.00000   0.16000
           DDUM        -0.00019   0.00000   0.00000  -0.08024   0.00000
           DH1          0.00013   0.00000   0.00000   0.08024   0.00000
           DOH2         0.00001   0.00000   0.00000   0.12538   0.00000
           DH2         -0.00005   0.00000   0.00000   0.00000   0.00000
                         DDUM       DH1      DOH2       DH2
           DDUM         0.18247
           DH1         -0.18247   0.18247
           DOH2         0.00000   0.00000   0.28511
           DH2          0.00000   0.00000   0.00000   0.00000
     Eigenvalues ---    0.002341000.000001000.000001000.000001000.00000
     Eigenvalues --- 1000.000001000.000001000.000001000.00000
 RFO step:  Lambda= 0.00000000D+00 EMin= 2.33564781D-03
 Quartic linear search produced a step of  1.03742.
 Variable       Old X    -DE/DX   Delta X   Delta X   Delta X     New X
                                 (Linear)    (Quad)   (Total)
    RX        4.43100   0.00003   0.01230   0.00000   0.01230   4.44330
   RDUM       1.88973   0.00000   0.00000   0.00000   0.00000   1.88973
   ROH        1.80885  -0.02133   0.00000   0.00000   0.00000   1.80885
   ADUM       1.57080  -0.00035   0.00000   0.00000   0.00000   1.57080
   AHOH       1.82422   0.00236   0.00000   0.00000   0.00000   1.82422
   DDUM       0.00000  -0.00061   0.00000   0.00000   0.00000   0.00000
   DH1        3.14159   0.00042   0.00000   0.00000   0.00000   3.14159
   DOH2       3.14159  -0.00030   0.00000   0.00000   0.00000   3.14159
   DH2        4.71239  -0.00019   0.00000   0.00000   0.00000   4.71239
         Item               Value     Threshold  Converged?
 Maximum Force            0.000028     0.000450     YES
 RMS     Force            0.000028     0.000300     YES
 Maximum Displacement     0.012303     0.001800     NO 
 RMS     Displacement     0.004101     0.001200     NO 
 Predicted change in Energy=-1.666368D-07
 GradGradGradGradGradGradGradGradGradGradGradGradGradGradGradGradGradGrad

 ---------------------------------------------------------------------------------------------------
                            Z-MATRIX (ANGSTROMS AND DEGREES)
   CD    Cent   Atom    N1       Length/X        N2       Alpha/Y        N3        Beta/Z          J
 ---------------------------------------------------------------------------------------------------
      1      1  F       -1  -1.969300          2.053680          0.000070
      2      2  C       -1  -1.222250          0.944230          0.000030
      3      3  C       -1   0.140030          1.057400         -0.000020
      4      4  C       -1   0.927950         -0.123640         -0.000080
      5      5  C       -1   2.414660         -0.018650         -0.000010
      6      6  F       -1   3.007080         -1.234610         -0.000560
      7      7  F       -1   2.858290          0.654480         -1.086020
      8      8  F       -1   2.858270          0.653500          1.086650
      9      9  C       -1   0.306540         -1.341490         -0.000090
     10     10  N       -1  -1.054170         -1.389970         -0.000060
     11     11  C       -1  -1.930500         -0.312100          0.000000
     12     12  S       -1  -3.570980         -0.506610          0.000030
     13     13  H       -1   0.596860          2.043100         -0.000020
     14     14  H       -1   0.831760         -2.288990         -0.000150
     15     15  H       -1  -1.521480         -2.296390         -0.000090
     16         X        7   1.000000(    15)      5   90.000(    34)      4    0.000(    52)      0
     17         X       16   1.000000(    16)      7   90.000(    35)      5    0.000(    53)      0
     18     16  H        7   2.351293(    17)     16   90.000(    36)     17  180.000(    54)      0
     19         X       18   1.000000(    18)      7   90.000(    37)     16    0.000(    55)      0
     20     17  O       18   0.957200(    19)     19   90.000(    38)      7  180.000(    56)      0
     21     18  H       20   0.957200(    20)     18  104.520(    39)     16  270.000(    57)      0
 ---------------------------------------------------------------------------------------------------
                         Z-Matrix orientation:                         
 ---------------------------------------------------------------------
 Center     Atomic      Atomic             Coordinates (Angstroms)
 Number     Number       Type             X           Y           Z
 ---------------------------------------------------------------------
      1          9           0       -1.969300    2.053680    0.000070
      2          6           0       -1.222250    0.944230    0.000030
      3          6           0        0.140030    1.057400   -0.000020
      4          6           0        0.927950   -0.123640   -0.000080
      5          6           0        2.414660   -0.018650   -0.000010
      6          9           0        3.007080   -1.234610   -0.000560
[...]
 !       DH1       180.0      -DE/DX =    0.0004                        !
 !      DOH2       180.0      -DE/DX =   -0.0003                        !
 !       DH2       270.0      -DE/DX =   -0.0002                        !
 ------------------------------------------------------------------------
 GradGradGradGradGradGradGradGradGradGradGradGradGradGradGradGradGradGrad

 ---------------------------------------------------------------------------------------------------
                            Z-MATRIX (ANGSTROMS AND DEGREES)
   CD    Cent   Atom    N1       Length/X        N2       Alpha/Y        N3        Beta/Z          J
 ---------------------------------------------------------------------------------------------------
      1      1  F       -1  -1.969300          2.053680          0.000070
      2      2  C       -1  -1.222250          0.944230          0.000030
      3      3  C       -1   0.140030          1.057400         -0.000020
      4      4  C       -1   0.927950         -0.123640         -0.000080
      5      5  C       -1   2.414660         -0.018650         -0.000010
      6      6  F       -1   3.007080         -1.234610         -0.000560
      7      7  F       -1   2.858290          0.654480         -1.086020
      8      8  F       -1   2.858270          0.653500          1.086650
      9      9  C       -1   0.306540         -1.341490         -0.000090
     10     10  N       -1  -1.054170         -1.389970         -0.000060
     11     11  C       -1  -1.930500         -0.312100          0.000000
     12     12  S       -1  -3.570980         -0.506610          0.000030
     13     13  H       -1   0.596860          2.043100         -0.000020
     14     14  H       -1   0.831760         -2.288990         -0.000150
     15     15  H       -1  -1.521480         -2.296390         -0.000090
     16         X        7   1.000000(    15)      5   90.000(    34)      4    0.000(    52)      0
     17         X       16   1.000000(    16)      7   90.000(    35)      5    0.000(    53)      0
     18     16  H        7   2.351293(    17)     16   90.000(    36)     17  180.000(    54)      0
     19         X       18   1.000000(    18)      7   90.000(    37)     16    0.000(    55)      0
     20     17  O       18   0.957200(    19)     19   90.000(    38)      7  180.000(    56)      0
     21     18  H       20   0.957200(    20)     18  104.520(    39)     16  270.000(    57)      0
 ---------------------------------------------------------------------------------------------------
                         Z-Matrix orientation:                         
 ---------------------------------------------------------------------
 Center     Atomic      Atomic             Coordinates (Angstroms)
 Number     Number       Type             X           Y           Z
 ---------------------------------------------------------------------
      1          9           0       -1.969300    2.053680    0.000070
      2          6           0       -1.222250    0.944230    0.000030
      3          6           0        0.140030    1.057400   -0.000020
      4          6           0        0.927950   -0.123640   -0.000080
      5          6           0        2.414660   -0.018650   -0.000010
      6          9           0        3.007080   -1.234610   -0.000560
      7          9           0        2.858290    0.654480   -1.086020
      8          9           0        2.858270    0.653500    1.086650
      9          6           0        0.306540   -1.341490   -0.000090
     10          7           0       -1.054170   -1.389970   -0.000060
     11          6           0       -1.930500   -0.312100    0.000000
     12         16           0       -3.570980   -0.506610    0.000030
     13          1           0        0.596860    2.043100   -0.000020
     14          1           0        0.831760   -2.288990   -0.000150
     15          1           0       -1.521480   -2.296390   -0.000090
     16         -1           0        1.915565    0.772301   -1.398091
     17         -1           0        1.587564    0.274618   -0.595142
     18          1           0        3.629516    1.824679   -2.973988
     19         -1           0        2.686791    1.942500   -3.286059
     20          8           0        3.943478    2.301061   -3.742570
     21          1           0        4.078448    1.624230   -4.405831
 ---------------------------------------------------------------------
                    Distance matrix (angstroms):
                    1          2          3          4          5
     1  F    0.000000
     2  C    1.337521   0.000000
     3  C    2.332777   1.366973   0.000000
     4  C    3.624194   2.400772   1.419744   0.000000
     5  C    4.849088   3.762214   2.516312   1.490413   0.000000
     6  F    5.964663   4.757581   3.670597   2.357337   1.352598
     7  F    5.142274   4.232525   2.954772   2.347541   1.352527
     8  F    5.142625   4.232719   2.955134   2.347566   1.352555
     9  C    4.087374   2.749857   2.404662   1.367227   2.488790
    10  N    3.563171   2.340244   2.723184   2.352104   3.730054
    11  C    2.366098   1.442215   2.482463   2.864656   4.355058
    12  S    3.020011   2.760701   4.027123   4.515201   6.005497
    13  H    2.566182   2.125247   1.086415   2.191890   2.748674
    14  H    5.167661   3.830492   3.417136   2.167485   2.767673
    15  H    4.373060   3.254406   3.742796   3.274225   4.547669
    16  X    4.323073   3.439504   2.277808   1.931975   1.682061
    17  X    4.021271   2.949181   1.749935   0.973550   1.060318
    18  H    6.343832   5.758438   4.648625   4.465259   3.703820
    19  X    5.700017   5.203415   4.250582   4.261468   3.836441
    20  O    7.002107   6.521718   5.479014   5.383198   4.661020
    21  H    7.494775   6.926140   5.936633   5.691338   4.987836
                    6          7          8          9         10
     6  F    0.000000
     7  F    2.183809   0.000000
     8  F    2.183834   2.172670   0.000000
     9  C    2.702654   3.416807   3.416477   0.000000
    10  N    4.064221   4.546034   4.545756   1.361573   0.000000
    11  C    5.023019   5.004620   5.004549   2.462517   1.389157
    12  S    6.618222   6.622926   6.622828   3.966382   2.667332
    13  H    4.068482   2.867355   2.868068   3.397019   3.809445
    14  H    2.417382   3.734964   3.734451   1.083334   2.089251
    15  H    4.651369   5.391592   5.391203   2.062399   1.019792
    16  X    2.678094   1.000000   2.660215   3.001913   3.930551
    17  X    2.155533   1.414214   2.141651   2.146372   3.178637
    18  H    4.311374   2.351293   4.295959   5.469083   6.412108
    19  X    4.581606   2.555108   4.561963   5.219940   5.991489
    20  O    5.232634   3.308493   5.216657   6.364092   7.253040
    21  H    5.359777   3.667472   5.709510   6.514088   7.405403
                   11         12         13         14         15
    11  C    0.000000
    12  S    1.651971   0.000000
    13  H    3.454637   4.885889   0.000000
    14  H    3.396789   4.749842   4.338454   0.000000
    15  H    2.026007   2.720986   4.828927   2.353252   0.000000
    16  X    4.233533   5.804527   2.304022   3.535587   4.815034
    17  X    3.615966   5.251202   2.112627   2.738127   4.078030
    18  H    6.657643   8.131841   4.253139   5.795983   7.236024
    19  X    6.099244   7.480389   3.895637   5.669554   6.817281
    20  O    7.439023   8.851958   5.027234   6.690073   8.062784
    21  H    7.698583   9.081071   5.630993   6.727875   8.132713
                   16         17         18         19         20
    16  X    0.000000
    17  X    1.000000   0.000000
    18  H    2.555108   3.497308   0.000000
    19  X    2.351293   3.351293   1.000000   0.000000
    20  O    3.456317   4.423020   0.957200   1.384280   0.000000
    21  H    3.801361   4.748401   1.513901   1.814358   0.957200
                   21
    21  H    0.000000
 Symmetry turned off by external request.
 Stoichiometry    C6H5F4NOS
 Framework group  C1[X(C6H5F4NOS)]
 Deg. of freedom    48
 Full point group                 C1      NOp   1
 Rotational constants (GHZ):      0.9965513      0.3167217      0.2788497

 **********************************************************************

            Population analysis using the SCF density.

 **********************************************************************

 Alpha  occ. eigenvalues --  -91.90710 -26.37549 -26.37351 -26.36499 -26.33612
 Alpha  occ. eigenvalues --  -20.55704 -15.68997 -11.55007 -11.38073 -11.37430
 Alpha  occ. eigenvalues --  -11.36514 -11.31472 -11.30717  -8.91797  -6.60124
 Alpha  occ. eigenvalues --   -6.59849  -6.59722  -1.74985  -1.66019  -1.65295
 Alpha  occ. eigenvalues --   -1.64858  -1.35833  -1.33899  -1.17506  -1.12338
 Alpha  occ. eigenvalues --   -1.03495  -0.97660  -0.93033  -0.88581  -0.85377
 Alpha  occ. eigenvalues --   -0.84570  -0.84251  -0.77390  -0.76242  -0.74175
 Alpha  occ. eigenvalues --   -0.73196  -0.72366  -0.71487  -0.70548  -0.70421
 Alpha  occ. eigenvalues --   -0.68506  -0.68239  -0.67014  -0.64367  -0.62809
 Alpha  occ. eigenvalues --   -0.61134  -0.59782  -0.56818  -0.52811  -0.49512
 Alpha  occ. eigenvalues --   -0.46908  -0.43516  -0.34330  -0.31234
 Alpha virt. eigenvalues --    0.04225   0.08371   0.17395   0.21552   0.24331
 Alpha virt. eigenvalues --    0.24906   0.26180   0.26238   0.29213   0.31353
 Alpha virt. eigenvalues --    0.33661   0.35103   0.38985   0.40869   0.42223
 Alpha virt. eigenvalues --    0.43735   0.46401   0.49223   0.53865   0.55232
 Alpha virt. eigenvalues --    0.56488   0.59489   0.60953   0.64093   0.66299
 Alpha virt. eigenvalues --    0.67376   0.71599   0.72745   0.73201   0.75099
 Alpha virt. eigenvalues --    0.76879   0.77624   0.82655   0.84195   0.87234
 Alpha virt. eigenvalues --    0.88769   0.89575   0.91865   0.95414   0.99505
 Alpha virt. eigenvalues --    1.01878   1.02377   1.02602   1.04413   1.07269
 Alpha virt. eigenvalues --    1.08979   1.09507   1.12491   1.13294   1.14973
 Alpha virt. eigenvalues --    1.15827   1.17007   1.17295   1.18181   1.24144
 Alpha virt. eigenvalues --    1.28049   1.29133   1.31015   1.32632   1.33887
 Alpha virt. eigenvalues --    1.34501   1.36874   1.40926   1.41767   1.42090
 Alpha virt. eigenvalues --    1.44429   1.47135   1.51812   1.59569   1.60075
 Alpha virt. eigenvalues --    1.60813   1.62830   1.63243   1.63915   1.64657
 Alpha virt. eigenvalues --    1.65704   1.67100   1.69404   1.69743   1.71692
 Alpha virt. eigenvalues --    1.73508   1.75952   1.76773   1.80970   1.86205
 Alpha virt. eigenvalues --    1.91244   1.91894   1.93299   1.99450   2.02326
 Alpha virt. eigenvalues --    2.03632   2.04077   2.05503   2.07032   2.08584
 Alpha virt. eigenvalues --    2.09834   2.11425   2.12157   2.17758   2.19979
 Alpha virt. eigenvalues --    2.22024   2.22120   2.24198   2.27929   2.29311
 Alpha virt. eigenvalues --    2.29951   2.32319   2.33387   2.34159   2.35346
 Alpha virt. eigenvalues --    2.37552   2.38804   2.42967   2.44599   2.45301
 Alpha virt. eigenvalues --    2.46619   2.51886   2.60343   2.61649   2.63590
 Alpha virt. eigenvalues --    2.65080   2.67776   2.74731   2.82504   2.84253
 Alpha virt. eigenvalues --    2.84288   2.90875   2.92531   2.92969   2.94991
 Alpha virt. eigenvalues --    2.99855   3.06645   3.09187   3.16827   3.21681
 Alpha virt. eigenvalues --    3.29127   3.37224   3.38378   3.42660   3.44838
 Alpha virt. eigenvalues --    3.49187   3.70879   4.02309   4.36089   4.39816
 Alpha virt. eigenvalues --    4.44751   4.47951   4.59790   4.63818   4.72698
 Alpha virt. eigenvalues --    4.81742   5.02617   5.16412   5.57543   6.02592
          Condensed to atoms (all electrons):
              1          2          3          4          5          6
     1  F    9.158200   0.268162  -0.033648   0.002211  -0.000015   0.000000
     2  C    0.268162   4.573714   0.570487  -0.026353   0.000781  -0.000019
     3  C   -0.033648   0.570487   5.069064   0.352931  -0.012587   0.002164
     4  C    0.002211  -0.026353   0.352931   5.206910   0.419612  -0.045325
     5  C   -0.000015   0.000781  -0.012587   0.419612   3.551740   0.289972
     6  F    0.000000  -0.000019   0.002164  -0.045325   0.289972   9.185554
     7  F    0.000000   0.000290   0.005083  -0.054188   0.273450  -0.030202
     8  F    0.000000   0.000292   0.005055  -0.055490   0.286618  -0.030744
     9  C    0.000133  -0.023040  -0.054365   0.591896  -0.021108   0.005401
    10  N    0.001382  -0.053307  -0.021147  -0.035830   0.001222   0.000237
    11  C   -0.040757   0.377667  -0.079397  -0.001167   0.000082   0.000002
    12  S    0.003529  -0.083380   0.001584  -0.000051   0.000006   0.000000
    13  H   -0.000283  -0.016605   0.368327  -0.030511  -0.000249   0.000034
    14  H    0.000000  -0.000114   0.001800  -0.022895  -0.000134   0.004962
    15  H   -0.000018   0.003858  -0.000574   0.002350  -0.000016   0.000001
    16  H    0.000000   0.000000   0.000008   0.000069   0.000081   0.000011
    17  O    0.000000   0.000000   0.000000  -0.000003   0.000010   0.000000
    18  H    0.000000   0.000000   0.000000   0.000000   0.000000   0.000000
              7          8          9         10         11         12
     1  F    0.000000   0.000000   0.000133   0.001382  -0.040757   0.003529
     2  C    0.000290   0.000292  -0.023040  -0.053307   0.377667  -0.083380
     3  C    0.005083   0.005055  -0.054365  -0.021147  -0.079397   0.001584
     4  C   -0.054188  -0.055490   0.591896  -0.035830  -0.001167  -0.000051
     5  C    0.273450   0.286618  -0.021108   0.001222   0.000082   0.000006
     6  F   -0.030202  -0.030744   0.005401   0.000237   0.000002   0.000000
     7  F    9.210402  -0.033453   0.000464  -0.000005  -0.000002   0.000000
     8  F   -0.033453   9.196084   0.000500  -0.000006  -0.000002   0.000000
     9  C    0.000464   0.000500   4.733458   0.266909  -0.038438   0.003324
    10  N   -0.000005  -0.000006   0.266909   7.235766   0.211269  -0.104557
    11  C   -0.000002  -0.000002  -0.038438   0.211269   4.957132   0.447197
    12  S    0.000000   0.000000   0.003324  -0.104557   0.447197  15.944919
    13  H    0.000881   0.000887   0.002396  -0.000260   0.002614  -0.000055
    14  H    0.000082   0.000083   0.380141  -0.031940   0.000956  -0.000133
    15  H    0.000000   0.000000  -0.021514   0.309791  -0.017807   0.013791
    16  H    0.008637   0.000012   0.000000   0.000000   0.000000   0.000000
    17  O   -0.000750   0.000000   0.000000   0.000000   0.000000   0.000000
    18  H   -0.000023   0.000000   0.000000   0.000000   0.000000   0.000000
             13         14         15         16         17         18
     1  F   -0.000283   0.000000  -0.000018   0.000000   0.000000   0.000000
     2  C   -0.016605  -0.000114   0.003858   0.000000   0.000000   0.000000
     3  C    0.368327   0.001800  -0.000574   0.000008   0.000000   0.000000
     4  C   -0.030511  -0.022895   0.002350   0.000069  -0.000003   0.000000
     5  C   -0.000249  -0.000134  -0.000016   0.000081   0.000010   0.000000
     6  F    0.000034   0.004962   0.000001   0.000011   0.000000   0.000000
     7  F    0.000881   0.000082   0.000000   0.008637  -0.000750  -0.000023
     8  F    0.000887   0.000083   0.000000   0.000012   0.000000   0.000000
     9  C    0.002396   0.380141  -0.021514   0.000000   0.000000   0.000000
    10  N   -0.000260  -0.031940   0.309791   0.000000   0.000000   0.000000
    11  C    0.002614   0.000956  -0.017807   0.000000   0.000000   0.000000
    12  S   -0.000055  -0.000133   0.013791   0.000000   0.000000   0.000000
    13  H    0.390229  -0.000062   0.000008   0.000002   0.000000   0.000000
    14  H   -0.000062   0.381450  -0.002128   0.000000   0.000000   0.000000
    15  H    0.000008  -0.002128   0.270154   0.000000   0.000000   0.000000
    16  H    0.000002   0.000000   0.000000   0.309557   0.262096  -0.018528
    17  O    0.000000   0.000000   0.000000   0.262096   8.351175   0.265533
    18  H    0.000000   0.000000   0.000000  -0.018528   0.265533   0.322186
 Mulliken atomic charges:
              1
     1  F   -0.358897
     2  C    0.407565
     3  C   -0.174785
     4  C   -0.304167
     5  C    1.210533
     6  F   -0.382050
     7  F   -0.380667
     8  F   -0.369837
     9  C    0.173845
    10  N   -0.779523
    11  C    0.180651
    12  S   -0.226174
    13  H    0.282645
    14  H    0.287931
    15  H    0.442103
    16  H    0.438055
    17  O   -0.878060
    18  H    0.430832
 Sum of Mulliken atomic charges =   0.00000
 Mulliken charges with hydrogens summed into heavy atoms:
              1
     1  F   -0.358897
     2  C    0.407565
     3  C    0.107861
     4  C   -0.304167
     5  C    1.210533
     6  F   -0.382050
     7  F   -0.380667
     8  F   -0.369837
     9  C    0.461776
    10  N   -0.337420
    11  C    0.180651
    12  S   -0.226174
    17  O   -0.009174
 Sum of Mulliken charges with hydrogens summed into heavy atoms =   0.00000
 Electronic spatial extent (au):  <R**2>=           3879.3997
 Charge=              0.0000 electrons
 Dipole moment (field-independent basis, Debye):
    X=              2.9432    Y=             -4.9046    Z=              0.4173  Tot=              5.7351
 Quadrupole moment (field-independent basis, Debye-Ang):
   XX=           -108.6452   YY=            -80.2738   ZZ=            -81.7458
   XY=             -7.6290   XZ=              1.8828   YZ=              9.1936
 Traceless Quadrupole moment (field-independent basis, Debye-Ang):
   XX=            -18.4236   YY=              9.9478   ZZ=              8.4758
   XY=             -7.6290   XZ=              1.8828   YZ=              9.1936
 Octapole moment (field-independent basis, Debye-Ang**2):
  XXX=              1.9866  YYY=            -80.7582  ZZZ=             60.7806  XYY=            -40.6445
  XXY=            -52.0857  XXZ=             34.6780  XZZ=             -7.0849  YZZ=            -43.4694
  YYZ=             60.6985  XYZ=             36.9152
 Hexadecapole moment (field-independent basis, Debye-Ang**3):
 XXXX=          -3407.4318 YYYY=           -728.5297 ZZZZ=           -571.2490 XXXY=           -392.8114
 XXXZ=            346.5964 YYYX=           -289.9818 YYYZ=            275.2788 ZZZX=            221.7103
 ZZZY=            271.8097 XXYY=           -801.3900 XXZZ=           -628.9336 YYZZ=           -373.0311
 XXYZ=            206.6162 YYXZ=            240.0814 ZZXY=           -201.8439
 N-N= 9.034497106855D+02 E-N=-4.544354757316D+03  KE= 1.152539270179D+03
 1\1\GINC-B1\FOpt\RHF\6-31G(d)\C6H5F4N1O1S1\ANA\24-Sep-2021\1\\#HF/6-31
 G* Opt=Z-matrix NoSymm\\water interaction with atom F7\\0,1\F,-1,-1.96
 93,2.05368,0.00007\C,-1,-1.22225,0.94423,0.00003\C,-1,0.14003,1.0574,-
 0.00002\C,-1,0.92795,-0.12364,-0.00008\C,-1,2.41466,-0.01865,-0.00001\
 F,-1,3.00708,-1.23461,-0.00056\F,-1,2.85829,0.65448,-1.08602\F,-1,2.85
 827,0.6535,1.08665\C,-1,0.30654,-1.34149,-0.00009\N,-1,-1.05417,-1.389
 97,-0.00006\C,-1,-1.9305,-0.3121,0.\S,-1,-3.57098,-0.50661,0.00003\H,-
 1,0.59686,2.0431,-0.00002\H,-1,0.83176,-2.28899,-0.00015\H,-1,-1.52148
 ,-2.29639,-0.00009\X,7,RDUM,5,ADUM,4,DDUM,0\X,16,RDUM,7,ADUM,5,DDUM,0\
 H,7,RX,16,ADUM,17,DH1,0\X,18,RDUM,7,ADUM,16,DDUM,0\O,18,ROH,19,ADUM,7,
 DOH2,0\H,20,ROH,18,AHOH,16,DH2,0\\RX=2.35129281\RDUM=1.\ROH=0.9572\ADU
 M=90.\AHOH=104.52\DDUM=0.\DH1=180.\DOH2=180.\DH2=270.\\Version=EM64L-G
 09RevA.01\HF=-1154.6743303\RMSD=4.596e-09\RMSF=2.911e-03\Dipole=1.1579
 329,-1.9296014,0.1641877\Quadrupole=-13.6974952,7.3959579,6.3015373,-5
 .6719451,1.3998159,6.8352334\PG=C01 [X(C6H5F4N1O1S1)]\\@


 EDUCATION IS NOT TRAINING BUT RATHER THE PROCESS THAT EQUIPS YOU TO
 ENTERTAIN YOURSELF, A FRIEND, OR AN IDEA.  -- WALLACE STERLING
 Job cpu time:  0 days  0 hours  3 minutes 19.5 seconds.
 File lengths (MBytes):  RWF=     26 Int=      0 D2E=      0 Chk=      3 Scr=      1
 Normal termination of Gaussian 09 at Fri Sep 24 08:10:33 2021.
