 Entering Gaussian System, Link 0=g09
 Initial command:
 /home/ana/programs/g09/l1.exe /home/ana/programs/g09/scratch/Gau-701061.inp -scrdir=/home/ana/programs/g09/scratch/
 Entering Link 1 = /home/ana/programs/g09/l1.exe PID=    701063.
  
 Copyright (c) 1988,1990,1992,1993,1995,1998,2003,2009, Gaussian, Inc.
                  All Rights Reserved.
  
 This is part of the Gaussian(R) 09 program.  It is based on
 the Gaussian(R) 03 system (copyright 2003, Gaussian, Inc.),
 the Gaussian(R) 98 system (copyright 1998, Gaussian, Inc.),
 the Gaussian(R) 94 system (copyright 1995, Gaussian, Inc.),
 the Gaussian 92(TM) system (copyright 1992, Gaussian, Inc.),
 the Gaussian 90(TM) system (copyright 1990, Gaussian, Inc.),
 the Gaussian 88(TM) system (copyright 1988, Gaussian, Inc.),
 the Gaussian 86(TM) system (copyright 1986, Carnegie Mellon
 University), and the Gaussian 82(TM) system (copyright 1983,
 Carnegie Mellon University). Gaussian is a federally registered
 trademark of Gaussian, Inc.
  
 This software contains proprietary and confidential information,
 including trade secrets, belonging to Gaussian, Inc.
  
 This software is provided under written license and may be
 used, copied, transmitted, or stored only in accord with that
 written license.
  
 The following legend is applicable only to US Government
 contracts under FAR:
  
                    RESTRICTED RIGHTS LEGEND
  
 Use, reproduction and disclosure by the US Government is
 subject to restrictions as set forth in subparagraphs (a)
 and (c) of the Commercial Computer Software - Restricted
 Rights clause in FAR 52.227-19.
  
 Gaussian, Inc.
 340 Quinnipiac St., Bldg. 40, Wallingford CT 06492
  
  
 ---------------------------------------------------------------
 Warning -- This program may not be used in any manner that
 competes with the business of Gaussian, Inc. or will provide
 assistance to any competitor of Gaussian, Inc.  The licensee
 of this program is prohibited from giving any competitor of
 Gaussian, Inc. access to this program.  By using this program,
 the user acknowledges that Gaussian, Inc. is engaged in the
 business of creating and licensing software in the field of
 computational chemistry and represents and warrants to the
 licensee that it is not a competitor of Gaussian, Inc. and that
 it will not use this program in any manner prohibited above.
 ---------------------------------------------------------------
  

 Cite this work as:
 Gaussian 09, Revision A.01,
 M. J. Frisch, G. W. Trucks, H. B. Schlegel, G. E. Scuseria, 
 M. A. Robb, J. R. Cheeseman, G. Scalmani, V. Barone, B. Mennucci, 
 G. A. Petersson, H. Nakatsuji, M. Caricato, X. Li, H. P. Hratchian, 
 A. F. Izmaylov, J. Bloino, G. Zheng, J. L. Sonnenberg, M. Hada, 
 M. Ehara, K. Toyota, R. Fukuda, J. Hasegawa, M. Ishida, T. Nakajima, 
 Y. Honda, O. Kitao, H. Nakai, T. Vreven, J. A. Montgomery, Jr., 
 J. E. Peralta, F. Ogliaro, M. Bearpark, J. J. Heyd, E. Brothers, 
 K. N. Kudin, V. N. Staroverov, R. Kobayashi, J. Normand, 
 K. Raghavachari, A. Rendell, J. C. Burant, S. S. Iyengar, J. Tomasi, 
 M. Cossi, N. Rega, J. M. Millam, M. Klene, J. E. Knox, J. B. Cross, 
 V. Bakken, C. Adamo, J. Jaramillo, R. Gomperts, R. E. Stratmann, 
 O. Yazyev, A. J. Austin, R. Cammi, C. Pomelli, J. W. Ochterski, 
 R. L. Martin, K. Morokuma, V. G. Zakrzewski, G. A. Voth, 
 P. Salvador, J. J. Dannenberg, S. Dapprich, A. D. Daniels, 
 O. Farkas, J. B. Foresman, J. V. Ortiz, J. Cioslowski, 
 and D. J. Fox, Gaussian, Inc., Wallingford CT, 2009.
 
 ******************************************
 Gaussian 09:  EM64L-G09RevA.01  8-May-2009
                24-Sep-2021 
 ******************************************
 %NPROC=4
 Will use up to    4 processors via shared memory.
 %NoSave
 ------------------------------
 #HF/6-31G* Opt=Z-matrix NoSymm
 ------------------------------
 1/10=7,18=40,38=1/1,3;
 2/12=2,15=1,17=6,18=5,29=3,40=1/2;
 3/5=1,6=6,7=1,11=9,16=1,25=1,30=1,71=1/1,2,3;
 4//1;
 5/5=2,38=5/2;
 6/7=2,8=2,9=2,10=2,28=1/1;
 7/29=1,30=1/1,2,3,16;
 1/10=7,18=40/3(2);
 2/15=1,29=3/2;
 99//99;
 2/15=1,29=3/2;
 3/5=1,6=6,7=1,11=9,16=1,25=1,30=1,71=1/1,2,3;
 4/5=5,16=3/1;
 5/5=2,38=5/2;
 7/30=1/1,2,3,16;
 1/18=40/3(-5);
 2/15=1,29=3/2;
 6/7=2,8=2,9=2,10=2,19=2,28=1/1;
 99/9=1/99;
 ------------------------------
 water interaction with atom F7
 ------------------------------
 Symbolic Z-matrix:
 Charge =  0 Multiplicity = 1
 9                    -1   -1.9693    2.05368   0.00007 
 6                    -1   -1.22225   0.94423   0.00003 
 6                    -1    0.14003   1.0574   -0.00002 
 6                    -1    0.92795  -0.12364  -0.00008 
 6                    -1    2.41466  -0.01865  -0.00001 
 9                    -1    3.00708  -1.23461  -0.00056 
 9                    -1    2.85829   0.65448  -1.08602 
 9                    -1    2.85827   0.6535    1.08665 
 6                    -1    0.30654  -1.34149  -0.00009 
 7                    -1   -1.05417  -1.38997  -0.00006 
 6                    -1   -1.9305   -0.3121    0. 
 16                   -1   -3.57098  -0.50661   0.00003 
 1                    -1    0.59686   2.0431   -0.00002 
 1                    -1    0.83176  -2.28899  -0.00015 
 1                    -1   -1.52148  -2.29639  -0.00009 
 X                    7    RDUM     5    ADUM     4    DDUM     0
 X                    16   RDUM     7    ADUM     5    DDUM     0
 H1                   7    RX       16   ADUM     17   DH1      0
 X                    18   RDUM     7    ADUM     16   DDUM     0
 OH2                  18   ROH      19   ADUM     7    DOH2     0
 H2                   20   ROH      18   AHOH     16   DH2      0
       Variables:
  RX                    2.379                    
       Constants:
  RDUM                  1.                       
  ROH                   0.9572                   
  ADUM                 90.                       
  AHOH                104.52                     
  DDUM                  0.                       
  DH1                 180.                       
  DOH2                180.                       
  DH2                  90.                       
 

 GradGradGradGradGradGradGradGradGradGradGradGradGradGradGradGradGradGrad
 Berny optimization.
 Initialization pass.
                       ----------------------------
                       !    Initial Parameters    !
                       ! (Angstroms and Degrees)  !
 ----------------------                            ----------------------
 !      Name          Value   Derivative information (Atomic Units)     !
 ------------------------------------------------------------------------
 !       RX          2.379    estimate D2E/DX2                          !
 !      RDUM         1.0      Frozen                                    !
 !       ROH         0.9572   Frozen                                    !
 !      ADUM        90.0      Frozen                                    !
 !      AHOH       104.52     Frozen                                    !
 !      DDUM         0.0      Frozen                                    !
 !       DH1       180.0      Frozen                                    !
 !      DOH2       180.0      Frozen                                    !
 !       DH2        90.0      Frozen                                    !
 ------------------------------------------------------------------------
 Trust Radius=3.00D-01 FncErr=1.00D-07 GrdErr=1.00D-07
 Number of steps in this run=  20 maximum allowed number of steps= 100.
 GradGradGradGradGradGradGradGradGradGradGradGradGradGradGradGradGradGrad

 ---------------------------------------------------------------------------------------------------
                            Z-MATRIX (ANGSTROMS AND DEGREES)
   CD    Cent   Atom    N1       Length/X        N2       Alpha/Y        N3        Beta/Z          J
 ---------------------------------------------------------------------------------------------------
      1      1  F       -1  -1.969300          2.053680          0.000070
      2      2  C       -1  -1.222250          0.944230          0.000030
      3      3  C       -1   0.140030          1.057400         -0.000020
      4      4  C       -1   0.927950         -0.123640         -0.000080
      5      5  C       -1   2.414660         -0.018650         -0.000010
      6      6  F       -1   3.007080         -1.234610         -0.000560
      7      7  F       -1   2.858290          0.654480         -1.086020
      8      8  F       -1   2.858270          0.653500          1.086650
      9      9  C       -1   0.306540         -1.341490         -0.000090
     10     10  N       -1  -1.054170         -1.389970         -0.000060
     11     11  C       -1  -1.930500         -0.312100          0.000000
     12     12  S       -1  -3.570980         -0.506610          0.000030
     13     13  H       -1   0.596860          2.043100         -0.000020
     14     14  H       -1   0.831760         -2.288990         -0.000150
     15     15  H       -1  -1.521480         -2.296390         -0.000090
     16         X        7   1.000000(    15)      5   90.000(    34)      4    0.000(    52)      0
     17         X       16   1.000000(    16)      7   90.000(    35)      5    0.000(    53)      0
     18     16  H        7   2.379000(    17)     16   90.000(    36)     17  180.000(    54)      0
     19         X       18   1.000000(    18)      7   90.000(    37)     16    0.000(    55)      0
     20     17  O       18   0.957200(    19)     19   90.000(    38)      7  180.000(    56)      0
     21     18  H       20   0.957200(    20)     18  104.520(    39)     16   90.000(    57)      0
 ---------------------------------------------------------------------------------------------------
                         Z-Matrix orientation:                         
 ---------------------------------------------------------------------
 Center     Atomic      Atomic             Coordinates (Angstroms)
 Number     Number       Type             X           Y           Z
 ---------------------------------------------------------------------
      1          9           0       -1.969300    2.053680    0.000070
      2          6           0       -1.222250    0.944230    0.000030
      3          6           0        0.140030    1.057400   -0.000020
      4          6           0        0.927950   -0.123640   -0.000080
      5          6           0        2.414660   -0.018650   -0.000010
      6          9           0        3.007080   -1.234610   -0.000560
      7          9           0        2.858290    0.654480   -1.086020
      8          9           0        2.858270    0.653500    1.086650
      9          6           0        0.306540   -1.341490   -0.000090
     10          7           0       -1.054170   -1.389970   -0.000060
     11          6           0       -1.930500   -0.312100    0.000000
     12         16           0       -3.570980   -0.506610    0.000030
     13          1           0        0.596860    2.043100   -0.000020
     14          1           0        0.831760   -2.288990   -0.000150
     15          1           0       -1.521480   -2.296390   -0.000090
     16         -1           0        1.915565    0.772301   -1.398091
     17         -1           0        1.587564    0.274618   -0.595142
     18          1           0        3.638604    1.838468   -2.996235
     19         -1           0        2.695879    1.956289   -3.308306
     20          8           0        3.952566    2.314851   -3.764818
     21          1           0        3.975029    3.230557   -3.486952
 ---------------------------------------------------------------------
                    Distance matrix (angstroms):
                    1          2          3          4          5
     1  F    0.000000
     2  C    1.337521   0.000000
     3  C    2.332777   1.366973   0.000000
     4  C    3.624194   2.400772   1.419744   0.000000
     5  C    4.849088   3.762214   2.516312   1.490413   0.000000
     6  F    5.964663   4.757581   3.670597   2.357337   1.352598
     7  F    5.142274   4.232525   2.954772   2.347541   1.352527
     8  F    5.142625   4.232719   2.955134   2.347566   1.352555
     9  C    4.087374   2.749857   2.404662   1.367227   2.488790
    10  N    3.563171   2.340244   2.723184   2.352104   3.730054
    11  C    2.366098   1.442215   2.482463   2.864656   4.355058
    12  S    3.020011   2.760701   4.027123   4.515201   6.005497
    13  H    2.566182   2.125247   1.086415   2.191890   2.748674
    14  H    5.167661   3.830492   3.417136   2.167485   2.767673
    15  H    4.373060   3.254406   3.742796   3.274225   4.547669
    16  X    4.323073   3.439504   2.277808   1.931975   1.682061
    17  X    4.021271   2.949181   1.749935   0.973550   1.060318
    18  H    6.361820   5.779721   4.671980   4.491599   3.731527
    19  X    5.720029   5.226958   4.276111   4.289061   3.863197
    20  O    7.022186   6.544571   5.503664   5.409972   4.688727
    21  H    6.991381   6.663185   5.620367   5.717832   5.015063
                    6          7          8          9         10
     6  F    0.000000
     7  F    2.183809   0.000000
     8  F    2.183834   2.172670   0.000000
     9  C    2.702654   3.416807   3.416477   0.000000
    10  N    4.064221   4.546034   4.545756   1.361573   0.000000
    11  C    5.023019   5.004620   5.004549   2.462517   1.389157
    12  S    6.618222   6.622926   6.622828   3.966382   2.667332
    13  H    4.068482   2.867355   2.868068   3.397019   3.809445
    14  H    2.417382   3.734964   3.734451   1.083334   2.089251
    15  H    4.651369   5.391592   5.391203   2.062399   1.019792
    16  X    2.678094   1.000000   2.660215   3.001913   3.930551
    17  X    2.155533   1.414214   2.141651   2.146372   3.178637
    18  H    4.337822   2.379000   4.322386   5.494695   6.435993
    19  X    4.606503   2.580628   4.586859   5.246769   6.017044
    20  O    5.259492   3.336200   5.243502   6.390267   7.277809
    21  H    5.747136   3.694287   5.367142   6.820530   7.668150
                   11         12         13         14         15
    11  C    0.000000
    12  S    1.651971   0.000000
    13  H    3.454637   4.885889   0.000000
    14  H    3.396789   4.749842   4.338454   0.000000
    15  H    2.026007   2.720986   4.828927   2.353252   0.000000
    16  X    4.233533   5.804527   2.304022   3.535587   4.815034
    17  X    3.615966   5.251202   2.112627   2.738127   4.078030
    18  H    6.679617   8.152000   4.274504   5.821582   7.259505
    19  X    6.123223   7.502299   3.918951   5.695721   6.842200
    20  O    7.462251   8.873470   5.050576   6.716212   8.087144
    21  H    7.719101   9.114149   4.998077   7.245918   8.539143
                   16         17         18         19         20
    16  X    0.000000
    17  X    1.000000   0.000000
    18  H    2.580628   3.523867   0.000000
    19  X    2.379000   3.379000   1.000000   0.000000
    20  O    3.482848   4.450015   0.957200   1.384280   0.000000
    21  H    3.827238   4.774948   1.513901   1.814358   0.957200
                   21
    21  H    0.000000
 Symmetry turned off by external request.
 Stoichiometry    C6H5F4NOS
 Framework group  C1[X(C6H5F4NOS)]
 Deg. of freedom    48
 Full point group                 C1      NOp   1
 Rotational constants (GHZ):      0.9915186      0.3171499      0.2775925
 Standard basis: 6-31G(d) (6D, 7F)
 Integral buffers will be    131072 words long.
 Raffenetti 1 integral format.
 Two-electron integral symmetry is turned off.
   209 basis functions,   408 primitive gaussians,   209 cartesian basis functions
    54 alpha electrons       54 beta electrons
       nuclear repulsion energy       903.0726424614 Hartrees.
 NAtoms=   18 NActive=   18 NUniq=   18 SFac= 7.50D-01 NAtFMM=   80 NAOKFM=F Big=F
 One-electron integrals computed using PRISM.
 NBasis=   209 RedAO= T  NBF=   209
 NBsUse=   209 1.00D-06 NBFU=   209
 Harris functional with IExCor=  205 diagonalized for initial guess.
 ExpMin= 1.17D-01 ExpMax= 2.19D+04 ExpMxC= 3.30D+03 IAcc=1 IRadAn=         1 AccDes= 0.00D+00
 HarFok:  IExCor=  205 AccDes= 0.00D+00 IRadAn=         1 IDoV= 1
 ScaDFX=  1.000000  1.000000  1.000000  1.000000
 FoFCou: FMM=F IPFlag=           0 FMFlag=      100000 FMFlg1=           0
         NFxFlg=           0 DoJE=T BraDBF=F KetDBF=T FulRan=T
         Omega=  0.000000  0.000000  1.000000  0.000000  0.000000 ICntrl=     500 IOpCl=  0
         NMat0=    1 NMatS0=    1 NMatT0=    0 NMatD0=    1 NMtDS0=    0 NMtDT0=    0
         I1Cent=           4 NGrid=           0.
 Symmetry not used in FoFCou.
 Requested convergence on RMS density matrix=1.00D-08 within 128 cycles.
 Requested convergence on MAX density matrix=1.00D-06.
 Requested convergence on             energy=1.00D-06.
 No special actions if energy rises.
 Integral accuracy reduced to 1.0D-05 until final iterations.
 Initial convergence to 1.0D-05 achieved.  Increase integral accuracy.
 SCF Done:  E(RHF) =  -1154.67427783     A.U. after   15 cycles
             Convg  =    0.5563D-08             -V/T =  2.0019

 **********************************************************************

            Population analysis using the SCF density.

 **********************************************************************

 Alpha  occ. eigenvalues --  -91.90730 -26.37439 -26.37310 -26.36583 -26.33724
 Alpha  occ. eigenvalues --  -20.55722 -15.68991 -11.54989 -11.38096 -11.37501
 Alpha  occ. eigenvalues --  -11.36500 -11.31575 -11.30710  -8.91817  -6.60144
 Alpha  occ. eigenvalues --   -6.59869  -6.59742  -1.74957  -1.65937  -1.65338
 Alpha  occ. eigenvalues --   -1.64975  -1.35828  -1.33914  -1.17529  -1.12366
 Alpha  occ. eigenvalues --   -1.03506  -0.97665  -0.93058  -0.88601  -0.85386
 Alpha  occ. eigenvalues --   -0.84522  -0.84259  -0.77411  -0.76273  -0.74204
 Alpha  occ. eigenvalues --   -0.73172  -0.72354  -0.71596  -0.70617  -0.70437
 Alpha  occ. eigenvalues --   -0.68475  -0.68229  -0.67012  -0.64438  -0.62804
 Alpha  occ. eigenvalues --   -0.61166  -0.59817  -0.56834  -0.52839  -0.49526
 Alpha  occ. eigenvalues --   -0.46940  -0.43544  -0.34350  -0.31250
 Alpha virt. eigenvalues --    0.04185   0.08377   0.17417   0.21460   0.24101
 Alpha virt. eigenvalues --    0.24957   0.26142   0.26243   0.29178   0.31236
 Alpha virt. eigenvalues --    0.33588   0.35074   0.38951   0.40836   0.42218
 Alpha virt. eigenvalues --    0.43671   0.46388   0.49170   0.53847   0.55209
 Alpha virt. eigenvalues --    0.56475   0.59466   0.60944   0.64057   0.66339
 Alpha virt. eigenvalues --    0.67383   0.71573   0.72736   0.73217   0.75035
 Alpha virt. eigenvalues --    0.76863   0.77575   0.82616   0.84190   0.87186
 Alpha virt. eigenvalues --    0.88727   0.89514   0.91866   0.95366   0.99511
 Alpha virt. eigenvalues --    1.01893   1.02348   1.02559   1.04276   1.07181
 Alpha virt. eigenvalues --    1.08959   1.09512   1.12416   1.13313   1.14959
 Alpha virt. eigenvalues --    1.15771   1.16998   1.17240   1.18185   1.24134
 Alpha virt. eigenvalues --    1.28021   1.28966   1.30967   1.32658   1.33885
 Alpha virt. eigenvalues --    1.34447   1.36779   1.40910   1.41755   1.42062
 Alpha virt. eigenvalues --    1.44485   1.47081   1.51722   1.59570   1.60018
 Alpha virt. eigenvalues --    1.60904   1.62771   1.63201   1.63900   1.64636
 Alpha virt. eigenvalues --    1.65620   1.67076   1.69306   1.69751   1.71609
 Alpha virt. eigenvalues --    1.72963   1.75930   1.76607   1.80922   1.86168
 Alpha virt. eigenvalues --    1.91066   1.91917   1.93289   1.99434   2.02307
 Alpha virt. eigenvalues --    2.03625   2.04040   2.05486   2.07017   2.08598
 Alpha virt. eigenvalues --    2.09717   2.11399   2.12190   2.17673   2.19916
 Alpha virt. eigenvalues --    2.22020   2.22110   2.24156   2.27974   2.29300
 Alpha virt. eigenvalues --    2.29922   2.32332   2.33363   2.34167   2.35305
 Alpha virt. eigenvalues --    2.37527   2.38776   2.42886   2.44579   2.45298
 Alpha virt. eigenvalues --    2.46628   2.51881   2.60312   2.61609   2.63469
 Alpha virt. eigenvalues --    2.65060   2.67771   2.74730   2.82469   2.84185
 Alpha virt. eigenvalues --    2.84265   2.90863   2.92505   2.92944   2.94978
 Alpha virt. eigenvalues --    2.99834   3.06668   3.09168   3.16796   3.21684
 Alpha virt. eigenvalues --    3.29119   3.37189   3.38414   3.42570   3.44791
 Alpha virt. eigenvalues --    3.49124   3.70848   4.02054   4.36084   4.39800
 Alpha virt. eigenvalues --    4.44717   4.47921   4.59760   4.63814   4.72391
 Alpha virt. eigenvalues --    4.81696   5.02501   5.16323   5.57439   6.02475
          Condensed to atoms (all electrons):
              1          2          3          4          5          6
     1  F    9.159254   0.267923  -0.033733   0.002213  -0.000015   0.000000
     2  C    0.267923   4.574339   0.570350  -0.026156   0.000802  -0.000019
     3  C   -0.033733   0.570350   5.068325   0.352590  -0.012411   0.002180
     4  C    0.002213  -0.026156   0.352590   5.206381   0.419019  -0.045271
     5  C   -0.000015   0.000802  -0.012411   0.419019   3.551953   0.290885
     6  F    0.000000  -0.000019   0.002180  -0.045271   0.290885   9.183225
     7  F    0.000000   0.000294   0.005135  -0.054353   0.273959  -0.030202
     8  F    0.000000   0.000293   0.005092  -0.055556   0.285665  -0.030740
     9  C    0.000133  -0.023086  -0.054404   0.592311  -0.020996   0.005363
    10  N    0.001382  -0.053258  -0.021257  -0.035649   0.001230   0.000237
    11  C   -0.040724   0.377441  -0.079094  -0.001326   0.000082   0.000002
    12  S    0.003490  -0.083467   0.001602  -0.000046   0.000006   0.000000
    13  H   -0.000276  -0.016837   0.368950  -0.031081  -0.000257   0.000035
    14  H    0.000000  -0.000112   0.001794  -0.022690  -0.000145   0.004957
    15  H   -0.000018   0.003850  -0.000568   0.002342  -0.000016   0.000001
    16  H    0.000000   0.000000   0.000007   0.000065   0.000074   0.000010
    17  O    0.000000   0.000000   0.000000  -0.000003   0.000009   0.000000
    18  H    0.000000   0.000000   0.000000   0.000000   0.000000   0.000000
              7          8          9         10         11         12
     1  F    0.000000   0.000000   0.000133   0.001382  -0.040724   0.003490
     2  C    0.000294   0.000293  -0.023086  -0.053258   0.377441  -0.083467
     3  C    0.005135   0.005092  -0.054404  -0.021257  -0.079094   0.001602
     4  C   -0.054353  -0.055556   0.592311  -0.035649  -0.001326  -0.000046
     5  C    0.273959   0.285665  -0.020996   0.001230   0.000082   0.000006
     6  F   -0.030202  -0.030740   0.005363   0.000237   0.000002   0.000000
     7  F    9.210163  -0.033521   0.000489  -0.000005  -0.000002   0.000000
     8  F   -0.033521   9.198699   0.000509  -0.000006  -0.000002   0.000000
     9  C    0.000489   0.000509   4.731048   0.267022  -0.038396   0.003299
    10  N   -0.000005  -0.000006   0.267022   7.234933   0.211652  -0.104369
    11  C   -0.000002  -0.000002  -0.038396   0.211652   4.956054   0.447421
    12  S    0.000000   0.000000   0.003299  -0.104369   0.447421  15.944083
    13  H    0.000898   0.000900   0.002423  -0.000263   0.002650  -0.000057
    14  H    0.000082   0.000083   0.379806  -0.031823   0.000957  -0.000131
    15  H    0.000000   0.000000  -0.021453   0.309790  -0.017813   0.013692
    16  H    0.008197   0.000012   0.000000   0.000000   0.000000   0.000000
    17  O   -0.000678   0.000000   0.000000   0.000000   0.000000   0.000000
    18  H   -0.000022   0.000000   0.000000   0.000000   0.000000   0.000000
             13         14         15         16         17         18
     1  F   -0.000276   0.000000  -0.000018   0.000000   0.000000   0.000000
     2  C   -0.016837  -0.000112   0.003850   0.000000   0.000000   0.000000
     3  C    0.368950   0.001794  -0.000568   0.000007   0.000000   0.000000
     4  C   -0.031081  -0.022690   0.002342   0.000065  -0.000003   0.000000
     5  C   -0.000257  -0.000145  -0.000016   0.000074   0.000009   0.000000
     6  F    0.000035   0.004957   0.000001   0.000010   0.000000   0.000000
     7  F    0.000898   0.000082   0.000000   0.008197  -0.000678  -0.000022
     8  F    0.000900   0.000083   0.000000   0.000012   0.000000   0.000000
     9  C    0.002423   0.379806  -0.021453   0.000000   0.000000   0.000000
    10  N   -0.000263  -0.031823   0.309790   0.000000   0.000000   0.000000
    11  C    0.002650   0.000957  -0.017813   0.000000   0.000000   0.000000
    12  S   -0.000057  -0.000131   0.013692   0.000000   0.000000   0.000000
    13  H    0.396619  -0.000063   0.000008   0.000002   0.000000   0.000000
    14  H   -0.000063   0.379839  -0.002111   0.000000   0.000000   0.000000
    15  H    0.000008  -0.002111   0.269644   0.000000   0.000000   0.000000
    16  H    0.000002   0.000000   0.000000   0.310398   0.262189  -0.018522
    17  O    0.000000   0.000000   0.000000   0.262189   8.350155   0.265434
    18  H    0.000000   0.000000   0.000000  -0.018522   0.265434   0.322323
 Mulliken atomic charges:
              1
     1  F   -0.359631
     2  C    0.407645
     3  C   -0.174558
     4  C   -0.302788
     5  C    1.210156
     6  F   -0.380662
     7  F   -0.380433
     8  F   -0.371427
     9  C    0.175934
    10  N   -0.779617
    11  C    0.181099
    12  S   -0.225523
    13  H    0.276348
    14  H    0.289556
    15  H    0.442652
    16  H    0.437568
    17  O   -0.877107
    18  H    0.430788
 Sum of Mulliken atomic charges =   0.00000
 Mulliken charges with hydrogens summed into heavy atoms:
              1
     1  F   -0.359631
     2  C    0.407645
     3  C    0.101790
     4  C   -0.302788
     5  C    1.210156
     6  F   -0.380662
     7  F   -0.380433
     8  F   -0.371427
     9  C    0.465490
    10  N   -0.336965
    11  C    0.181099
    12  S   -0.225523
    17  O   -0.008750
 Sum of Mulliken charges with hydrogens summed into heavy atoms =   0.00000
 Electronic spatial extent (au):  <R**2>=           3888.7620
 Charge=              0.0000 electrons
 Dipole moment (field-independent basis, Debye):
    X=              2.7240    Y=             -2.0083    Z=              2.1552  Tot=              4.0123
 Quadrupole moment (field-independent basis, Debye-Ang):
   XX=           -110.3174   YY=            -65.3272   ZZ=            -96.1726
   XY=              4.0100   XZ=              9.9341   YZ=              1.4673
 Traceless Quadrupole moment (field-independent basis, Debye-Ang):
   XX=            -19.7117   YY=             25.2785   ZZ=             -5.5668
   XY=              4.0100   XZ=              9.9341   YZ=              1.4673
 Octapole moment (field-independent basis, Debye-Ang**2):
  XXX=             -8.7460  YYY=            -25.5779  ZZZ=            148.0623  XYY=             18.7114
  XXY=             -7.7940  XXZ=             70.7690  XZZ=            -69.3965  YZZ=            -30.3875
  YYZ=             12.2464  XYZ=              7.5835
 Hexadecapole moment (field-independent basis, Debye-Ang**3):
 XXXX=          -3465.0776 YYYY=           -544.7234 ZZZZ=          -1037.7930 XXXY=           -226.2639
 XXXZ=            506.9371 YYYX=            -68.3723 YYYZ=             85.4273 ZZZX=            591.2403
 ZZZY=            290.8833 XXYY=           -569.5890 XXZZ=           -895.0152 YYZZ=           -226.7084
 XXYZ=             98.3878 YYXZ=             49.1276 ZZXY=           -156.8320
 N-N= 9.030726424614D+02 E-N=-4.543581381579D+03  KE= 1.152539035053D+03
 Calling FoFJK, ICntrl=      2127 FMM=F ISym2X=0 I1Cent= 0 IOpClX= 0 NMat=1 NMatS=1 NMatT=0.
 -------------------------------------------------------------------
 Center     Atomic                   Forces (Hartrees/Bohr)
 Number     Number              X              Y              Z
 -------------------------------------------------------------------
      1        9           0.000000000    0.000000000    0.000000000
      2        6           0.000000000    0.000000000    0.000000000
      3        6           0.000000000    0.000000000    0.000000000
      4        6           0.000000000    0.000000000    0.000000000
      5        6           0.000000000    0.000000000    0.000000000
      6        9           0.000000000    0.000000000    0.000000000
      7        9           0.000000000    0.000000000    0.000000000
      8        9           0.000000000    0.000000000    0.000000000
      9        6           0.000000000    0.000000000    0.000000000
     10        7           0.000000000    0.000000000    0.000000000
     11        6           0.000000000    0.000000000    0.000000000
     12       16           0.000000000    0.000000000    0.000000000
     13        1           0.000000000    0.000000000    0.000000000
     14        1           0.000000000    0.000000000    0.000000000
     15        1           0.000000000    0.000000000    0.000000000
     16        1           0.003982248    0.003906981   -0.009103623
     17        8          -0.004162645    0.005717720    0.013406323
     18        1           0.000364453   -0.009809725   -0.004278978
 -------------------------------------------------------------------
 Cartesian Forces:  Max     0.013406323 RMS     0.002913638
 -----------------------------------------------------------------------------------------------
                       Internal Coordinate Forces (Hartree/Bohr or radian)
  Cent   Atom   N1       Length/X         N2         Alpha/Y        N3         Beta/Z          J
 -----------------------------------------------------------------------------------------------
      1  F 
      2  C 
      3  C 
      4  C 
      5  C 
      6  F 
      7  F 
      8  F 
      9  C 
     10  N 
     11  C 
     12  S 
     13  H 
     14  H 
     15  H 
         X        7   0.000000(     1)      5   0.000533(     7)      4   0.000287(    13)     0
         X       16   0.000000(     2)      7   0.000000(     8)      5   0.000765(    14)     0
     16  H        7  -0.000051(     3)     16   0.000533(     9)     17  -0.000765(    15)     0
         X       18   0.000000(     4)      7  -0.000378(    10)     16   0.000000(    16)     0
     17  O       18  -0.010611(     5)     19  -0.000378(    11)      7   0.000629(    17)     0
     18  H       20  -0.010618(     6)     18   0.002495(    12)     16   0.000287(    18)     0
 -----------------------------------------------------------------------------------------------
 Internal  Forces:  Max     0.010618075 RMS     0.003606739

 GradGradGradGradGradGradGradGradGradGradGradGradGradGradGradGradGradGrad
 Berny optimization.
 Search for a local minimum.
 Step number   1 out of a maximum of   20
 All quantities printed in internal units (Hartrees-Bohrs-Radians)
 Second derivative matrix not updated -- first step.
 The second derivative matrix:
                          RX       RDUM       ROH      ADUM      AHOH
           RX           0.02437
           RDUM         0.00000   0.00000
           ROH          0.00000   0.00000   1.12160
           ADUM         0.00000   0.00000   0.00000   2.14731
           AHOH         0.00000   0.00000   0.00000   0.00000   0.16000
           DDUM         0.00000   0.00000   0.00000  -0.08024   0.00000
           DH1          0.00000   0.00000   0.00000   0.08024   0.00000
           DOH2         0.00000   0.00000   0.00000   0.12538   0.00000
           DH2          0.00000   0.00000   0.00000   0.00000   0.00000
                         DDUM       DH1      DOH2       DH2
           DDUM         0.18247
           DH1         -0.18247   0.18247
           DOH2         0.00000   0.00000   0.28511
           DH2          0.00000   0.00000   0.00000   0.00000
     Eigenvalues ---    0.024371000.000001000.000001000.000001000.00000
     Eigenvalues --- 1000.000001000.000001000.000001000.00000
 RFO step:  Lambda=-1.05723498D-07 EMin= 2.43723404D-02
 Linear search not attempted -- first point.
 Variable       Old X    -DE/DX   Delta X   Delta X   Delta X     New X
                                 (Linear)    (Quad)   (Total)
    RX        4.49566  -0.00005   0.00000  -0.00208  -0.00208   4.49358
   RDUM       1.88973   0.00000   0.00000   0.00000   0.00000   1.88973
   ROH        1.80885  -0.02123   0.00000   0.00000   0.00000   1.80885
   ADUM       1.57080   0.00031   0.00000   0.00000   0.00000   1.57080
   AHOH       1.82422   0.00250   0.00000   0.00000   0.00000   1.82422
   DDUM       0.00000   0.00105   0.00000   0.00000   0.00000   0.00000
   DH1        3.14159  -0.00077   0.00000   0.00000   0.00000   3.14159
   DOH2       3.14159   0.00063   0.00000   0.00000   0.00000   3.14159
   DH2        1.57080   0.00029   0.00000   0.00000   0.00000   1.57080
         Item               Value     Threshold  Converged?
 Maximum Force            0.000051     0.000450     YES
 RMS     Force            0.000051     0.000300     YES
 Maximum Displacement     0.002083     0.001800     NO 
 RMS     Displacement     0.000694     0.001200     YES
 Predicted change in Energy=-5.286175D-08
 GradGradGradGradGradGradGradGradGradGradGradGradGradGradGradGradGradGrad

 ---------------------------------------------------------------------------------------------------
                            Z-MATRIX (ANGSTROMS AND DEGREES)
   CD    Cent   Atom    N1       Length/X        N2       Alpha/Y        N3        Beta/Z          J
 ---------------------------------------------------------------------------------------------------
      1      1  F       -1  -1.969300          2.053680          0.000070
      2      2  C       -1  -1.222250          0.944230          0.000030
      3      3  C       -1   0.140030          1.057400         -0.000020
      4      4  C       -1   0.927950         -0.123640         -0.000080
      5      5  C       -1   2.414660         -0.018650         -0.000010
      6      6  F       -1   3.007080         -1.234610         -0.000560
      7      7  F       -1   2.858290          0.654480         -1.086020
      8      8  F       -1   2.858270          0.653500          1.086650
      9      9  C       -1   0.306540         -1.341490         -0.000090
     10     10  N       -1  -1.054170         -1.389970         -0.000060
     11     11  C       -1  -1.930500         -0.312100          0.000000
     12     12  S       -1  -3.570980         -0.506610          0.000030
     13     13  H       -1   0.596860          2.043100         -0.000020
     14     14  H       -1   0.831760         -2.288990         -0.000150
     15     15  H       -1  -1.521480         -2.296390         -0.000090
     16         X        7   1.000000(    15)      5   90.000(    34)      4    0.000(    52)      0
     17         X       16   1.000000(    16)      7   90.000(    35)      5    0.000(    53)      0
     18     16  H        7   2.377898(    17)     16   90.000(    36)     17  180.000(    54)      0
     19         X       18   1.000000(    18)      7   90.000(    37)     16    0.000(    55)      0
     20     17  O       18   0.957200(    19)     19   90.000(    38)      7  180.000(    56)      0
     21     18  H       20   0.957200(    20)     18  104.520(    39)     16   90.000(    57)      0
 ---------------------------------------------------------------------------------------------------
                         Z-Matrix orientation:                         
 ---------------------------------------------------------------------
 Center     Atomic      Atomic             Coordinates (Angstroms)
 Number     Number       Type             X           Y           Z
 ---------------------------------------------------------------------
      1          9           0       -1.969300    2.053680    0.000070
      2          6           0       -1.222250    0.944230    0.000030
      3          6           0        0.140030    1.057400   -0.000020
      4          6           0        0.927950   -0.123640   -0.000080
      5          6           0        2.414660   -0.018650   -0.000010
      6          9           0        3.007080   -1.234610   -0.000560
      7          9           0        2.858290    0.654480   -1.086020
      8          9           0        2.858270    0.653500    1.086650
      9          6           0        0.306540   -1.341490   -0.000090
     10          7           0       -1.054170   -1.389970   -0.000060
     11          6           0       -1.930500   -0.312100    0.000000
     12         16           0       -3.570980   -0.506610    0.000030
     13          1           0        0.596860    2.043100   -0.000020
     14          1           0        0.831760   -2.288990   -0.000150
     15          1           0       -1.521480   -2.296390   -0.000090
     16         -1           0        1.915565    0.772301   -1.398091
     17         -1           0        1.587564    0.274618   -0.595142
     18          1           0        3.638243    1.837920   -2.995350
     19         -1           0        2.695518    1.955741   -3.307421
     20          8           0        3.952205    2.314302   -3.763933
     21          1           0        3.974667    3.230008   -3.486067
 ---------------------------------------------------------------------
                    Distance matrix (angstroms):
                    1          2          3          4          5
     1  F    0.000000
     2  C    1.337521   0.000000
     3  C    2.332777   1.366973   0.000000
     4  C    3.624194   2.400772   1.419744   0.000000
     5  C    4.849088   3.762214   2.516312   1.490413   0.000000
     6  F    5.964663   4.757581   3.670597   2.357337   1.352598
     7  F    5.142274   4.232525   2.954772   2.347541   1.352527
     8  F    5.142625   4.232719   2.955134   2.347566   1.352555
     9  C    4.087374   2.749857   2.404662   1.367227   2.488790
    10  N    3.563171   2.340244   2.723184   2.352104   3.730054
    11  C    2.366098   1.442215   2.482463   2.864656   4.355058
    12  S    3.020011   2.760701   4.027123   4.515201   6.005497
    13  H    2.566182   2.125247   1.086415   2.191890   2.748674
    14  H    5.167661   3.830492   3.417136   2.167485   2.767673
    15  H    4.373060   3.254406   3.742796   3.274225   4.547669
    16  X    4.323073   3.439504   2.277808   1.931975   1.682061
    17  X    4.021271   2.949181   1.749935   0.973550   1.060318
    18  H    6.361103   5.778873   4.671050   4.490551   3.730425
    19  X    5.719232   5.226021   4.275095   4.287963   3.862133
    20  O    7.021386   6.543661   5.502683   5.408907   4.687625
    21  H    6.990540   6.662252   5.619359   5.716778   5.013980
                    6          7          8          9         10
     6  F    0.000000
     7  F    2.183809   0.000000
     8  F    2.183834   2.172670   0.000000
     9  C    2.702654   3.416807   3.416477   0.000000
    10  N    4.064221   4.546034   4.545756   1.361573   0.000000
    11  C    5.023019   5.004620   5.004549   2.462517   1.389157
    12  S    6.618222   6.622926   6.622828   3.966382   2.667332
    13  H    4.068482   2.867355   2.868068   3.397019   3.809445
    14  H    2.417382   3.734964   3.734451   1.083334   2.089251
    15  H    4.651369   5.391592   5.391203   2.062399   1.019792
    16  X    2.678094   1.000000   2.660215   3.001913   3.930551
    17  X    2.155533   1.414214   2.141651   2.146372   3.178637
    18  H    4.336770   2.377898   4.321335   5.493676   6.435043
    19  X    4.605512   2.579612   4.585868   5.245702   6.016027
    20  O    5.258423   3.335098   5.242434   6.389226   7.276824
    21  H    5.746112   3.693220   5.366049   6.819515   7.667180
                   11         12         13         14         15
    11  C    0.000000
    12  S    1.651971   0.000000
    13  H    3.454637   4.885889   0.000000
    14  H    3.396789   4.749842   4.338454   0.000000
    15  H    2.026007   2.720986   4.828927   2.353252   0.000000
    16  X    4.233533   5.804527   2.304022   3.535587   4.815034
    17  X    3.615966   5.251202   2.112627   2.738127   4.078030
    18  H    6.678743   8.151197   4.273653   5.820563   7.258570
    19  X    6.122269   7.501427   3.918022   5.694680   6.841208
    20  O    7.461327   8.872614   5.049647   6.715172   8.086175
    21  H    7.718173   9.113286   4.997085   7.244917   8.538194
                   16         17         18         19         20
    16  X    0.000000
    17  X    1.000000   0.000000
    18  H    2.579612   3.522811   0.000000
    19  X    2.377898   3.377898   1.000000   0.000000
    20  O    3.481792   4.448941   0.957200   1.384280   0.000000
    21  H    3.826208   4.773892   1.513901   1.814358   0.957200
                   21
    21  H    0.000000
 Symmetry turned off by external request.
 Stoichiometry    C6H5F4NOS
 Framework group  C1[X(C6H5F4NOS)]
 Deg. of freedom    48
 Full point group                 C1      NOp   1
 Rotational constants (GHZ):      0.9917068      0.3171727      0.2776203
 Standard basis: 6-31G(d) (6D, 7F)
 Integral buffers will be    131072 words long.
 Raffenetti 1 integral format.
 Two-electron integral symmetry is turned off.
   209 basis functions,   408 primitive gaussians,   209 cartesian basis functions
    54 alpha electrons       54 beta electrons
       nuclear repulsion energy       903.0903017669 Hartrees.
 NAtoms=   18 NActive=   18 NUniq=   18 SFac= 7.50D-01 NAtFMM=   80 NAOKFM=F Big=F
 One-electron integrals computed using PRISM.
 NBasis=   209 RedAO= T  NBF=   209
 NBsUse=   209 1.00D-06 NBFU=   209
 Initial guess read from the read-write file.
 B after Tr=     0.000000    0.000000    0.000000
         Rot=    1.000000    0.000000    0.000000    0.000000 Ang=   0.00 deg.
 Requested convergence on RMS density matrix=1.00D-08 within 128 cycles.
 Requested convergence on MAX density matrix=1.00D-06.
 Requested convergence on             energy=1.00D-06.
 No special actions if energy rises.
 SCF Done:  E(RHF) =  -1154.67427793     A.U. after    4 cycles
             Convg  =    0.8350D-08             -V/T =  2.0019
 Calling FoFJK, ICntrl=      2127 FMM=F ISym2X=0 I1Cent= 0 IOpClX= 0 NMat=1 NMatS=1 NMatT=0.
 -------------------------------------------------------------------
 Center     Atomic                   Forces (Hartrees/Bohr)
 Number     Number              X              Y              Z
 -------------------------------------------------------------------
      1        9           0.000000000    0.000000000    0.000000000
      2        6           0.000000000    0.000000000    0.000000000
      3        6           0.000000000    0.000000000    0.000000000
      4        6           0.000000000    0.000000000    0.000000000
      5        6           0.000000000    0.000000000    0.000000000
      6        9           0.000000000    0.000000000    0.000000000
      7        9           0.000000000    0.000000000    0.000000000
      8        9           0.000000000    0.000000000    0.000000000
      9        6           0.000000000    0.000000000    0.000000000
     10        7           0.000000000    0.000000000    0.000000000
     11        6           0.000000000    0.000000000    0.000000000
     12       16           0.000000000    0.000000000    0.000000000
     13        1           0.000000000    0.000000000    0.000000000
     14        1           0.000000000    0.000000000    0.000000000
     15        1           0.000000000    0.000000000    0.000000000
     16        1           0.003984020    0.003908476   -0.009107156
     17        8          -0.004163166    0.005718307    0.013406935
     18        1           0.000364748   -0.009809902   -0.004279426
 -------------------------------------------------------------------
 Cartesian Forces:  Max     0.013406935 RMS     0.002914035
 -----------------------------------------------------------------------------------------------
                       Internal Coordinate Forces (Hartree/Bohr or radian)
  Cent   Atom   N1       Length/X         N2         Alpha/Y        N3         Beta/Z          J
 -----------------------------------------------------------------------------------------------
      1  F 
      2  C 
      3  C 
      4  C 
      5  C 
      6  F 
      7  F 
      8  F 
      9  C 
     10  N 
     11  C 
     12  S 
     13  H 
     14  H 
     15  H 
         X        7   0.000000(     1)      5   0.000533(     7)      4   0.000287(    13)     0
         X       16   0.000000(     2)      7   0.000000(     8)      5   0.000766(    14)     0
     16  H        7  -0.000047(     3)     16   0.000533(     9)     17  -0.000766(    15)     0
         X       18   0.000000(     4)      7  -0.000378(    10)     16   0.000000(    16)     0
     17  O       18  -0.010611(     5)     19  -0.000378(    11)      7   0.000629(    17)     0
     18  H       20  -0.010618(     6)     18   0.002496(    12)     16   0.000287(    18)     0
 -----------------------------------------------------------------------------------------------
 Internal  Forces:  Max     0.010618368 RMS     0.003606836

 GradGradGradGradGradGradGradGradGradGradGradGradGradGradGradGradGradGrad
 Berny optimization.
 Search for a local minimum.
 Step number   2 out of a maximum of   20
 All quantities printed in internal units (Hartrees-Bohrs-Radians)
 Update second derivatives using D2CorN and points    2
 DE= -1.01D-07 DEPred=-5.29D-08 R= 1.92D+00
 Trust test= 1.92D+00 RLast= 2.08D-03 DXMaxT set to 3.00D-01
 The second derivative matrix:
                          RX       RDUM       ROH      ADUM      AHOH
           RX           0.02437
           RDUM         0.00000   0.00000
           ROH          0.00000   0.00000   1.12160
           ADUM         0.00000   0.00000   0.00000   2.14731
           AHOH         0.00000   0.00000   0.00000   0.00000   0.16000
           DDUM         0.00000   0.00000   0.00000  -0.08024   0.00000
           DH1          0.00000   0.00000   0.00000   0.08024   0.00000
           DOH2         0.00000   0.00000   0.00000   0.12538   0.00000
           DH2          0.00000   0.00000   0.00000   0.00000   0.00000
                         DDUM       DH1      DOH2       DH2
           DDUM         0.18247
           DH1         -0.18247   0.18247
           DOH2         0.00000   0.00000   0.28511
           DH2          0.00000   0.00000   0.00000   0.00000
     Eigenvalues ---    0.024371000.000001000.000001000.000001000.00000
     Eigenvalues --- 1000.000001000.000001000.000001000.00000
 RFO step:  Lambda= 0.00000000D+00 EMin= 2.43723404D-02
 Quartic linear search produced a step of  2.00000.
 Variable       Old X    -DE/DX   Delta X   Delta X   Delta X     New X
                                 (Linear)    (Quad)   (Total)
    RX        4.49358  -0.00005  -0.00417   0.00000  -0.00417   4.48941
   RDUM       1.88973   0.00000   0.00000   0.00000   0.00000   1.88973
   ROH        1.80885  -0.02123   0.00000   0.00000   0.00000   1.80885
   ADUM       1.57080   0.00031   0.00000   0.00000   0.00000   1.57080
   AHOH       1.82422   0.00250   0.00000   0.00000   0.00000   1.82422
   DDUM       0.00000   0.00105   0.00000   0.00000   0.00000   0.00000
   DH1        3.14159  -0.00077   0.00000   0.00000   0.00000   3.14159
   DOH2       3.14159   0.00063   0.00000   0.00000   0.00000   3.14159
   DH2        1.57080   0.00029   0.00000   0.00000   0.00000   1.57080
         Item               Value     Threshold  Converged?
 Maximum Force            0.000047     0.000450     YES
 RMS     Force            0.000047     0.000300     YES
 Maximum Displacement     0.004165     0.001800     NO 
 RMS     Displacement     0.001388     0.001200     NO 
 Predicted change in Energy=-1.733289D-08
 GradGradGradGradGradGradGradGradGradGradGradGradGradGradGradGradGradGrad

 ---------------------------------------------------------------------------------------------------
                            Z-MATRIX (ANGSTROMS AND DEGREES)
   CD    Cent   Atom    N1       Length/X        N2       Alpha/Y        N3        Beta/Z          J
 ---------------------------------------------------------------------------------------------------
      1      1  F       -1  -1.969300          2.053680          0.000070
      2      2  C       -1  -1.222250          0.944230          0.000030
      3      3  C       -1   0.140030          1.057400         -0.000020
      4      4  C       -1   0.927950         -0.123640         -0.000080
      5      5  C       -1   2.414660         -0.018650         -0.000010
      6      6  F       -1   3.007080         -1.234610         -0.000560
      7      7  F       -1   2.858290          0.654480         -1.086020
      8      8  F       -1   2.858270          0.653500          1.086650
      9      9  C       -1   0.306540         -1.341490         -0.000090
     10     10  N       -1  -1.054170         -1.389970         -0.000060
     11     11  C       -1  -1.930500         -0.312100          0.000000
     12     12  S       -1  -3.570980         -0.506610          0.000030
     13     13  H       -1   0.596860          2.043100         -0.000020
     14     14  H       -1   0.831760         -2.288990         -0.000150
     15     15  H       -1  -1.521480         -2.296390         -0.000090
     16         X        7   1.000000(    15)      5   90.000(    34)      4    0.000(    52)      0
     17         X       16   1.000000(    16)      7   90.000(    35)      5    0.000(    53)      0
     18     16  H        7   2.375694(    17)     16   90.000(    36)     17  180.000(    54)      0
     19         X       18   1.000000(    18)      7   90.000(    37)     16    0.000(    55)      0
     20     17  O       18   0.957200(    19)     19   90.000(    38)      7  180.000(    56)      0
     21     18  H       20   0.957200(    20)     18  104.520(    39)     16   90.000(    57)      0
 ---------------------------------------------------------------------------------------------------
                         Z-Matrix orientation:                         
 ---------------------------------------------------------------------
 Center     Atomic      Atomic             Coordinates (Angstroms)
 Number     Number       Type             X           Y           Z
 ---------------------------------------------------------------------
      1          9           0       -1.969300    2.053680    0.000070
      2          6           0       -1.222250    0.944230    0.000030
      3          6           0        0.140030    1.057400   -0.000020
      4          6           0        0.927950   -0.123640   -0.000080
      5          6           0        2.414660   -0.018650   -0.000010
      6          9           0        3.007080   -1.234610   -0.000560
      7          9           0        2.858290    0.654480   -1.086020
      8          9           0        2.858270    0.653500    1.086650
      9          6           0        0.306540   -1.341490   -0.000090
     10          7           0       -1.054170   -1.389970   -0.000060
     11          6           0       -1.930500   -0.312100    0.000000
     12         16           0       -3.570980   -0.506610    0.000030
     13          1           0        0.596860    2.043100   -0.000020
     14          1           0        0.831760   -2.288990   -0.000150
     15          1           0       -1.521480   -2.296390   -0.000090
     16         -1           0        1.915565    0.772301   -1.398091
     17         -1           0        1.587564    0.274618   -0.595142
     18          1           0        3.637520    1.836823   -2.993580
     19         -1           0        2.694795    1.954644   -3.305651
     20          8           0        3.951482    2.313205   -3.762163
     21          1           0        3.973944    3.228911   -3.484297
 ---------------------------------------------------------------------
                    Distance matrix (angstroms):
                    1          2          3          4          5
     1  F    0.000000
     2  C    1.337521   0.000000
     3  C    2.332777   1.366973   0.000000
     4  C    3.624194   2.400772   1.419744   0.000000
     5  C    4.849088   3.762214   2.516312   1.490413   0.000000
     6  F    5.964663   4.757581   3.670597   2.357337   1.352598
     7  F    5.142274   4.232525   2.954772   2.347541   1.352527
     8  F    5.142625   4.232719   2.955134   2.347566   1.352555
     9  C    4.087374   2.749857   2.404662   1.367227   2.488790
    10  N    3.563171   2.340244   2.723184   2.352104   3.730054
    11  C    2.366098   1.442215   2.482463   2.864656   4.355058
    12  S    3.020011   2.760701   4.027123   4.515201   6.005497
    13  H    2.566182   2.125247   1.086415   2.191890   2.748674
    14  H    5.167661   3.830492   3.417136   2.167485   2.767673
    15  H    4.373060   3.254406   3.742796   3.274225   4.547669
    16  X    4.323073   3.439504   2.277808   1.931975   1.682061
    17  X    4.021271   2.949181   1.749935   0.973550   1.060318
    18  H    6.359669   5.777178   4.669190   4.488455   3.728221
    19  X    5.717638   5.224146   4.273063   4.285768   3.860004
    20  O    7.019787   6.541842   5.500721   5.406776   4.685421
    21  H    6.988858   6.660386   5.617343   5.714670   5.011814
                    6          7          8          9         10
     6  F    0.000000
     7  F    2.183809   0.000000
     8  F    2.183834   2.172670   0.000000
     9  C    2.702654   3.416807   3.416477   0.000000
    10  N    4.064221   4.546034   4.545756   1.361573   0.000000
    11  C    5.023019   5.004620   5.004549   2.462517   1.389157
    12  S    6.618222   6.622926   6.622828   3.966382   2.667332
    13  H    4.068482   2.867355   2.868068   3.397019   3.809445
    14  H    2.417382   3.734964   3.734451   1.083334   2.089251
    15  H    4.651369   5.391592   5.391203   2.062399   1.019792
    16  X    2.678094   1.000000   2.660215   3.001913   3.930551
    17  X    2.155533   1.414214   2.141651   2.146372   3.178637
    18  H    4.334665   2.375694   4.319232   5.491637   6.433141
    19  X    4.603530   2.577580   4.583886   5.243567   6.013993
    20  O    5.256286   3.332894   5.240298   6.387143   7.274852
    21  H    5.744064   3.691086   5.363864   6.817487   7.665240
                   11         12         13         14         15
    11  C    0.000000
    12  S    1.651971   0.000000
    13  H    3.454637   4.885889   0.000000
    14  H    3.396789   4.749842   4.338454   0.000000
    15  H    2.026007   2.720986   4.828927   2.353252   0.000000
    16  X    4.233533   5.804527   2.304022   3.535587   4.815034
    17  X    3.615966   5.251202   2.112627   2.738127   4.078030
    18  H    6.676993   8.149592   4.271951   5.818526   7.256701
    19  X    6.120360   7.499682   3.916166   5.692597   6.839225
    20  O    7.459478   8.870901   5.047788   6.713092   8.084236
    21  H    7.716317   9.111561   4.995101   7.242916   8.536296
                   16         17         18         19         20
    16  X    0.000000
    17  X    1.000000   0.000000
    18  H    2.577580   3.520697   0.000000
    19  X    2.375694   3.375694   1.000000   0.000000
    20  O    3.479681   4.446793   0.957200   1.384280   0.000000
    21  H    3.824149   4.771779   1.513901   1.814358   0.957200
                   21
    21  H    0.000000
 Symmetry turned off by external request.
 Stoichiometry    C6H5F4NOS
 Framework group  C1[X(C6H5F4NOS)]
 Deg. of freedom    48
 Full point group                 C1      NOp   1
 Rotational constants (GHZ):      0.9920834      0.3172183      0.2776758
 Standard basis: 6-31G(d) (6D, 7F)
 Integral buffers will be    131072 words long.
 Raffenetti 1 integral format.
 Two-electron integral symmetry is turned off.
   209 basis functions,   408 primitive gaussians,   209 cartesian basis functions
    54 alpha electrons       54 beta electrons
       nuclear repulsion energy       903.1256434387 Hartrees.
 NAtoms=   18 NActive=   18 NUniq=   18 SFac= 7.50D-01 NAtFMM=   80 NAOKFM=F Big=F
 One-electron integrals computed using PRISM.
 NBasis=   209 RedAO= T  NBF=   209
 NBsUse=   209 1.00D-06 NBFU=   209
 Initial guess read from the read-write file.
 B after Tr=     0.000000    0.000000    0.000000
         Rot=    1.000000    0.000000    0.000000    0.000000 Ang=   0.00 deg.
 Requested convergence on RMS density matrix=1.00D-08 within 128 cycles.
 Requested convergence on MAX density matrix=1.00D-06.
 Requested convergence on             energy=1.00D-06.
 No special actions if energy rises.
 SCF Done:  E(RHF) =  -1154.67427811     A.U. after    5 cycles
             Convg  =    0.4922D-08             -V/T =  2.0019
 Calling FoFJK, ICntrl=      2127 FMM=F ISym2X=0 I1Cent= 0 IOpClX= 0 NMat=1 NMatS=1 NMatT=0.
 -------------------------------------------------------------------
 Center     Atomic                   Forces (Hartrees/Bohr)
 Number     Number              X              Y              Z
 -------------------------------------------------------------------
      1        9           0.000000000    0.000000000    0.000000000
      2        6           0.000000000    0.000000000    0.000000000
      3        6           0.000000000    0.000000000    0.000000000
      4        6           0.000000000    0.000000000    0.000000000
      5        6           0.000000000    0.000000000    0.000000000
      6        9           0.000000000    0.000000000    0.000000000
      7        9           0.000000000    0.000000000    0.000000000
      8        9           0.000000000    0.000000000    0.000000000
      9        6           0.000000000    0.000000000    0.000000000
     10        7           0.000000000    0.000000000    0.000000000
     11        6           0.000000000    0.000000000    0.000000000
     12       16           0.000000000    0.000000000    0.000000000
     13        1           0.000000000    0.000000000    0.000000000
     14        1           0.000000000    0.000000000    0.000000000
     15        1           0.000000000    0.000000000    0.000000000
     16        1           0.003987641    0.003911528   -0.009114449
     17        8          -0.004164261    0.005719410    0.013408325
     18        1           0.000365330   -0.009810221   -0.004280306
 -------------------------------------------------------------------
 Cartesian Forces:  Max     0.013408325 RMS     0.002914858
 -----------------------------------------------------------------------------------------------
                       Internal Coordinate Forces (Hartree/Bohr or radian)
  Cent   Atom   N1       Length/X         N2         Alpha/Y        N3         Beta/Z          J
 -----------------------------------------------------------------------------------------------
      1  F 
      2  C 
      3  C 
      4  C 
      5  C 
      6  F 
      7  F 
      8  F 
      9  C 
     10  N 
     11  C 
     12  S 
     13  H 
     14  H 
     15  H 
         X        7   0.000000(     1)      5   0.000534(     7)      4   0.000288(    13)     0
         X       16   0.000000(     2)      7   0.000000(     8)      5   0.000766(    14)     0
     16  H        7  -0.000038(     3)     16   0.000534(     9)     17  -0.000766(    15)     0
         X       18   0.000000(     4)      7  -0.000379(    10)     16   0.000000(    16)     0
     17  O       18  -0.010611(     5)     19  -0.000379(    11)      7   0.000630(    17)     0
     18  H       20  -0.010619(     6)     18   0.002498(    12)     16   0.000288(    18)     0
 -----------------------------------------------------------------------------------------------
 Internal  Forces:  Max     0.010618914 RMS     0.003607053

 GradGradGradGradGradGradGradGradGradGradGradGradGradGradGradGradGradGrad
 Berny optimization.
 Search for a local minimum.
 Step number   3 out of a maximum of   20
 All quantities printed in internal units (Hartrees-Bohrs-Radians)
 Update second derivatives using D2CorN and points    1    3
 DE= -1.77D-07 DEPred=-1.73D-08 R= 1.02D+01
 Trust test= 1.02D+01 RLast= 4.17D-03 DXMaxT set to 3.00D-01
 The second derivative matrix:
                          RX       RDUM       ROH      ADUM      AHOH
           RX           0.00201
           RDUM         0.00000   0.00000
           ROH         -0.00008   0.00000   1.12160
           ADUM        -0.00011   0.00000   0.00000   2.14731
           AHOH         0.00020   0.00000   0.00000   0.00000   0.16000
           DDUM         0.00016   0.00000   0.00000  -0.08024   0.00000
           DH1         -0.00009   0.00000   0.00000   0.08024   0.00000
           DOH2         0.00009   0.00000   0.00000   0.12538   0.00000
           DH2          0.00007   0.00000   0.00000   0.00000   0.00000
                         DDUM       DH1      DOH2       DH2
           DDUM         0.18247
           DH1         -0.18247   0.18247
           DOH2         0.00000   0.00000   0.28511
           DH2          0.00000   0.00000   0.00000   0.00000
     Eigenvalues ---    0.002011000.000001000.000001000.000001000.00000
     Eigenvalues --- 1000.000001000.000001000.000001000.00000
 RFO step:  Lambda= 0.00000000D+00 EMin= 2.00629363D-03
 Quartic linear search produced a step of  2.00000.
 Variable       Old X    -DE/DX   Delta X   Delta X   Delta X     New X
                                 (Linear)    (Quad)   (Total)
    RX        4.48941  -0.00004  -0.00833   0.00000  -0.00833   4.48108
   RDUM       1.88973   0.00000   0.00000   0.00000   0.00000   1.88973
   ROH        1.80885  -0.02123   0.00000   0.00000   0.00000   1.80885
   ADUM       1.57080   0.00031   0.00000   0.00000   0.00000   1.57080
   AHOH       1.82422   0.00250   0.00000   0.00000   0.00000   1.82422
   DDUM       0.00000   0.00105   0.00000   0.00000   0.00000   0.00000
   DH1        3.14159  -0.00077   0.00000   0.00000   0.00000   3.14159
   DOH2       3.14159   0.00063   0.00000   0.00000   0.00000   3.14159
   DH2        1.57080   0.00029   0.00000   0.00000   0.00000   1.57080
         Item               Value     Threshold  Converged?
 Maximum Force            0.000038     0.000450     YES
 RMS     Force            0.000038     0.000300     YES
 Maximum Displacement     0.008331     0.001800     NO 
 RMS     Displacement     0.002777     0.001200     NO 
 Predicted change in Energy=-2.488337D-07
 GradGradGradGradGradGradGradGradGradGradGradGradGradGradGradGradGradGrad

 ---------------------------------------------------------------------------------------------------
                            Z-MATRIX (ANGSTROMS AND DEGREES)
   CD    Cent   Atom    N1       Length/X        N2       Alpha/Y        N3        Beta/Z          J
 ---------------------------------------------------------------------------------------------------
      1      1  F       -1  -1.969300          2.053680          0.000070
      2      2  C       -1  -1.222250          0.944230          0.000030
      3      3  C       -1   0.140030          1.057400         -0.000020
      4      4  C       -1   0.927950         -0.123640         -0.000080
      5      5  C       -1   2.414660         -0.018650         -0.000010
      6      6  F       -1   3.007080         -1.234610         -0.000560
      7      7  F       -1   2.858290          0.654480         -1.086020
      8      8  F       -1   2.858270          0.653500          1.086650
      9      9  C       -1   0.306540         -1.341490         -0.000090
     10     10  N       -1  -1.054170         -1.389970         -0.000060
     11     11  C       -1  -1.930500         -0.312100          0.000000
     12     12  S       -1  -3.570980         -0.506610          0.000030
     13     13  H       -1   0.596860          2.043100         -0.000020
     14     14  H       -1   0.831760         -2.288990         -0.000150
     15     15  H       -1  -1.521480         -2.296390         -0.000090
     16         X        7   1.000000(    15)      5   90.000(    34)      4    0.000(    52)      0
     17         X       16   1.000000(    16)      7   90.000(    35)      5    0.000(    53)      0
     18     16  H        7   2.371285(    17)     16   90.000(    36)     17  180.000(    54)      0
     19         X       18   1.000000(    18)      7   90.000(    37)     16    0.000(    55)      0
     20     17  O       18   0.957200(    19)     19   90.000(    38)      7  180.000(    56)      0
     21     18  H       20   0.957200(    20)     18  104.520(    39)     16   90.000(    57)      0
 ---------------------------------------------------------------------------------------------------
                         Z-Matrix orientation:                         
 ---------------------------------------------------------------------
 Center     Atomic      Atomic             Coordinates (Angstroms)
 Number     Number       Type             X           Y           Z
 ---------------------------------------------------------------------
      1          9           0       -1.969300    2.053680    0.000070
      2          6           0       -1.222250    0.944230    0.000030
      3          6           0        0.140030    1.057400   -0.000020
      4          6           0        0.927950   -0.123640   -0.000080
      5          6           0        2.414660   -0.018650   -0.000010
      6          9           0        3.007080   -1.234610   -0.000560
      7          9           0        2.858290    0.654480   -1.086020
      8          9           0        2.858270    0.653500    1.086650
      9          6           0        0.306540   -1.341490   -0.000090
     10          7           0       -1.054170   -1.389970   -0.000060
     11          6           0       -1.930500   -0.312100    0.000000
     12         16           0       -3.570980   -0.506610    0.000030
     13          1           0        0.596860    2.043100   -0.000020
     14          1           0        0.831760   -2.288990   -0.000150
     15          1           0       -1.521480   -2.296390   -0.000090
     16         -1           0        1.915565    0.772301   -1.398091
     17         -1           0        1.587564    0.274618   -0.595142
     18          1           0        3.636073    1.834629   -2.990041
     19         -1           0        2.693349    1.952450   -3.302111
     20          8           0        3.950036    2.311011   -3.758623
     21          1           0        3.972498    3.226717   -3.480757
 ---------------------------------------------------------------------
                    Distance matrix (angstroms):
                    1          2          3          4          5
     1  F    0.000000
     2  C    1.337521   0.000000
     3  C    2.332777   1.366973   0.000000
     4  C    3.624194   2.400772   1.419744   0.000000
     5  C    4.849088   3.762214   2.516312   1.490413   0.000000
     6  F    5.964663   4.757581   3.670597   2.357337   1.352598
     7  F    5.142274   4.232525   2.954772   2.347541   1.352527
     8  F    5.142625   4.232719   2.955134   2.347566   1.352555
     9  C    4.087374   2.749857   2.404662   1.367227   2.488790
    10  N    3.563171   2.340244   2.723184   2.352104   3.730054
    11  C    2.366098   1.442215   2.482463   2.864656   4.355058
    12  S    3.020011   2.760701   4.027123   4.515201   6.005497
    13  H    2.566182   2.125247   1.086415   2.191890   2.748674
    14  H    5.167661   3.830492   3.417136   2.167485   2.767673
    15  H    4.373060   3.254406   3.742796   3.274225   4.547669
    16  X    4.323073   3.439504   2.277808   1.931975   1.682061
    17  X    4.021271   2.949181   1.749935   0.973550   1.060318
    18  H    6.356804   5.773789   4.665472   4.484263   3.723812
    19  X    5.714450   5.220398   4.269000   4.281378   3.855746
    20  O    7.016590   6.538204   5.496798   5.402516   4.681012
    21  H    6.985495   6.656654   5.613313   5.710454   5.007482
                    6          7          8          9         10
     6  F    0.000000
     7  F    2.183809   0.000000
     8  F    2.183834   2.172670   0.000000
     9  C    2.702654   3.416807   3.416477   0.000000
    10  N    4.064221   4.546034   4.545756   1.361573   0.000000
    11  C    5.023019   5.004620   5.004549   2.462517   1.389157
    12  S    6.618222   6.622926   6.622828   3.966382   2.667332
    13  H    4.068482   2.867355   2.868068   3.397019   3.809445
    14  H    2.417382   3.734964   3.734451   1.083334   2.089251
    15  H    4.651369   5.391592   5.391203   2.062399   1.019792
    16  X    2.678094   1.000000   2.660215   3.001913   3.930551
    17  X    2.155533   1.414214   2.141651   2.146372   3.178637
    18  H    4.330457   2.371285   4.315026   5.487561   6.429339
    19  X    4.599567   2.573518   4.579923   5.239298   6.009926
    20  O    5.252012   3.328485   5.236026   6.382977   7.270910
    21  H    5.739969   3.686819   5.359493   6.813429   7.661361
                   11         12         13         14         15
    11  C    0.000000
    12  S    1.651971   0.000000
    13  H    3.454637   4.885889   0.000000
    14  H    3.396789   4.749842   4.338454   0.000000
    15  H    2.026007   2.720986   4.828927   2.353252   0.000000
    16  X    4.233533   5.804527   2.304022   3.535587   4.815034
    17  X    3.615966   5.251202   2.112627   2.738127   4.078030
    18  H    6.673494   8.146382   4.268548   5.814452   7.252963
    19  X    6.116543   7.496194   3.912453   5.688433   6.835259
    20  O    7.455781   8.867477   5.044072   6.708933   8.080359
    21  H    7.712606   9.108110   4.991134   7.238915   8.532500
                   16         17         18         19         20
    16  X    0.000000
    17  X    1.000000   0.000000
    18  H    2.573518   3.516470   0.000000
    19  X    2.371285   3.371285   1.000000   0.000000
    20  O    3.475459   4.442497   0.957200   1.384280   0.000000
    21  H    3.820030   4.767555   1.513901   1.814358   0.957200
                   21
    21  H    0.000000
 Symmetry turned off by external request.
 Stoichiometry    C6H5F4NOS
 Framework group  C1[X(C6H5F4NOS)]
 Deg. of freedom    48
 Full point group                 C1      NOp   1
 Rotational constants (GHZ):      0.9928373      0.3173095      0.2777868
 Standard basis: 6-31G(d) (6D, 7F)
 Integral buffers will be    131072 words long.
 Raffenetti 1 integral format.
 Two-electron integral symmetry is turned off.
   209 basis functions,   408 primitive gaussians,   209 cartesian basis functions
    54 alpha electrons       54 beta electrons
       nuclear repulsion energy       903.1964191908 Hartrees.
 NAtoms=   18 NActive=   18 NUniq=   18 SFac= 7.50D-01 NAtFMM=   80 NAOKFM=F Big=F
 One-electron integrals computed using PRISM.
 NBasis=   209 RedAO= T  NBF=   209
 NBsUse=   209 1.00D-06 NBFU=   209
 Initial guess read from the read-write file.
 B after Tr=     0.000000    0.000000    0.000000
         Rot=    1.000000    0.000000    0.000000    0.000000 Ang=   0.00 deg.
 Requested convergence on RMS density matrix=1.00D-08 within 128 cycles.
 Requested convergence on MAX density matrix=1.00D-06.
 Requested convergence on             energy=1.00D-06.
 No special actions if energy rises.
 SCF Done:  E(RHF) =  -1154.67427836     A.U. after    5 cycles
             Convg  =    0.9741D-08             -V/T =  2.0019
 Calling FoFJK, ICntrl=      2127 FMM=F ISym2X=0 I1Cent= 0 IOpClX= 0 NMat=1 NMatS=1 NMatT=0.
 -------------------------------------------------------------------
 Center     Atomic                   Forces (Hartrees/Bohr)
 Number     Number              X              Y              Z
 -------------------------------------------------------------------
      1        9           0.000000000    0.000000000    0.000000000
      2        6           0.000000000    0.000000000    0.000000000
      3        6           0.000000000    0.000000000    0.000000000
      4        6           0.000000000    0.000000000    0.000000000
      5        6           0.000000000    0.000000000    0.000000000
      6        9           0.000000000    0.000000000    0.000000000
      7        9           0.000000000    0.000000000    0.000000000
      8        9           0.000000000    0.000000000    0.000000000
      9        6           0.000000000    0.000000000    0.000000000
     10        7           0.000000000    0.000000000    0.000000000
     11        6           0.000000000    0.000000000    0.000000000
     12       16           0.000000000    0.000000000    0.000000000
     13        1           0.000000000    0.000000000    0.000000000
     14        1           0.000000000    0.000000000    0.000000000
     15        1           0.000000000    0.000000000    0.000000000
     16        1           0.003994937    0.003917716   -0.009129141
     17        8          -0.004166432    0.005721683    0.013411038
     18        1           0.000366509   -0.009810878   -0.004282102
 -------------------------------------------------------------------
 Cartesian Forces:  Max     0.013411038 RMS     0.002916511
 -----------------------------------------------------------------------------------------------
                       Internal Coordinate Forces (Hartree/Bohr or radian)
  Cent   Atom   N1       Length/X         N2         Alpha/Y        N3         Beta/Z          J
 -----------------------------------------------------------------------------------------------
      1  F 
      2  C 
      3  C 
      4  C 
      5  C 
      6  F 
      7  F 
      8  F 
      9  C 
     10  N 
     11  C 
     12  S 
     13  H 
     14  H 
     15  H 
         X        7   0.000000(     1)      5   0.000534(     7)      4   0.000289(    13)     0
         X       16   0.000000(     2)      7   0.000000(     8)      5   0.000768(    14)     0
     16  H        7  -0.000021(     3)     16   0.000534(     9)     17  -0.000768(    15)     0
         X       18   0.000000(     4)      7  -0.000380(    10)     16   0.000000(    16)     0
     17  O       18  -0.010612(     5)     19  -0.000380(    11)      7   0.000631(    17)     0
     18  H       20  -0.010620(     6)     18   0.002501(    12)     16   0.000289(    18)     0
 -----------------------------------------------------------------------------------------------
 Internal  Forces:  Max     0.010620037 RMS     0.003607480

 GradGradGradGradGradGradGradGradGradGradGradGradGradGradGradGradGradGrad
 Berny optimization.
 Search for a local minimum.
 Step number   4 out of a maximum of   20
 All quantities printed in internal units (Hartrees-Bohrs-Radians)
 Update second derivatives using D2CorN and points    3    4
 DE= -2.48D-07 DEPred=-2.49D-07 R= 9.96D-01
 Trust test= 9.96D-01 RLast= 8.33D-03 DXMaxT set to 3.00D-01
 The second derivative matrix:
                          RX       RDUM       ROH      ADUM      AHOH
           RX           0.00204
           RDUM         0.00000   0.00000
           ROH         -0.00012   0.00000   1.12160
           ADUM        -0.00016   0.00000   0.00000   2.14731
           AHOH         0.00030   0.00000   0.00000   0.00000   0.16000
           DDUM         0.00024   0.00000   0.00000  -0.08024   0.00000
           DH1         -0.00014   0.00000   0.00000   0.08024   0.00000
           DOH2         0.00013   0.00000   0.00000   0.12538   0.00000
           DH2          0.00010   0.00000   0.00000   0.00000   0.00000
                         DDUM       DH1      DOH2       DH2
           DDUM         0.18247
           DH1         -0.18247   0.18247
           DOH2         0.00000   0.00000   0.28511
           DH2          0.00000   0.00000   0.00000   0.00000
     Eigenvalues ---    0.002041000.000001000.000001000.000001000.00000
     Eigenvalues --- 1000.000001000.000001000.000001000.00000
 RFO step:  Lambda= 0.00000000D+00 EMin= 2.04211073D-03
 Quartic linear search produced a step of  1.21790.
 Variable       Old X    -DE/DX   Delta X   Delta X   Delta X     New X
                                 (Linear)    (Quad)   (Total)
    RX        4.48108  -0.00002  -0.01015   0.00000  -0.01015   4.47093
   RDUM       1.88973   0.00000   0.00000   0.00000   0.00000   1.88973
   ROH        1.80885  -0.02123   0.00000   0.00000   0.00000   1.80885
   ADUM       1.57080   0.00031   0.00000   0.00000   0.00000   1.57080
   AHOH       1.82422   0.00250   0.00000   0.00000   0.00000   1.82422
   DDUM       0.00000   0.00106   0.00000   0.00000   0.00000   0.00000
   DH1        3.14159  -0.00077   0.00000   0.00000   0.00000   3.14159
   DOH2       3.14159   0.00063   0.00000   0.00000   0.00000   3.14159
   DH2        1.57080   0.00029   0.00000   0.00000   0.00000   1.57080
         Item               Value     Threshold  Converged?
 Maximum Force            0.000021     0.000450     YES
 RMS     Force            0.000021     0.000300     YES
 Maximum Displacement     0.010146     0.001800     NO 
 RMS     Displacement     0.003382     0.001200     NO 
 Predicted change in Energy=-1.101182D-07
 GradGradGradGradGradGradGradGradGradGradGradGradGradGradGradGradGradGrad

 ---------------------------------------------------------------------------------------------------
                            Z-MATRIX (ANGSTROMS AND DEGREES)
   CD    Cent   Atom    N1       Length/X        N2       Alpha/Y        N3        Beta/Z          J
 ---------------------------------------------------------------------------------------------------
      1      1  F       -1  -1.969300          2.053680          0.000070
      2      2  C       -1  -1.222250          0.944230          0.000030
      3      3  C       -1   0.140030          1.057400         -0.000020
      4      4  C       -1   0.927950         -0.123640         -0.000080
      5      5  C       -1   2.414660         -0.018650         -0.000010
      6      6  F       -1   3.007080         -1.234610         -0.000560
      7      7  F       -1   2.858290          0.654480         -1.086020
      8      8  F       -1   2.858270          0.653500          1.086650
      9      9  C       -1   0.306540         -1.341490         -0.000090
     10     10  N       -1  -1.054170         -1.389970         -0.000060
     11     11  C       -1  -1.930500         -0.312100          0.000000
     12     12  S       -1  -3.570980         -0.506610          0.000030
     13     13  H       -1   0.596860          2.043100         -0.000020
     14     14  H       -1   0.831760         -2.288990         -0.000150
     15     15  H       -1  -1.521480         -2.296390         -0.000090
     16         X        7   1.000000(    15)      5   90.000(    34)      4    0.000(    52)      0
     17         X       16   1.000000(    16)      7   90.000(    35)      5    0.000(    53)      0
     18     16  H        7   2.365916(    17)     16   90.000(    36)     17  180.000(    54)      0
     19         X       18   1.000000(    18)      7   90.000(    37)     16    0.000(    55)      0
     20     17  O       18   0.957200(    19)     19   90.000(    38)      7  180.000(    56)      0
     21     18  H       20   0.957200(    20)     18  104.520(    39)     16   90.000(    57)      0
 ---------------------------------------------------------------------------------------------------
                         Z-Matrix orientation:                         
 ---------------------------------------------------------------------
 Center     Atomic      Atomic             Coordinates (Angstroms)
 Number     Number       Type             X           Y           Z
 ---------------------------------------------------------------------
      1          9           0       -1.969300    2.053680    0.000070
      2          6           0       -1.222250    0.944230    0.000030
      3          6           0        0.140030    1.057400   -0.000020
      4          6           0        0.927950   -0.123640   -0.000080
      5          6           0        2.414660   -0.018650   -0.000010
      6          9           0        3.007080   -1.234610   -0.000560
[...]
 !       DH1       180.0      -DE/DX =   -0.0008                        !
 !      DOH2       180.0      -DE/DX =    0.0006                        !
 !       DH2        90.0      -DE/DX =    0.0003                        !
 ------------------------------------------------------------------------
 GradGradGradGradGradGradGradGradGradGradGradGradGradGradGradGradGradGrad

 ---------------------------------------------------------------------------------------------------
                            Z-MATRIX (ANGSTROMS AND DEGREES)
   CD    Cent   Atom    N1       Length/X        N2       Alpha/Y        N3        Beta/Z          J
 ---------------------------------------------------------------------------------------------------
      1      1  F       -1  -1.969300          2.053680          0.000070
      2      2  C       -1  -1.222250          0.944230          0.000030
      3      3  C       -1   0.140030          1.057400         -0.000020
      4      4  C       -1   0.927950         -0.123640         -0.000080
      5      5  C       -1   2.414660         -0.018650         -0.000010
      6      6  F       -1   3.007080         -1.234610         -0.000560
      7      7  F       -1   2.858290          0.654480         -1.086020
      8      8  F       -1   2.858270          0.653500          1.086650
      9      9  C       -1   0.306540         -1.341490         -0.000090
     10     10  N       -1  -1.054170         -1.389970         -0.000060
     11     11  C       -1  -1.930500         -0.312100          0.000000
     12     12  S       -1  -3.570980         -0.506610          0.000030
     13     13  H       -1   0.596860          2.043100         -0.000020
     14     14  H       -1   0.831760         -2.288990         -0.000150
     15     15  H       -1  -1.521480         -2.296390         -0.000090
     16         X        7   1.000000(    15)      5   90.000(    34)      4    0.000(    52)      0
     17         X       16   1.000000(    16)      7   90.000(    35)      5    0.000(    53)      0
     18     16  H        7   2.365916(    17)     16   90.000(    36)     17  180.000(    54)      0
     19         X       18   1.000000(    18)      7   90.000(    37)     16    0.000(    55)      0
     20     17  O       18   0.957200(    19)     19   90.000(    38)      7  180.000(    56)      0
     21     18  H       20   0.957200(    20)     18  104.520(    39)     16   90.000(    57)      0
 ---------------------------------------------------------------------------------------------------
                         Z-Matrix orientation:                         
 ---------------------------------------------------------------------
 Center     Atomic      Atomic             Coordinates (Angstroms)
 Number     Number       Type             X           Y           Z
 ---------------------------------------------------------------------
      1          9           0       -1.969300    2.053680    0.000070
      2          6           0       -1.222250    0.944230    0.000030
      3          6           0        0.140030    1.057400   -0.000020
      4          6           0        0.927950   -0.123640   -0.000080
      5          6           0        2.414660   -0.018650   -0.000010
      6          9           0        3.007080   -1.234610   -0.000560
      7          9           0        2.858290    0.654480   -1.086020
      8          9           0        2.858270    0.653500    1.086650
      9          6           0        0.306540   -1.341490   -0.000090
     10          7           0       -1.054170   -1.389970   -0.000060
     11          6           0       -1.930500   -0.312100    0.000000
     12         16           0       -3.570980   -0.506610    0.000030
     13          1           0        0.596860    2.043100   -0.000020
     14          1           0        0.831760   -2.288990   -0.000150
     15          1           0       -1.521480   -2.296390   -0.000090
     16         -1           0        1.915565    0.772301   -1.398091
     17         -1           0        1.587564    0.274618   -0.595142
     18          1           0        3.634312    1.831957   -2.985729
     19         -1           0        2.691588    1.949778   -3.297800
     20          8           0        3.948275    2.308339   -3.754312
     21          1           0        3.970737    3.224045   -3.476446
 ---------------------------------------------------------------------
                    Distance matrix (angstroms):
                    1          2          3          4          5
     1  F    0.000000
     2  C    1.337521   0.000000
     3  C    2.332777   1.366973   0.000000
     4  C    3.624194   2.400772   1.419744   0.000000
     5  C    4.849088   3.762214   2.516312   1.490413   0.000000
     6  F    5.964663   4.757581   3.670597   2.357337   1.352598
     7  F    5.142274   4.232525   2.954772   2.347541   1.352527
     8  F    5.142625   4.232719   2.955134   2.347566   1.352555
     9  C    4.087374   2.749857   2.404662   1.367227   2.488790
    10  N    3.563171   2.340244   2.723184   2.352104   3.730054
    11  C    2.366098   1.442215   2.482463   2.864656   4.355058
    12  S    3.020011   2.760701   4.027123   4.515201   6.005497
    13  H    2.566182   2.125247   1.086415   2.191890   2.748674
    14  H    5.167661   3.830492   3.417136   2.167485   2.767673
    15  H    4.373060   3.254406   3.742796   3.274225   4.547669
    16  X    4.323073   3.439504   2.277808   1.931975   1.682061
    17  X    4.021271   2.949181   1.749935   0.973550   1.060318
    18  H    6.353317   5.769663   4.660945   4.479158   3.718443
    19  X    5.710571   5.215835   4.264052   4.276031   3.850561
    20  O    7.012698   6.533774   5.492020   5.397327   4.675643
    21  H    6.981401   6.652109   5.608405   5.705320   5.002205
                    6          7          8          9         10
     6  F    0.000000
     7  F    2.183809   0.000000
     8  F    2.183834   2.172670   0.000000
     9  C    2.702654   3.416807   3.416477   0.000000
    10  N    4.064221   4.546034   4.545756   1.361573   0.000000
    11  C    5.023019   5.004620   5.004549   2.462517   1.389157
    12  S    6.618222   6.622926   6.622828   3.966382   2.667332
    13  H    4.068482   2.867355   2.868068   3.397019   3.809445
    14  H    2.417382   3.734964   3.734451   1.083334   2.089251
    15  H    4.651369   5.391592   5.391203   2.062399   1.019792
    16  X    2.678094   1.000000   2.660215   3.001913   3.930551
    17  X    2.155533   1.414214   2.141651   2.146372   3.178637
    18  H    4.325331   2.365916   4.309904   5.482597   6.424710
    19  X    4.594742   2.568571   4.575098   5.234099   6.004973
    20  O    5.246808   3.323116   5.230824   6.377905   7.266110
    21  H    5.734983   3.681622   5.354170   6.808488   7.656637
                   11         12         13         14         15
    11  C    0.000000
    12  S    1.651971   0.000000
    13  H    3.454637   4.885889   0.000000
    14  H    3.396789   4.749842   4.338454   0.000000
    15  H    2.026007   2.720986   4.828927   2.353252   0.000000
    16  X    4.233533   5.804527   2.304022   3.535587   4.815034
    17  X    3.615966   5.251202   2.112627   2.738127   4.078030
    18  H    6.669235   8.142475   4.264406   5.809491   7.248413
    19  X    6.111896   7.491948   3.907934   5.683362   6.830430
    20  O    7.451279   8.863307   5.039548   6.703867   8.075638
    21  H    7.708087   9.103910   4.986303   7.234042   8.527878
                   16         17         18         19         20
    16  X    0.000000
    17  X    1.000000   0.000000
    18  H    2.568571   3.511323   0.000000
    19  X    2.365916   3.365916   1.000000   0.000000
    20  O    3.470317   4.437266   0.957200   1.384280   0.000000
    21  H    3.815015   4.762410   1.513901   1.814358   0.957200
                   21
    21  H    0.000000
 Symmetry turned off by external request.
 Stoichiometry    C6H5F4NOS
 Framework group  C1[X(C6H5F4NOS)]
 Deg. of freedom    48
 Full point group                 C1      NOp   1
 Rotational constants (GHZ):      0.9937568      0.3174205      0.2779220

 **********************************************************************

            Population analysis using the SCF density.

 **********************************************************************

 Alpha  occ. eigenvalues --  -91.90732 -26.37445 -26.37326 -26.36590 -26.33726
 Alpha  occ. eigenvalues --  -20.55712 -15.68994 -11.54997 -11.38098 -11.37504
 Alpha  occ. eigenvalues --  -11.36503 -11.31578 -11.30713  -8.91819  -6.60146
 Alpha  occ. eigenvalues --   -6.59871  -6.59744  -1.74967  -1.65948  -1.65346
 Alpha  occ. eigenvalues --   -1.64976  -1.35831  -1.33905  -1.17533  -1.12368
 Alpha  occ. eigenvalues --   -1.03511  -0.97670  -0.93063  -0.88604  -0.85391
 Alpha  occ. eigenvalues --   -0.84533  -0.84269  -0.77416  -0.76277  -0.74208
 Alpha  occ. eigenvalues --   -0.73183  -0.72362  -0.71598  -0.70620  -0.70430
 Alpha  occ. eigenvalues --   -0.68483  -0.68237  -0.67021  -0.64442  -0.62807
 Alpha  occ. eigenvalues --   -0.61169  -0.59822  -0.56824  -0.52841  -0.49517
 Alpha  occ. eigenvalues --   -0.46944  -0.43547  -0.34352  -0.31252
 Alpha virt. eigenvalues --    0.04183   0.08374   0.17414   0.21483   0.24102
 Alpha virt. eigenvalues --    0.24955   0.26140   0.26241   0.29178   0.31267
 Alpha virt. eigenvalues --    0.33592   0.35073   0.38948   0.40841   0.42215
 Alpha virt. eigenvalues --    0.43708   0.46385   0.49166   0.53845   0.55206
 Alpha virt. eigenvalues --    0.56474   0.59463   0.60941   0.64054   0.66335
 Alpha virt. eigenvalues --    0.67378   0.71570   0.72732   0.73213   0.75032
 Alpha virt. eigenvalues --    0.76862   0.77572   0.82613   0.84187   0.87184
 Alpha virt. eigenvalues --    0.88723   0.89511   0.91864   0.95363   0.99509
 Alpha virt. eigenvalues --    1.01891   1.02362   1.02572   1.04274   1.07178
 Alpha virt. eigenvalues --    1.08957   1.09513   1.12452   1.13313   1.14957
 Alpha virt. eigenvalues --    1.15770   1.17006   1.17268   1.18182   1.24132
 Alpha virt. eigenvalues --    1.28023   1.29034   1.30964   1.32651   1.33882
 Alpha virt. eigenvalues --    1.34445   1.36786   1.40910   1.41753   1.42060
 Alpha virt. eigenvalues --    1.44487   1.47079   1.51719   1.59559   1.60013
 Alpha virt. eigenvalues --    1.60897   1.62781   1.63203   1.63896   1.64634
 Alpha virt. eigenvalues --    1.65636   1.67078   1.69307   1.69750   1.71620
 Alpha virt. eigenvalues --    1.73245   1.75927   1.76672   1.80934   1.86167
 Alpha virt. eigenvalues --    1.91137   1.91914   1.93286   1.99427   2.02318
 Alpha virt. eigenvalues --    2.03633   2.04038   2.05483   2.07026   2.08589
 Alpha virt. eigenvalues --    2.09715   2.11389   2.12185   2.17670   2.19913
 Alpha virt. eigenvalues --    2.22014   2.22105   2.24153   2.27970   2.29297
 Alpha virt. eigenvalues --    2.29918   2.32333   2.33360   2.34159   2.35299
 Alpha virt. eigenvalues --    2.37524   2.38773   2.42883   2.44573   2.45295
 Alpha virt. eigenvalues --    2.46623   2.51878   2.60305   2.61607   2.63536
 Alpha virt. eigenvalues --    2.65056   2.67771   2.74725   2.82466   2.84183
 Alpha virt. eigenvalues --    2.84263   2.90859   2.92502   2.92940   2.94993
 Alpha virt. eigenvalues --    2.99828   3.06661   3.09165   3.16792   3.21680
 Alpha virt. eigenvalues --    3.29115   3.37186   3.38421   3.42568   3.44806
 Alpha virt. eigenvalues --    3.49124   3.70845   4.02173   4.36082   4.39799
 Alpha virt. eigenvalues --    4.44714   4.47918   4.59758   4.63810   4.72509
 Alpha virt. eigenvalues --    4.81700   5.02541   5.16376   5.57448   6.02527
          Condensed to atoms (all electrons):
              1          2          3          4          5          6
     1  F    9.159241   0.267928  -0.033732   0.002213  -0.000015   0.000000
     2  C    0.267928   4.574305   0.570364  -0.026155   0.000801  -0.000019
     3  C   -0.033732   0.570364   5.068327   0.352568  -0.012415   0.002180
     4  C    0.002213  -0.026155   0.352568   5.206389   0.419048  -0.045266
     5  C   -0.000015   0.000801  -0.012415   0.419048   3.551971   0.290899
     6  F    0.000000  -0.000019   0.002180  -0.045266   0.290899   9.183165
     7  F    0.000000   0.000294   0.005136  -0.054332   0.273796  -0.030193
     8  F    0.000000   0.000293   0.005093  -0.055555   0.285675  -0.030739
     9  C    0.000133  -0.023086  -0.054394   0.592314  -0.020997   0.005361
    10  N    0.001382  -0.053258  -0.021258  -0.035648   0.001231   0.000237
    11  C   -0.040723   0.377431  -0.079098  -0.001325   0.000082   0.000002
    12  S    0.003490  -0.083466   0.001602  -0.000046   0.000006   0.000000
    13  H   -0.000276  -0.016828   0.368949  -0.031090  -0.000257   0.000035
    14  H    0.000000  -0.000112   0.001794  -0.022691  -0.000145   0.004956
    15  H   -0.000018   0.003850  -0.000568   0.002342  -0.000016   0.000001
    16  H    0.000000   0.000000   0.000008   0.000067   0.000076   0.000011
    17  O    0.000000   0.000000   0.000000  -0.000003   0.000010   0.000000
    18  H    0.000000   0.000000   0.000000   0.000000   0.000000   0.000000
              7          8          9         10         11         12
     1  F    0.000000   0.000000   0.000133   0.001382  -0.040723   0.003490
     2  C    0.000294   0.000293  -0.023086  -0.053258   0.377431  -0.083466
     3  C    0.005136   0.005093  -0.054394  -0.021258  -0.079098   0.001602
     4  C   -0.054332  -0.055555   0.592314  -0.035648  -0.001325  -0.000046
     5  C    0.273796   0.285675  -0.020997   0.001231   0.000082   0.000006
     6  F   -0.030193  -0.030739   0.005361   0.000237   0.000002   0.000000
     7  F    9.210135  -0.033512   0.000488  -0.000005  -0.000002   0.000000
     8  F   -0.033512   9.198654   0.000509  -0.000006  -0.000002   0.000000
     9  C    0.000488   0.000509   4.730982   0.267042  -0.038395   0.003298
    10  N   -0.000005  -0.000006   0.267042   7.234930   0.211636  -0.104368
    11  C   -0.000002  -0.000002  -0.038395   0.211636   4.956069   0.447435
    12  S    0.000000   0.000000   0.003298  -0.104368   0.447435  15.944019
    13  H    0.000898   0.000900   0.002423  -0.000263   0.002650  -0.000057
    14  H    0.000082   0.000083   0.379804  -0.031820   0.000957  -0.000131
    15  H    0.000000   0.000000  -0.021453   0.309789  -0.017812   0.013692
    16  H    0.008404   0.000012   0.000000   0.000000   0.000000   0.000000
    17  O   -0.000711   0.000000   0.000000   0.000000   0.000000   0.000000
    18  H   -0.000022   0.000000   0.000000   0.000000   0.000000   0.000000
             13         14         15         16         17         18
     1  F   -0.000276   0.000000  -0.000018   0.000000   0.000000   0.000000
     2  C   -0.016828  -0.000112   0.003850   0.000000   0.000000   0.000000
     3  C    0.368949   0.001794  -0.000568   0.000008   0.000000   0.000000
     4  C   -0.031090  -0.022691   0.002342   0.000067  -0.000003   0.000000
     5  C   -0.000257  -0.000145  -0.000016   0.000076   0.000010   0.000000
     6  F    0.000035   0.004956   0.000001   0.000011   0.000000   0.000000
     7  F    0.000898   0.000082   0.000000   0.008404  -0.000711  -0.000022
     8  F    0.000900   0.000083   0.000000   0.000012   0.000000   0.000000
     9  C    0.002423   0.379804  -0.021453   0.000000   0.000000   0.000000
    10  N   -0.000263  -0.031820   0.309789   0.000000   0.000000   0.000000
    11  C    0.002650   0.000957  -0.017812   0.000000   0.000000   0.000000
    12  S   -0.000057  -0.000131   0.013692   0.000000   0.000000   0.000000
    13  H    0.396628  -0.000063   0.000008   0.000003   0.000000   0.000000
    14  H   -0.000063   0.379827  -0.002111   0.000000   0.000000   0.000000
    15  H    0.000008  -0.002111   0.269636   0.000000   0.000000   0.000000
    16  H    0.000003   0.000000   0.000000   0.309988   0.262128  -0.018511
    17  O    0.000000   0.000000   0.000000   0.262128   8.350626   0.265435
    18  H    0.000000   0.000000   0.000000  -0.018511   0.265435   0.322377
 Mulliken atomic charges:
              1
     1  F   -0.359623
     2  C    0.407658
     3  C   -0.174555
     4  C   -0.302831
     5  C    1.210250
     6  F   -0.380631
     7  F   -0.380455
     8  F   -0.371404
     9  C    0.175971
    10  N   -0.779621
    11  C    0.181094
    12  S   -0.225474
    13  H    0.276340
    14  H    0.289570
    15  H    0.442660
    16  H    0.437815
    17  O   -0.877485
    18  H    0.430721
 Sum of Mulliken atomic charges =   0.00000
 Mulliken charges with hydrogens summed into heavy atoms:
              1
     1  F   -0.359623
     2  C    0.407658
     3  C    0.101785
     4  C   -0.302831
     5  C    1.210250
     6  F   -0.380631
     7  F   -0.380455
     8  F   -0.371404
     9  C    0.465541
    10  N   -0.336961
    11  C    0.181094
    12  S   -0.225474
    17  O   -0.008948
 Sum of Mulliken charges with hydrogens summed into heavy atoms =   0.00000
 Electronic spatial extent (au):  <R**2>=           3883.7075
 Charge=              0.0000 electrons
 Dipole moment (field-independent basis, Debye):
    X=              2.7212    Y=             -2.0107    Z=              2.1579  Tot=              4.0131
 Quadrupole moment (field-independent basis, Debye-Ang):
   XX=           -110.3166   YY=            -65.3412   ZZ=            -96.1396
   XY=              4.0024   XZ=              9.9305   YZ=              1.4697
 Traceless Quadrupole moment (field-independent basis, Debye-Ang):
   XX=            -19.7175   YY=             25.2579   ZZ=             -5.5405
   XY=              4.0024   XZ=              9.9305   YZ=              1.4697
 Octapole moment (field-independent basis, Debye-Ang**2):
  XXX=             -8.6472  YYY=            -25.5833  ZZZ=            147.4552  XYY=             18.6629
  XXY=             -7.7730  XXZ=             70.6111  XZZ=            -69.1505  YZZ=            -30.2545
  YYZ=             12.2431  XYZ=              7.5696
 Hexadecapole moment (field-independent basis, Debye-Ang**3):
 XXXX=          -3463.3069 YYYY=           -544.3351 ZZZZ=          -1031.8000 XXXY=           -225.5462
 XXXZ=            505.0860 YYYX=            -68.3022 YYYZ=             85.0808 ZZZX=            588.1060
 ZZZY=            288.9635 XXYY=           -569.5003 XXZZ=           -892.9954 YYZZ=           -226.0904
 XXYZ=             97.8855 YYXZ=             49.0322 ZZXY=           -156.0982
 N-N= 9.032827838086D+02 E-N=-4.543997854279D+03  KE= 1.152539001347D+03
 1\1\GINC-B1\FOpt\RHF\6-31G(d)\C6H5F4N1O1S1\ANA\24-Sep-2021\1\\#HF/6-31
 G* Opt=Z-matrix NoSymm\\water interaction with atom F7\\0,1\F,-1,-1.96
 93,2.05368,0.00007\C,-1,-1.22225,0.94423,0.00003\C,-1,0.14003,1.0574,-
 0.00002\C,-1,0.92795,-0.12364,-0.00008\C,-1,2.41466,-0.01865,-0.00001\
 F,-1,3.00708,-1.23461,-0.00056\F,-1,2.85829,0.65448,-1.08602\F,-1,2.85
 827,0.6535,1.08665\C,-1,0.30654,-1.34149,-0.00009\N,-1,-1.05417,-1.389
 97,-0.00006\C,-1,-1.9305,-0.3121,0.\S,-1,-3.57098,-0.50661,0.00003\H,-
 1,0.59686,2.0431,-0.00002\H,-1,0.83176,-2.28899,-0.00015\H,-1,-1.52148
 ,-2.29639,-0.00009\X,7,RDUM,5,ADUM,4,DDUM,0\X,16,RDUM,7,ADUM,5,DDUM,0\
 H,7,RX,16,ADUM,17,DH1,0\X,18,RDUM,7,ADUM,16,DDUM,0\O,18,ROH,19,ADUM,7,
 DOH2,0\H,20,ROH,18,AHOH,16,DH2,0\\RX=2.36591585\RDUM=1.\ROH=0.9572\ADU
 M=90.\AHOH=104.52\DDUM=0.\DH1=180.\DOH2=180.\DH2=90.\\Version=EM64L-G0
 9RevA.01\HF=-1154.6742785\RMSD=4.121e-09\RMSF=2.919e-03\Dipole=1.07060
 47,-0.7910804,0.8489931\Quadrupole=-14.659458,18.7786495,-4.1191915,2.
 9756615,7.3830904,1.0926663\PG=C01 [X(C6H5F4N1O1S1)]\\@


 One man practicing sportsmanship is far better than 50 preaching it.
 -- Knute K. Rockne
 Job cpu time:  0 days  0 hours  3 minutes 10.3 seconds.
 File lengths (MBytes):  RWF=     26 Int=      0 D2E=      0 Chk=      3 Scr=      1
 Normal termination of Gaussian 09 at Fri Sep 24 08:08:51 2021.
