 Entering Gaussian System, Link 0=g16
 Initial command:
 /home/alexey/programs//g16/l1.exe "/home/alexey/tmp/Gau-1385330.inp" -scrdir="/home/alexey/tmp/"
 Entering Link 1 = /home/alexey/programs//g16/l1.exe PID=   1385332.
  
 Copyright (c) 1988-2021, Gaussian, Inc.  All Rights Reserved.
  
 This is part of the Gaussian(R) 16 program.  It is based on
 the Gaussian(R) 09 system (copyright 2009, Gaussian, Inc.),
 the Gaussian(R) 03 system (copyright 2003, Gaussian, Inc.),
 the Gaussian(R) 98 system (copyright 1998, Gaussian, Inc.),
 the Gaussian(R) 94 system (copyright 1995, Gaussian, Inc.),
 the Gaussian 92(TM) system (copyright 1992, Gaussian, Inc.),
 the Gaussian 90(TM) system (copyright 1990, Gaussian, Inc.),
 the Gaussian 88(TM) system (copyright 1988, Gaussian, Inc.),
 the Gaussian 86(TM) system (copyright 1986, Carnegie Mellon
 University), and the Gaussian 82(TM) system (copyright 1983,
 Carnegie Mellon University). Gaussian is a federally registered
 trademark of Gaussian, Inc.
  
 This software contains proprietary and confidential information,
 including trade secrets, belonging to Gaussian, Inc.
  
 This software is provided under written license and may be
 used, copied, transmitted, or stored only in accord with that
 written license.
  
 The following legend is applicable only to US Government
 contracts under FAR:
  
                    RESTRICTED RIGHTS LEGEND
  
 Use, reproduction and disclosure by the US Government is
 subject to restrictions as set forth in subparagraphs (a)
 and (c) of the Commercial Computer Software - Restricted
 Rights clause in FAR 52.227-19.
  
 Gaussian, Inc.
 340 Quinnipiac St., Bldg. 40, Wallingford CT 06492
  
  
 ---------------------------------------------------------------
 Warning -- This program may not be used in any manner that
 competes with the business of Gaussian, Inc. or will provide
 assistance to any competitor of Gaussian, Inc.  The licensee
 of this program is prohibited from giving any competitor of
 Gaussian, Inc. access to this program.  By using this program,
 the user acknowledges that Gaussian, Inc. is engaged in the
 business of creating and licensing software in the field of
 computational chemistry and represents and warrants to the
 licensee that it is not a competitor of Gaussian, Inc. and that
 it will not use this program in any manner prohibited above.
 ---------------------------------------------------------------
  

 Cite this work as:
 Gaussian 16, Revision C.02,
 M. J. Frisch, G. W. Trucks, H. B. Schlegel, G. E. Scuseria, 
 M. A. Robb, J. R. Cheeseman, G. Scalmani, V. Barone, 
 G. A. Petersson, H. Nakatsuji, X. Li, M. Caricato, A. V. Marenich, 
 J. Bloino, B. G. Janesko, R. Gomperts, B. Mennucci, H. P. Hratchian, 
 J. V. Ortiz, A. F. Izmaylov, J. L. Sonnenberg, D. Williams-Young, 
 F. Ding, F. Lipparini, F. Egidi, J. Goings, B. Peng, A. Petrone, 
 T. Henderson, D. Ranasinghe, V. G. Zakrzewski, J. Gao, N. Rega, 
 G. Zheng, W. Liang, M. Hada, M. Ehara, K. Toyota, R. Fukuda, 
 J. Hasegawa, M. Ishida, T. Nakajima, Y. Honda, O. Kitao, H. Nakai, 
 T. Vreven, K. Throssell, J. A. Montgomery, Jr., J. E. Peralta, 
 F. Ogliaro, M. J. Bearpark, J. J. Heyd, E. N. Brothers, K. N. Kudin, 
 V. N. Staroverov, T. A. Keith, R. Kobayashi, J. Normand, 
 K. Raghavachari, A. P. Rendell, J. C. Burant, S. S. Iyengar, 
 J. Tomasi, M. Cossi, J. M. Millam, M. Klene, C. Adamo, R. Cammi, 
 J. W. Ochterski, R. L. Martin, K. Morokuma, O. Farkas, 
 J. B. Foresman, and D. J. Fox, Gaussian, Inc., Wallingford CT, 2019.
 
 ******************************************
 Gaussian 16:  ES64L-G16RevC.02  7-Dec-2021
                 1-Jul-2023 
 ******************************************
 %mem=8GB
 %NPROCS=4
 Will use up to    4 processors via shared memory.
 %NoSave
 ---------------------------------------------------------
 #MP2/6-31G* SCF=Tight Opt=(ModRedun, MaxCycle=20 ) NoSymm
 ---------------------------------------------------------
 1/6=20,18=120,19=15,38=1/1,3;
 2/9=110,12=2,15=1,17=6,18=5,40=1/2;
 3/5=1,6=6,7=1,11=9,25=1,30=1,71=1/1,2,3;
 4//1;
 5/5=2,32=2,38=5/2;
 8/6=4,10=2/1;
 9/15=2,16=-3/6;
 10/5=1,31=1/2;
 6/7=2,8=2,9=2,10=2/1;
 7/12=2,30=1/1,2,3,16;
 1/6=20,18=20,19=15/3(2);
 2/9=110,15=1/2;
 99//99;
 2/9=110,15=1/2;
 3/5=1,6=6,7=1,11=9,25=1,30=1,71=1/1,2,3;
 4/5=5,16=3,69=1/1;
 5/5=2,32=2,38=5/2;
 8/6=4,10=2/1;
 9/15=2,16=-3/6;
 10/5=1,31=1/2;
 7/12=2,30=1/1,2,3,16;
 1/6=20,18=20,19=15/3(-8);
 2/9=110,15=1/2;
 6/7=2,8=2,9=2,10=2/1;
 99/9=10/99;
 --------
 MolName:
 --------
 Symbolic Z-matrix:
 Charge =  0 Multiplicity = 1
 8                    0    -3.56944  -1.48778  -0.05947 
 7                    0    -3.22098  -0.32113   0.11372 
 8                    0    -4.00235   0.59561   0.36959 
 6                    0    -1.73734   0.00469  -0.03377 
 6                    0    -1.33744   1.29795   0.32404 
 7                    0    -0.07862   1.85229   0.25146 
 6                    0     1.16257   0.99816   0.3029 
 1                    0     1.79729   1.48209   1.09162 
 6                    0     2.0052    1.05187  -0.99738 
 6                    0     3.40384   0.45943  -0.74128 
 6                    0     3.30876  -0.96014  -0.16239 
 6                    0     2.39624  -0.99854   1.08155 
 6                    0     0.97384  -0.45425   0.77491 
 1                    0     0.39458  -0.49703   1.7277 
 7                    0     0.35721  -1.31272  -0.23695 
 6                    0    -0.86983  -1.07558  -0.5578 
 1                    0    -2.11222   1.98071   0.7107 
 1                    0     0.1273    2.79109  -0.09886 
 1                    0     1.49557   0.4827   -1.80396 
 1                    0     2.11776   2.10305  -1.33854 
 1                    0     3.98753   0.44172  -1.68768 
 1                    0     3.94664   1.1063   -0.01616 
 1                    0     2.89607  -1.64205  -0.94002 
 1                    0     4.32319  -1.32981   0.1031 
 1                    0     2.31593  -2.04714   1.44341 
 1                    0     2.85491  -0.39555   1.89334 
 1                    0    -1.37719  -1.75996  -1.25477 
 
 The following ModRedundant input section has been read:
 A       5       6       7 F                                                   
 D       1       2       4      16 F                                           
 D       7      13      15      16 F                                           
 D       7       9      10      11 F                                           
 D       9      10      11      12 F                                           
 D       6       7      13      15 F                                           
 

 GradGradGradGradGradGradGradGradGradGradGradGradGradGradGradGradGradGrad
 Berny optimization.
 Initialization pass.
                           ----------------------------
                           !    Initial Parameters    !
                           ! (Angstroms and Degrees)  !
 --------------------------                            --------------------------
 ! Name  Definition              Value          Derivative Info.                !
 --------------------------------------------------------------------------------
 ! R1    R(1,2)                  1.2298         estimate D2E/DX2                !
 ! R2    R(2,3)                  1.2314         estimate D2E/DX2                !
 ! R3    R(2,4)                  1.5261         estimate D2E/DX2                !
 ! R4    R(4,5)                  1.4002         estimate D2E/DX2                !
 ! R5    R(4,16)                 1.4813         estimate D2E/DX2                !
 ! R6    R(5,6)                  1.3774         estimate D2E/DX2                !
 ! R7    R(5,17)                 1.1027         estimate D2E/DX2                !
 ! R8    R(6,7)                  1.5076         estimate D2E/DX2                !
 ! R9    R(6,18)                 1.023          estimate D2E/DX2                !
 ! R10   R(7,8)                  1.1221         estimate D2E/DX2                !
 ! R11   R(7,9)                  1.5504         estimate D2E/DX2                !
 ! R12   R(7,13)                 1.5388         estimate D2E/DX2                !
 ! R13   R(9,10)                 1.5404         estimate D2E/DX2                !
 ! R14   R(9,19)                 1.111          estimate D2E/DX2                !
 ! R15   R(9,20)                 1.1109         estimate D2E/DX2                !
 ! R16   R(10,11)                1.536          estimate D2E/DX2                !
 ! R17   R(10,21)                1.1121         estimate D2E/DX2                !
 ! R18   R(10,22)                1.113          estimate D2E/DX2                !
 ! R19   R(11,12)                1.5432         estimate D2E/DX2                !
 ! R20   R(11,23)                1.1136         estimate D2E/DX2                !
 ! R21   R(11,24)                1.1118         estimate D2E/DX2                !
 ! R22   R(12,13)                1.5535         estimate D2E/DX2                !
 ! R23   R(12,25)                1.1122         estimate D2E/DX2                !
 ! R24   R(12,26)                1.1104         estimate D2E/DX2                !
 ! R25   R(13,14)                1.1159         estimate D2E/DX2                !
 ! R26   R(13,15)                1.4632         estimate D2E/DX2                !
 ! R27   R(15,16)                1.2903         estimate D2E/DX2                !
 ! R28   R(16,27)                1.1007         estimate D2E/DX2                !
 ! A1    A(1,2,3)              123.7576         estimate D2E/DX2                !
 ! A2    A(1,2,4)              117.6691         estimate D2E/DX2                !
 ! A3    A(3,2,4)              118.5547         estimate D2E/DX2                !
 ! A4    A(2,4,5)              116.7533         estimate D2E/DX2                !
 ! A5    A(2,4,16)             116.6049         estimate D2E/DX2                !
 ! A6    A(5,4,16)             126.6368         estimate D2E/DX2                !
 ! A7    A(4,5,6)              128.2641         estimate D2E/DX2                !
 ! A8    A(4,5,17)             117.4405         estimate D2E/DX2                !
 ! A9    A(6,5,17)             114.2944         estimate D2E/DX2                !
 ! A10   A(5,6,7)              121.5084         Frozen                          !
 ! A11   A(5,6,18)             124.8449         estimate D2E/DX2                !
 ! A12   A(7,6,18)             111.4631         estimate D2E/DX2                !
 ! A13   A(6,7,8)              104.2023         estimate D2E/DX2                !
 ! A14   A(6,7,9)              113.5299         estimate D2E/DX2                !
 ! A15   A(6,7,13)             116.3751         estimate D2E/DX2                !
 ! A16   A(8,7,9)              105.4938         estimate D2E/DX2                !
 ! A17   A(8,7,13)             105.1191         estimate D2E/DX2                !
 ! A18   A(9,7,13)             110.8926         estimate D2E/DX2                !
 ! A19   A(7,9,10)             109.9213         estimate D2E/DX2                !
 ! A20   A(7,9,19)             109.9888         estimate D2E/DX2                !
 ! A21   A(7,9,20)             110.2076         estimate D2E/DX2                !
 ! A22   A(10,9,19)            109.8879         estimate D2E/DX2                !
 ! A23   A(10,9,20)            108.8443         estimate D2E/DX2                !
 ! A24   A(19,9,20)            107.957          estimate D2E/DX2                !
 ! A25   A(9,10,11)            111.2172         estimate D2E/DX2                !
 ! A26   A(9,10,21)            109.9506         estimate D2E/DX2                !
 ! A27   A(9,10,22)            109.1224         estimate D2E/DX2                !
 ! A28   A(11,10,21)           109.786          estimate D2E/DX2                !
 ! A29   A(11,10,22)           108.7703         estimate D2E/DX2                !
 ! A30   A(21,10,22)           107.9216         estimate D2E/DX2                !
 ! A31   A(10,11,12)           111.3083         estimate D2E/DX2                !
 ! A32   A(10,11,23)           109.0081         estimate D2E/DX2                !
 ! A33   A(10,11,24)           109.9252         estimate D2E/DX2                !
 ! A34   A(12,11,23)           109.1788         estimate D2E/DX2                !
 ! A35   A(12,11,24)           109.8007         estimate D2E/DX2                !
 ! A36   A(23,11,24)           107.5344         estimate D2E/DX2                !
 ! A37   A(11,12,13)           111.936          estimate D2E/DX2                !
 ! A38   A(11,12,25)           109.1728         estimate D2E/DX2                !
 ! A39   A(11,12,26)           109.362          estimate D2E/DX2                !
 ! A40   A(13,12,25)           109.1735         estimate D2E/DX2                !
 ! A41   A(13,12,26)           109.4051         estimate D2E/DX2                !
 ! A42   A(25,12,26)           107.6955         estimate D2E/DX2                !
 ! A43   A(7,13,12)            106.1966         estimate D2E/DX2                !
 ! A44   A(7,13,14)            111.2084         estimate D2E/DX2                !
 ! A45   A(7,13,15)            113.1614         estimate D2E/DX2                !
 ! A46   A(12,13,14)           107.0569         estimate D2E/DX2                !
 ! A47   A(12,13,15)           108.4685         estimate D2E/DX2                !
 ! A48   A(14,13,15)           110.4386         estimate D2E/DX2                !
 ! A49   A(13,15,16)           117.7033         estimate D2E/DX2                !
 ! A50   A(4,16,15)            127.0861         estimate D2E/DX2                !
 ! A51   A(4,16,27)            114.0479         estimate D2E/DX2                !
 ! A52   A(15,16,27)           118.7856         estimate D2E/DX2                !
 ! D1    D(1,2,4,5)           -172.499          estimate D2E/DX2                !
 ! D2    D(1,2,4,16)             8.2583         Frozen                          !
 ! D3    D(3,2,4,5)              9.0111         estimate D2E/DX2                !
 ! D4    D(3,2,4,16)          -170.2316         estimate D2E/DX2                !
 ! D5    D(2,4,5,6)           -178.0585         estimate D2E/DX2                !
 ! D6    D(2,4,5,17)             1.5554         estimate D2E/DX2                !
 ! D7    D(16,4,5,6)             1.0977         estimate D2E/DX2                !
 ! D8    D(16,4,5,17)         -179.2883         estimate D2E/DX2                !
 ! D9    D(2,4,16,15)         -145.9808         estimate D2E/DX2                !
 ! D10   D(2,4,16,27)           30.6909         estimate D2E/DX2                !
 ! D11   D(5,4,16,15)           34.8619         estimate D2E/DX2                !
 ! D12   D(5,4,16,27)         -148.4665         estimate D2E/DX2                !
 ! D13   D(4,5,6,7)            -25.7174         estimate D2E/DX2                !
 ! D14   D(4,5,6,18)           136.0332         estimate D2E/DX2                !
 ! D15   D(17,5,6,7)           154.6585         estimate D2E/DX2                !
 ! D16   D(17,5,6,18)          -43.5909         estimate D2E/DX2                !
 ! D17   D(5,6,7,8)           -129.4587         estimate D2E/DX2                !
 ! D18   D(5,6,7,9)            116.2896         estimate D2E/DX2                !
 ! D19   D(5,6,7,13)           -14.257          estimate D2E/DX2                !
 ! D20   D(18,6,7,8)            66.5723         estimate D2E/DX2                !
 ! D21   D(18,6,7,9)           -47.6795         estimate D2E/DX2                !
 ! D22   D(18,6,7,13)         -178.2261         estimate D2E/DX2                !
 ! D23   D(6,7,9,10)           165.6521         estimate D2E/DX2                !
 ! D24   D(6,7,9,19)           -73.2264         estimate D2E/DX2                !
 ! D25   D(6,7,9,20)            45.686          estimate D2E/DX2                !
 ! D26   D(8,7,9,10)            52.1743         estimate D2E/DX2                !
 ! D27   D(8,7,9,19)           173.2958         estimate D2E/DX2                !
 ! D28   D(8,7,9,20)           -67.7918         estimate D2E/DX2                !
 ! D29   D(13,7,9,10)          -61.1245         estimate D2E/DX2                !
 ! D30   D(13,7,9,19)           59.997          estimate D2E/DX2                !
 ! D31   D(13,7,9,20)          178.9094         estimate D2E/DX2                !
 ! D32   D(6,7,13,12)         -166.0929         estimate D2E/DX2                !
 ! D33   D(6,7,13,14)          -49.9669         estimate D2E/DX2                !
 ! D34   D(6,7,13,15)           75.0219         Frozen                          !
 ! D35   D(8,7,13,12)          -51.407          estimate D2E/DX2                !
 ! D36   D(8,7,13,14)           64.719          estimate D2E/DX2                !
 ! D37   D(8,7,13,15)         -170.2922         estimate D2E/DX2                !
 ! D38   D(9,7,13,12)           62.1286         estimate D2E/DX2                !
 ! D39   D(9,7,13,14)          178.2546         estimate D2E/DX2                !
 ! D40   D(9,7,13,15)          -56.7566         estimate D2E/DX2                !
 ! D41   D(7,9,10,11)           54.8118         Frozen                          !
 ! D42   D(7,9,10,21)          176.63           estimate D2E/DX2                !
 ! D43   D(7,9,10,22)          -65.1839         estimate D2E/DX2                !
 ! D44   D(19,9,10,11)         -66.3703         estimate D2E/DX2                !
 ! D45   D(19,9,10,21)          55.448          estimate D2E/DX2                !
 ! D46   D(19,9,10,22)         173.6341         estimate D2E/DX2                !
 ! D47   D(20,9,10,11)         175.6026         estimate D2E/DX2                !
 ! D48   D(20,9,10,21)         -62.5791         estimate D2E/DX2                !
 ! D49   D(20,9,10,22)          55.607          estimate D2E/DX2                !
 ! D50   D(9,10,11,12)         -52.8218         Frozen                          !
 ! D51   D(9,10,11,23)          67.6642         estimate D2E/DX2                !
 ! D52   D(9,10,11,24)        -174.7022         estimate D2E/DX2                !
 ! D53   D(21,10,11,12)       -174.7358         estimate D2E/DX2                !
 ! D54   D(21,10,11,23)        -54.2498         estimate D2E/DX2                !
 ! D55   D(21,10,11,24)         63.3838         estimate D2E/DX2                !
 ! D56   D(22,10,11,12)         67.3824         estimate D2E/DX2                !
 ! D57   D(22,10,11,23)       -172.1317         estimate D2E/DX2                !
 ! D58   D(22,10,11,24)        -54.498          estimate D2E/DX2                !
 ! D59   D(10,11,12,13)         56.4777         estimate D2E/DX2                !
 ! D60   D(10,11,12,25)        177.4676         estimate D2E/DX2                !
 ! D61   D(10,11,12,26)        -64.9331         estimate D2E/DX2                !
 ! D62   D(23,11,12,13)        -63.9076         estimate D2E/DX2                !
 ! D63   D(23,11,12,25)         57.0822         estimate D2E/DX2                !
 ! D64   D(23,11,12,26)        174.6816         estimate D2E/DX2                !
 ! D65   D(24,11,12,13)        178.4303         estimate D2E/DX2                !
 ! D66   D(24,11,12,25)        -60.5798         estimate D2E/DX2                !
 ! D67   D(24,11,12,26)         57.0196         estimate D2E/DX2                !
 ! D68   D(11,12,13,7)         -59.8463         estimate D2E/DX2                !
 ! D69   D(11,12,13,14)       -178.7385         estimate D2E/DX2                !
 ! D70   D(11,12,13,15)         62.0801         estimate D2E/DX2                !
 ! D71   D(25,12,13,7)         179.1643         estimate D2E/DX2                !
 ! D72   D(25,12,13,14)         60.272          estimate D2E/DX2                !
 ! D73   D(25,12,13,15)        -58.9093         estimate D2E/DX2                !
 ! D74   D(26,12,13,7)          61.5397         estimate D2E/DX2                !
 ! D75   D(26,12,13,14)        -57.3526         estimate D2E/DX2                !
 ! D76   D(26,12,13,15)       -176.5339         estimate D2E/DX2                !
 ! D77   D(7,13,15,16)         -67.1599         Frozen                          !
 ! D78   D(12,13,15,16)        175.2759         estimate D2E/DX2                !
 ! D79   D(14,13,15,16)         58.2439         estimate D2E/DX2                !
 ! D80   D(13,15,16,4)           1.5025         estimate D2E/DX2                !
 ! D81   D(13,15,16,27)       -175.0293         estimate D2E/DX2                !
 --------------------------------------------------------------------------------
 Trust Radius=3.00D-01 FncErr=1.00D-07 GrdErr=1.00D-07 EigMax=2.50D+02 EigMin=1.00D-04
 Number of steps in this run=     20 maximum allowed number of steps=    162.
 GradGradGradGradGradGradGradGradGradGradGradGradGradGradGradGradGradGrad

                          Input orientation:                          
 ---------------------------------------------------------------------
 Center     Atomic      Atomic             Coordinates (Angstroms)
 Number     Number       Type             X           Y           Z
 ---------------------------------------------------------------------
      1          8           0       -3.569440   -1.487780   -0.059470
      2          7           0       -3.220980   -0.321130    0.113720
      3          8           0       -4.002350    0.595610    0.369590
      4          6           0       -1.737340    0.004690   -0.033770
      5          6           0       -1.337440    1.297950    0.324040
      6          7           0       -0.078620    1.852290    0.251460
      7          6           0        1.162570    0.998160    0.302900
      8          1           0        1.797290    1.482090    1.091620
      9          6           0        2.005200    1.051870   -0.997380
     10          6           0        3.403840    0.459430   -0.741280
     11          6           0        3.308760   -0.960140   -0.162390
     12          6           0        2.396240   -0.998540    1.081550
     13          6           0        0.973840   -0.454250    0.774910
     14          1           0        0.394580   -0.497030    1.727700
     15          7           0        0.357210   -1.312720   -0.236950
     16          6           0       -0.869830   -1.075580   -0.557800
     17          1           0       -2.112220    1.980710    0.710700
     18          1           0        0.127300    2.791090   -0.098860
     19          1           0        1.495570    0.482700   -1.803960
     20          1           0        2.117760    2.103050   -1.338540
     21          1           0        3.987530    0.441720   -1.687680
     22          1           0        3.946640    1.106300   -0.016160
     23          1           0        2.896070   -1.642050   -0.940020
     24          1           0        4.323190   -1.329810    0.103100
     25          1           0        2.315930   -2.047140    1.443410
     26          1           0        2.854910   -0.395550    1.893340
     27          1           0       -1.377190   -1.759960   -1.254770
 ---------------------------------------------------------------------
                    Distance matrix (angstroms):
                    1          2          3          4          5
     1  O    0.000000
     2  N    1.229834   0.000000
     3  O    2.170718   1.231430   0.000000
     4  C    2.363201   1.526139   2.375322   0.000000
     5  C    3.590153   2.492665   2.756284   1.400168   0.000000
     6  N    4.841340   3.823239   4.121754   2.499267   1.377385
     7  C    5.357530   4.581684   5.181013   3.083798   2.518009
     8  H    6.240747   5.421340   5.911260   3.992846   3.232587
     9  C    6.197266   5.516578   6.177980   4.003965   3.602770
    10  C    7.272078   6.725217   7.490276   5.209519   4.931304
    11  C    6.899176   6.566740   7.493710   5.139121   5.188715
    12  C    6.093490   5.740099   6.632507   4.397373   4.448377
    13  C    4.733473   4.248695   5.101858   2.866197   2.935218
    14  H    4.459710   3.963350   4.729833   2.810620   2.862186
    15  N    3.934555   3.729566   4.797434   2.482739   3.162617
    16  C    2.775993   2.558914   3.669552   1.481271   2.574868
    17  H    3.840192   2.623776   2.368005   2.144627   1.102702
    18  H    5.654747   4.576252   4.700382   3.353378   2.133958
    19  H    5.707921   5.154559   5.913053   3.716688   3.635789
    20  H    6.846483   6.040518   6.530377   4.579010   3.918005
    21  H    7.967549   7.469244   8.251922   5.974994   5.756340
    22  H    7.951263   7.309528   7.974713   5.789774   5.298487
    23  H    6.527020   6.346140   7.369559   5.000153   5.306982
    24  H    7.895884   7.611311   8.549437   6.207225   6.244731
    25  H    6.099927   5.950173   6.932379   4.777140   5.078359
    26  H    6.802845   6.331589   7.094098   4.996269   4.786068
    27  H    2.511729   2.709716   3.883133   2.175900   3.441662
                    6          7          8          9         10
     6  N    0.000000
     7  C    1.507560   0.000000
     8  H    2.088529   1.122113   0.000000
     9  C    2.557847   1.550367   2.142950   0.000000
    10  C    3.879835   2.530580   2.643172   1.540379   0.000000
    11  C    4.422146   2.942374   3.133938   2.538634   1.536012
    12  C    3.865387   2.472862   2.551934   2.946022   2.542370
    13  C    2.588783   1.538801   2.127860   2.544231   3.006417
    14  H    2.814695   2.203510   2.507810   3.524095   4.008282
    15  N    3.231993   2.506035   3.413194   2.980841   3.560452
    16  C    3.139003   3.028507   4.046701   3.603480   4.544687
    17  H    2.088761   3.443248   3.959544   4.553397   5.903343
    18  H    1.022972   2.108979   2.433021   2.712698   4.072475
    19  H    2.928925   2.194413   3.078019   1.110967   2.184336
    20  H    2.723062   2.197156   2.528630   1.110873   2.170762
    21  H    4.720545   3.500348   3.688364   2.185962   1.112061
    22  H    4.102541   2.804379   2.447059   2.175993   1.113046
    23  H    4.741183   3.394198   3.885245   2.837982   2.171070
    24  H    5.433572   3.930507   3.906933   3.500933   2.181642
    25  H    4.728654   3.450341   3.584440   3.957003   3.498473
    26  H    4.044027   2.708494   2.299314   3.342648   2.823745
    27  H    4.123513   4.060042   5.108205   4.406041   5.296000
                   11         12         13         14         15
    11  C    0.000000
    12  C    1.543228   0.000000
    13  C    2.566380   1.553545   0.000000
    14  H    3.504191   2.162329   1.115877   0.000000
    15  N    2.973469   2.448427   1.463237   2.127580   0.000000
    16  C    4.198844   3.655218   2.358238   2.675250   1.290274
    17  H    6.228797   5.416611   3.931529   3.668451   4.224075
    18  H    4.919090   4.571953   3.465882   3.770874   4.112564
    19  H    2.839753   3.366221   2.792964   3.826836   2.641007
    20  H    3.490694   3.943887   3.509274   4.373968   3.997564
    21  H    2.180011   3.503596   3.993675   5.045331   4.285079
    22  H    2.167590   2.835323   3.449442   4.269525   4.334099
    23  H    1.113563   2.179606   2.836692   3.832134   2.654915
    24  H    1.111849   2.186376   3.526483   4.332069   3.980568
    25  H    2.178503   1.112184   2.187555   2.485005   2.683201
    26  H    2.179626   1.110395   2.189236   2.467987   3.408496
    27  H    4.877616   4.502991   3.369246   3.691787   2.060127
                   16         17         18         19         20
    16  C    0.000000
    17  H    3.534619   0.000000
    18  H    4.019457   2.515463   0.000000
    19  H    3.094555   4.645826   3.179338   0.000000
    20  H    4.431584   4.701817   2.443796   1.797017   0.000000
    21  H    5.212751   6.732582   4.790122   2.495008   2.525462
    22  H    5.315295   6.164633   4.175250   3.097233   2.467185
    23  H    3.827399   6.397831   5.293994   2.687444   3.845824
    24  H    5.241076   7.262453   5.884564   3.862319   4.327444
    25  H    3.885594   6.030668   5.529663   4.197439   5.000259
    26  H    4.510456   5.631841   4.643640   4.035983   4.151077
    27  H    1.100708   4.289050   4.930687   3.685632   5.210042
                   21         22         23         24         25
    21  H    0.000000
    22  H    1.799255   0.000000
    23  H    2.468274   3.083933   0.000000
    24  H    2.541236   2.467923   1.795067   0.000000
    25  H    4.335020   3.838456   2.486242   2.517953   0.000000
    26  H    3.848058   2.663385   3.095704   2.496727   1.794627
    27  H    5.815069   6.171934   4.286458   5.875642   4.582770
                   26         27
    26  H    0.000000
    27  H    5.448200   0.000000
 Symmetry turned off by external request.
 Stoichiometry    C9H13N3O2
 Framework group  C1[X(C9H13N3O2)]
 Deg. of freedom    75
 Full point group                 C1      NOp   1
 Rotational constants (GHZ):           1.6682527           0.4056174           0.3582900
 Standard basis: 6-31G(d) (6D, 7F)
   236 basis functions,   444 primitive gaussians,   236 cartesian basis functions
    52 alpha electrons       52 beta electrons
       nuclear repulsion energy       919.0258341391 Hartrees.
 NAtoms=   27 NActive=   27 NUniq=   27 SFac= 1.00D+00 NAtFMM=   60 NAOKFM=F Big=F
 Integral buffers will be    131072 words long.
 Raffenetti 1 integral format.
 Two-electron integral symmetry is turned off.
 One-electron integrals computed using PRISM.
 NBasis=   236 RedAO= T EigKep=  1.29D-03  NBF=   236
 NBsUse=   236 1.00D-06 EigRej= -1.00D+00 NBFU=   236
 ExpMin= 1.61D-01 ExpMax= 5.48D+03 ExpMxC= 8.25D+02 IAcc=3 IRadAn=         5 AccDes= 0.00D+00
 Harris functional with IExCor=  205 and IRadAn=       5 diagonalized for initial guess.
 HarFok:  IExCor=  205 AccDes= 0.00D+00 IRadAn=         5 IDoV= 1 UseB2=F ITyADJ=14
 ICtDFT=  3500011 ScaDFX=  1.000000  1.000000  1.000000  1.000000
 FoFCou: FMM=F IPFlag=           0 FMFlag=      100000 FMFlg1=           0
         NFxFlg=           0 DoJE=T BraDBF=F KetDBF=T FulRan=T
         wScrn=  0.000000 ICntrl=       500 IOpCl=  0 I1Cent=   200000004 NGrid=           0
         NMat0=    1 NMatS0=      1 NMatT0=    0 NMatD0=    1 NMtDS0=    0 NMtDT0=    0
 Symmetry not used in FoFCou.
 Keep R1 ints in memory in canonical form, NReq=397720213.
 Requested convergence on RMS density matrix=1.00D-08 within 128 cycles.
 Requested convergence on MAX density matrix=1.00D-06.
 Requested convergence on             energy=1.00D-06.
 No special actions if energy rises.
 SCF Done:  E(RHF) =  -661.270795123     A.U. after   16 cycles
            NFock= 16  Conv=0.89D-08     -V/T= 2.0037
 ExpMin= 1.61D-01 ExpMax= 5.48D+03 ExpMxC= 8.25D+02 IAcc=3 IRadAn=         5 AccDes= 0.00D+00
 HarFok:  IExCor=  205 AccDes= 0.00D+00 IRadAn=         5 IDoV=-2 UseB2=F ITyADJ=14
 ICtDFT= 12500011 ScaDFX=  1.000000  1.000000  1.000000  1.000000
 Range of M.O.s used for correlation:    15   236
 NBasis=   236 NAE=    52 NBE=    52 NFC=    14 NFV=     0
 NROrb=    222 NOA=    38 NOB=    38 NVA=   184 NVB=   184
 Fully direct method using O(ONN) memory.
 JobTyp=1 Pass  1:  I=  15 to  52 NPSUse=  4 ParTrn=T ParDer=T DoDerP=T.
 Spin components of T(2) and E(2):
     alpha-alpha T2 =       0.9193729155D-01 E2=     -0.2717142009D+00
     alpha-beta  T2 =       0.5007056630D+00 E2=     -0.1494762734D+01
     beta-beta   T2 =       0.9193729155D-01 E2=     -0.2717142009D+00
 ANorm=    0.1297913805D+01
 E2 =    -0.2038191136D+01 EUMP2 =    -0.66330898625957D+03
          IDoAtm=111111111111111111111111111
          Differentiating once with respect to electric field.
                with respect to dipole field.
          Differentiating once with respect to nuclear coordinates.
 Keep R1 ints in memory in canonical form, NReq=397723379.
          There are     1 degrees of freedom in the 1st order CPHF.  IDoFFX=0 NUNeed=     1.
 LinEq1:  Iter=  0 NonCon=     1 RMS=4.58D-03 Max=1.06D-01 NDo=     1
 AX will form     1 AO Fock derivatives at one time.
 LinEq1:  Iter=  1 NonCon=     1 RMS=1.56D-03 Max=3.14D-02 NDo=     1
 LinEq1:  Iter=  2 NonCon=     1 RMS=6.37D-04 Max=1.67D-02 NDo=     1
 LinEq1:  Iter=  3 NonCon=     1 RMS=2.95D-04 Max=9.02D-03 NDo=     1
 LinEq1:  Iter=  4 NonCon=     1 RMS=9.18D-05 Max=2.05D-03 NDo=     1
 LinEq1:  Iter=  5 NonCon=     1 RMS=3.88D-05 Max=2.00D-03 NDo=     1
 LinEq1:  Iter=  6 NonCon=     1 RMS=1.58D-05 Max=5.93D-04 NDo=     1
 LinEq1:  Iter=  7 NonCon=     1 RMS=6.24D-06 Max=1.11D-04 NDo=     1
 LinEq1:  Iter=  8 NonCon=     1 RMS=2.58D-06 Max=7.02D-05 NDo=     1
 LinEq1:  Iter=  9 NonCon=     1 RMS=9.92D-07 Max=2.81D-05 NDo=     1
 LinEq1:  Iter= 10 NonCon=     1 RMS=4.78D-07 Max=1.48D-05 NDo=     1
 LinEq1:  Iter= 11 NonCon=     1 RMS=1.65D-07 Max=5.85D-06 NDo=     1
 LinEq1:  Iter= 12 NonCon=     1 RMS=5.71D-08 Max=8.77D-07 NDo=     1
 LinEq1:  Iter= 13 NonCon=     1 RMS=1.81D-08 Max=4.40D-07 NDo=     1
 LinEq1:  Iter= 14 NonCon=     1 RMS=5.77D-09 Max=1.63D-07 NDo=     1
 LinEq1:  Iter= 15 NonCon=     1 RMS=2.00D-09 Max=4.42D-08 NDo=     1
 LinEq1:  Iter= 16 NonCon=     1 RMS=7.42D-10 Max=1.11D-08 NDo=     1
 LinEq1:  Iter= 17 NonCon=     1 RMS=2.58D-10 Max=4.99D-09 NDo=     1
 LinEq1:  Iter= 18 NonCon=     0 RMS=8.68D-11 Max=9.91D-10 NDo=     1
 Linear equations converged to 1.000D-10 1.000D-09 after    18 iterations.
 End of Minotr F.D. properties file   721 does not exist.
 End of Minotr F.D. properties file   722 does not exist.
 End of Minotr F.D. properties file   788 does not exist.

 **********************************************************************

            Population analysis using the SCF Density.

 **********************************************************************

 Alpha  occ. eigenvalues --  -20.60163 -20.59659 -15.85542 -15.62434 -15.57399
 Alpha  occ. eigenvalues --  -11.35492 -11.30587 -11.30504 -11.29737 -11.27970
 Alpha  occ. eigenvalues --  -11.24449 -11.23738 -11.23537 -11.22848  -1.58763
 Alpha  occ. eigenvalues --   -1.38260  -1.27945  -1.23122  -1.13124  -1.08424
 Alpha  occ. eigenvalues --   -1.01766  -1.00440  -0.93408  -0.89122  -0.84788
 Alpha  occ. eigenvalues --   -0.81604  -0.78367  -0.76651  -0.74263  -0.71144
 Alpha  occ. eigenvalues --   -0.70544  -0.69988  -0.67406  -0.64363  -0.63647
 Alpha  occ. eigenvalues --   -0.61075  -0.60705  -0.57309  -0.56181  -0.54842
 Alpha  occ. eigenvalues --   -0.53182  -0.50726  -0.49025  -0.48633  -0.47731
 Alpha  occ. eigenvalues --   -0.47242  -0.46052  -0.45633  -0.44176  -0.42225
 Alpha  occ. eigenvalues --   -0.40622  -0.34118
 Alpha virt. eigenvalues --    0.06653   0.11557   0.18905   0.21389   0.22994
 Alpha virt. eigenvalues --    0.24002   0.26344   0.27396   0.28559   0.28997
 Alpha virt. eigenvalues --    0.30078   0.30970   0.31878   0.32233   0.33302
 Alpha virt. eigenvalues --    0.33689   0.34022   0.35691   0.37528   0.38864
 Alpha virt. eigenvalues --    0.40902   0.42130   0.44652   0.45443   0.45567
 Alpha virt. eigenvalues --    0.46321   0.49472   0.53042   0.57686   0.58693
 Alpha virt. eigenvalues --    0.63050   0.69162   0.70128   0.72136   0.74067
 Alpha virt. eigenvalues --    0.75193   0.75709   0.75918   0.77411   0.79925
 Alpha virt. eigenvalues --    0.80344   0.83633   0.85059   0.85310   0.88228
 Alpha virt. eigenvalues --    0.88422   0.90543   0.91385   0.91958   0.93680
 Alpha virt. eigenvalues --    0.96010   0.97187   0.98474   0.99848   1.01844
 Alpha virt. eigenvalues --    1.02793   1.05311   1.05716   1.06944   1.08238
 Alpha virt. eigenvalues --    1.09201   1.10482   1.10811   1.11714   1.13319
 Alpha virt. eigenvalues --    1.13572   1.14509   1.15015   1.16217   1.17036
 Alpha virt. eigenvalues --    1.17955   1.19729   1.20779   1.21844   1.23298
 Alpha virt. eigenvalues --    1.23798   1.24505   1.26059   1.26567   1.27392
 Alpha virt. eigenvalues --    1.29091   1.30938   1.32684   1.34790   1.40393
 Alpha virt. eigenvalues --    1.43357   1.43588   1.46840   1.47725   1.50852
 Alpha virt. eigenvalues --    1.53286   1.55500   1.61166   1.62120   1.65978
 Alpha virt. eigenvalues --    1.68282   1.70235   1.72229   1.74072   1.74686
 Alpha virt. eigenvalues --    1.79598   1.81532   1.84250   1.88882   1.92686
 Alpha virt. eigenvalues --    1.93717   1.96095   1.96981   1.99296   2.00379
 Alpha virt. eigenvalues --    2.03316   2.04634   2.05883   2.08304   2.11816
 Alpha virt. eigenvalues --    2.11959   2.15369   2.16951   2.18006   2.19010
 Alpha virt. eigenvalues --    2.20333   2.22565   2.23899   2.24519   2.27017
 Alpha virt. eigenvalues --    2.29758   2.32341   2.34369   2.35981   2.36430
 Alpha virt. eigenvalues --    2.39012   2.39582   2.41428   2.42840   2.46490
 Alpha virt. eigenvalues --    2.48038   2.50367   2.52737   2.55995   2.57536
 Alpha virt. eigenvalues --    2.61550   2.63038   2.66768   2.68122   2.68958
 Alpha virt. eigenvalues --    2.70155   2.71028   2.75379   2.77819   2.80354
 Alpha virt. eigenvalues --    2.83259   2.88762   2.90553   2.92042   2.95234
 Alpha virt. eigenvalues --    2.97641   2.98500   3.01534   3.02698   3.05829
 Alpha virt. eigenvalues --    3.06829   3.11866   3.20038   3.22001   3.26896
 Alpha virt. eigenvalues --    3.27777   3.32057   3.36187   3.43769   3.57487
 Alpha virt. eigenvalues --    4.09163   4.22708   4.32660   4.36258   4.42875
 Alpha virt. eigenvalues --    4.53363   4.59274   4.60548   4.70563   4.76932
 Alpha virt. eigenvalues --    4.94496   4.99219   5.02035   5.10278
          Condensed to atoms (all electrons):
               1          2          3          4          5          6
     1  O    8.296664   0.313299  -0.089525  -0.079232   0.003225  -0.000014
     2  N    0.313299   5.692368   0.308267   0.259411  -0.042782   0.001022
     3  O   -0.089525   0.308267   8.325324  -0.085191   0.006282   0.000415
     4  C   -0.079232   0.259411  -0.085191   5.236124   0.565612  -0.049043
     5  C    0.003225  -0.042782   0.006282   0.565612   4.684916   0.304580
     6  N   -0.000014   0.001022   0.000415  -0.049043   0.304580   7.197465
     7  C    0.000004  -0.000119  -0.000001   0.002032  -0.039256   0.206587
     8  H   -0.000000   0.000003  -0.000000  -0.000032   0.001588  -0.054872
     9  C   -0.000000  -0.000003   0.000000   0.000329   0.002889  -0.056218
    10  C   -0.000000   0.000000  -0.000000  -0.000010  -0.000104   0.003307
    11  C   -0.000000  -0.000000  -0.000000  -0.000026   0.000013  -0.000136
    12  C   -0.000000   0.000002  -0.000000   0.000143  -0.000092   0.003124
    13  C   -0.000025  -0.000049  -0.000003  -0.014818   0.000788  -0.033172
    14  H   -0.000007  -0.000033  -0.000000   0.003304   0.006121  -0.004818
    15  N    0.000019   0.001747  -0.000016  -0.061227  -0.004668   0.001937
    16  C    0.004887  -0.030407   0.001901   0.321047  -0.040881  -0.002157
    17  H    0.000116  -0.003579   0.010726  -0.034942   0.384425  -0.037410
    18  H    0.000000  -0.000031   0.000009   0.000347  -0.020215   0.326641
    19  H    0.000000   0.000001   0.000000  -0.000512   0.000295   0.001173
    20  H    0.000000  -0.000000   0.000000  -0.000020   0.000099  -0.002756
    21  H   -0.000000  -0.000000   0.000000  -0.000000   0.000002  -0.000057
    22  H   -0.000000   0.000000  -0.000000  -0.000000  -0.000003  -0.000098
    23  H    0.000000  -0.000000   0.000000   0.000023   0.000000  -0.000021
    24  H   -0.000000   0.000000   0.000000   0.000000  -0.000000   0.000004
    25  H    0.000000  -0.000000   0.000000   0.000015   0.000001  -0.000056
    26  H   -0.000000  -0.000000   0.000000   0.000009  -0.000002  -0.000057
    27  H    0.004381  -0.000025  -0.000020  -0.063749   0.002203   0.000075
               7          8          9         10         11         12
     1  O    0.000004  -0.000000  -0.000000  -0.000000  -0.000000  -0.000000
     2  N   -0.000119   0.000003  -0.000003   0.000000  -0.000000   0.000002
     3  O   -0.000001  -0.000000   0.000000  -0.000000  -0.000000  -0.000000
     4  C    0.002032  -0.000032   0.000329  -0.000010  -0.000026   0.000143
     5  C   -0.039256   0.001588   0.002889  -0.000104   0.000013  -0.000092
     6  N    0.206587  -0.054872  -0.056218   0.003307  -0.000136   0.003124
     7  C    4.991867   0.419503   0.335663  -0.048792  -0.007468  -0.060121
     8  H    0.419503   0.559842  -0.063425   0.001490  -0.000471  -0.003054
     9  C    0.335663  -0.063425   5.189684   0.317854  -0.052689  -0.007030
    10  C   -0.048792   0.001490   0.317854   5.123945   0.333240  -0.060061
    11  C   -0.007468  -0.000471  -0.052689   0.333240   5.122082   0.330730
    12  C   -0.060121  -0.003054  -0.007030  -0.060061   0.330730   5.133407
    13  C    0.337000  -0.044442  -0.046431  -0.002069  -0.048116   0.366383
    14  H   -0.040914  -0.000995   0.004044  -0.000408   0.003951  -0.040962
    15  N   -0.059481   0.004367  -0.012695   0.001501  -0.007477  -0.073144
    16  C   -0.003206   0.000060  -0.000995  -0.000005  -0.000009   0.002921
    17  H    0.002096  -0.000010  -0.000083   0.000001   0.000000   0.000001
    18  H   -0.024821  -0.000963   0.000964  -0.000112   0.000011  -0.000095
    19  H   -0.035186   0.004334   0.384190  -0.032540  -0.002390   0.000699
    20  H   -0.041434  -0.001956   0.398207  -0.037833   0.004188  -0.000338
    21  H    0.004012  -0.000065  -0.036059   0.400223  -0.036165   0.004259
    22  H   -0.003956   0.003542  -0.045686   0.396230  -0.045433  -0.001406
    23  H    0.000353   0.000034  -0.002007  -0.040264   0.397061  -0.037222
    24  H   -0.000150  -0.000095   0.004386  -0.038314   0.400123  -0.037765
    25  H    0.004764   0.000012  -0.000355   0.004121  -0.034268   0.396371
    26  H   -0.004327   0.001830   0.000952  -0.002464  -0.041845   0.394561
    27  H   -0.000431   0.000010  -0.000056   0.000005   0.000003  -0.000019
              13         14         15         16         17         18
     1  O   -0.000025  -0.000007   0.000019   0.004887   0.000116   0.000000
     2  N   -0.000049  -0.000033   0.001747  -0.030407  -0.003579  -0.000031
     3  O   -0.000003  -0.000000  -0.000016   0.001901   0.010726   0.000009
     4  C   -0.014818   0.003304  -0.061227   0.321047  -0.034942   0.000347
     5  C    0.000788   0.006121  -0.004668  -0.040881   0.384425  -0.020215
     6  N   -0.033172  -0.004818   0.001937  -0.002157  -0.037410   0.326641
     7  C    0.337000  -0.040914  -0.059481  -0.003206   0.002096  -0.024821
     8  H   -0.044442  -0.000995   0.004367   0.000060  -0.000010  -0.000963
     9  C   -0.046431   0.004044  -0.012695  -0.000995  -0.000083   0.000964
    10  C   -0.002069  -0.000408   0.001501  -0.000005   0.000001  -0.000112
    11  C   -0.048116   0.003951  -0.007477  -0.000009   0.000000   0.000011
    12  C    0.366383  -0.040962  -0.073144   0.002921   0.000001  -0.000095
    13  C    5.038070   0.399208   0.236379  -0.071911  -0.000042   0.002613
    14  H    0.399208   0.522332  -0.035865  -0.005353   0.000096   0.000004
    15  N    0.236379  -0.035865   6.920074   0.585719  -0.000084  -0.000095
    16  C   -0.071911  -0.005353   0.585719   4.710308   0.001676  -0.000220
    17  H   -0.000042   0.000096  -0.000084   0.001676   0.400149  -0.001198
    18  H    0.002613   0.000004  -0.000095  -0.000220  -0.001198   0.307904
    19  H   -0.006746   0.000058   0.006988   0.002536   0.000010  -0.000082
    20  H    0.003798  -0.000049   0.000060  -0.000027  -0.000000   0.003360
    21  H   -0.000374   0.000009  -0.000020   0.000002  -0.000000  -0.000001
    22  H    0.000368  -0.000047   0.000002  -0.000001   0.000000   0.000003
    23  H   -0.005590   0.000004   0.006470   0.000032   0.000000   0.000000
    24  H    0.004152  -0.000059   0.000040   0.000005   0.000000  -0.000000
    25  H   -0.034648  -0.002746   0.000467  -0.000055  -0.000000   0.000002
    26  H   -0.044348  -0.000977   0.004153  -0.000079   0.000000  -0.000000
    27  H    0.004915  -0.000188  -0.038504   0.400849  -0.000060   0.000003
              19         20         21         22         23         24
     1  O    0.000000   0.000000  -0.000000  -0.000000   0.000000  -0.000000
     2  N    0.000001  -0.000000  -0.000000   0.000000  -0.000000   0.000000
     3  O    0.000000   0.000000   0.000000  -0.000000   0.000000   0.000000
     4  C   -0.000512  -0.000020  -0.000000  -0.000000   0.000023   0.000000
     5  C    0.000295   0.000099   0.000002  -0.000003   0.000000  -0.000000
     6  N    0.001173  -0.002756  -0.000057  -0.000098  -0.000021   0.000004
     7  C   -0.035186  -0.041434   0.004012  -0.003956   0.000353  -0.000150
     8  H    0.004334  -0.001956  -0.000065   0.003542   0.000034  -0.000095
     9  C    0.384190   0.398207  -0.036059  -0.045686  -0.002007   0.004386
    10  C   -0.032540  -0.037833   0.400223   0.396230  -0.040264  -0.038314
    11  C   -0.002390   0.004188  -0.036165  -0.045433   0.397061   0.400123
    12  C    0.000699  -0.000338   0.004259  -0.001406  -0.037222  -0.037765
    13  C   -0.006746   0.003798  -0.000374   0.000368  -0.005590   0.004152
    14  H    0.000058  -0.000049   0.000009  -0.000047   0.000004  -0.000059
    15  N    0.006988   0.000060  -0.000020   0.000002   0.006470   0.000040
    16  C    0.002536  -0.000027   0.000002  -0.000001   0.000032   0.000005
    17  H    0.000010  -0.000000  -0.000000   0.000000   0.000000   0.000000
    18  H   -0.000082   0.003360  -0.000001   0.000003   0.000000  -0.000000
    19  H    0.511809  -0.024501  -0.002579   0.003784   0.001653  -0.000068
    20  H   -0.024501   0.553049  -0.002608  -0.003015  -0.000050  -0.000091
    21  H   -0.002579  -0.002608   0.528450  -0.024875  -0.002866  -0.002054
    22  H    0.003784  -0.003015  -0.024875   0.567866   0.004076  -0.003582
    23  H    0.001653  -0.000050  -0.002866   0.004076   0.511868  -0.025038
    24  H   -0.000068  -0.000091  -0.002054  -0.003582  -0.025038   0.540924
    25  H   -0.000027   0.000010  -0.000087  -0.000083  -0.002159  -0.002321
    26  H    0.000026  -0.000035  -0.000076   0.002484   0.003842  -0.002815
    27  H    0.000073  -0.000000  -0.000000   0.000000  -0.000018  -0.000000
              25         26         27
     1  O    0.000000  -0.000000   0.004381
     2  N   -0.000000  -0.000000  -0.000025
     3  O    0.000000   0.000000  -0.000020
     4  C    0.000015   0.000009  -0.063749
     5  C    0.000001  -0.000002   0.002203
     6  N   -0.000056  -0.000057   0.000075
     7  C    0.004764  -0.004327  -0.000431
     8  H    0.000012   0.001830   0.000010
     9  C   -0.000355   0.000952  -0.000056
    10  C    0.004121  -0.002464   0.000005
    11  C   -0.034268  -0.041845   0.000003
    12  C    0.396371   0.394561  -0.000019
    13  C   -0.034648  -0.044348   0.004915
    14  H   -0.002746  -0.000977  -0.000188
    15  N    0.000467   0.004153  -0.038504
    16  C   -0.000055  -0.000079   0.400849
    17  H   -0.000000   0.000000  -0.000060
    18  H    0.000002  -0.000000   0.000003
    19  H   -0.000027   0.000026   0.000073
    20  H    0.000010  -0.000035  -0.000000
    21  H   -0.000087  -0.000076  -0.000000
    22  H   -0.000083   0.002484   0.000000
    23  H   -0.002159   0.003842  -0.000018
    24  H   -0.002321  -0.002815  -0.000000
    25  H    0.510082  -0.023137  -0.000008
    26  H   -0.023137   0.557607   0.000001
    27  H   -0.000008   0.000001   0.453648
 Mulliken charges:
               1
     1  O   -0.453791
     2  N    0.500908
     3  O   -0.478168
     4  C    0.000404
     5  C    0.184965
     6  N   -0.805443
     7  C    0.065778
     8  H    0.173765
     9  C   -0.315432
    10  C   -0.318941
    11  C   -0.314911
    12  C   -0.311291
    13  C   -0.040892
    14  H    0.194290
    15  N   -0.476647
    16  C    0.123363
    17  H    0.278113
    18  H    0.405971
    19  H    0.187003
    20  H    0.151941
    21  H    0.170930
    22  H    0.149831
    23  H    0.189818
    24  H    0.162718
    25  H    0.184107
    26  H    0.154697
    27  H    0.236914
 Sum of Mulliken charges =  -0.00000
 Mulliken charges with hydrogens summed into heavy atoms:
               1
     1  O   -0.453791
     2  N    0.500908
     3  O   -0.478168
     4  C    0.000404
     5  C    0.463078
     6  N   -0.399473
     7  C    0.239543
     9  C    0.023512
    10  C    0.001819
    11  C    0.037626
    12  C    0.027513
    13  C    0.153398
    15  N   -0.476647
    16  C    0.360277
 Electronic spatial extent (au):  <R**2>=           3099.5023
 Charge=             -0.0000 electrons
 Dipole moment (field-independent basis, Debye):
    X=              5.1023    Y=              4.1906    Z=              0.1106  Tot=              6.6035
 Quadrupole moment (field-independent basis, Debye-Ang):
   XX=           -104.8272   YY=            -81.0230   ZZ=            -81.9648
   XY=             -2.1467   XZ=              2.2180   YZ=             -0.8857
 Traceless Quadrupole moment (field-independent basis, Debye-Ang):
   XX=            -15.5555   YY=              8.2487   ZZ=              7.3068
   XY=             -2.1467   XZ=              2.2180   YZ=             -0.8857
 Octapole moment (field-independent basis, Debye-Ang**2):
  XXX=             94.5010  YYY=             36.3371  ZZZ=             -7.1678  XYY=             -0.9318
  XXY=             11.7316  XXZ=             -7.6777  XZZ=             -9.4552  YZZ=             -2.8156
  YYZ=             -3.2462  XYZ=             -2.7337
 Hexadecapole moment (field-independent basis, Debye-Ang**3):
 XXXX=          -3493.0346 YYYY=           -629.7658 ZZZZ=           -298.4948 XXXY=            -55.8395
 XXXZ=             85.9298 YYYX=            -32.0890 YYYZ=              1.8359 ZZZX=             52.0432
 ZZZY=             12.5105 XXYY=           -653.2081 XXZZ=           -537.9757 YYZZ=           -164.5836
 XXYZ=              2.9307 YYXZ=             20.4426 ZZXY=             -0.6754
 N-N= 9.190258341391D+02 E-N=-3.384042795179D+03  KE= 6.588630620399D+02
 Calling FoFJK, ICntrl=  10002127 FMM=F ISym2X=0 I1Cent= 0 IOpClX= 0 NMat=1 NMatS=1 NMatT=0.
 -------------------------------------------------------------------
 Center     Atomic                   Forces (Hartrees/Bohr)
 Number     Number              X              Y              Z
 -------------------------------------------------------------------
      1        8           0.003353624   -0.019475084   -0.004716220
      2        7           0.035900759    0.015696752   -0.001504936
      3        8          -0.005221656    0.014458329    0.004590168
      4        6           0.000803595    0.015697547    0.012334251
      5        6          -0.010551856   -0.001624109   -0.011812695
      6        7           0.015531317   -0.045996442    0.002930245
      7        6           0.009127972    0.021846696    0.000666437
      8        1          -0.007562841   -0.003126056   -0.007944431
      9        6          -0.003644156   -0.001830480   -0.001819484
     10        6           0.003052520   -0.000441925    0.000636621
     11        6          -0.001426426   -0.004631192   -0.002864476
     12        6           0.001977419   -0.006604208   -0.002780534
     13        6           0.005804951    0.001599856    0.006640926
     14        1           0.000044945    0.004322093   -0.010069488
     15        7           0.000998826    0.002447615   -0.003239012
     16        6          -0.021990347    0.002081278    0.006214717
     17        1           0.002557123   -0.005100972   -0.011120456
     18        1          -0.014986074   -0.002849731    0.009551687
     19        1           0.002972573    0.006001184    0.007361677
     20        1          -0.003623232   -0.007248191    0.002559556
     21        1          -0.004698738    0.002239559    0.009396003
     22        1          -0.003735360   -0.004005623   -0.007664827
     23        1           0.003792896    0.006065315    0.009404464
     24        1          -0.009332674    0.002614418   -0.002479078
     25        1          -0.001252551    0.010712718   -0.002402289
     26        1          -0.004731344   -0.004897369   -0.004717349
     27        1           0.006838734    0.002048022    0.002848523
 -------------------------------------------------------------------
 Cartesian Forces:  Max     0.045996442 RMS     0.010014360

 GradGradGradGradGradGradGradGradGradGradGradGradGradGradGradGradGradGrad
 Berny optimization.
 FormGI is forming the generalized inverse of G from B-inverse, IUseBI=4.
 Internal  Forces:  Max     0.038509403 RMS     0.006944746
 Search for a local minimum.
 Step number   1 out of a maximum of   20
 All quantities printed in internal units (Hartrees-Bohrs-Radians)
 Mixed Optimization -- RFO/linear search
 Second derivative matrix not updated -- first step.
 ITU=  0
     Eigenvalues ---    0.00233   0.00742   0.01010   0.01152   0.01181
     Eigenvalues ---    0.01518   0.01586   0.01864   0.01991   0.02040
     Eigenvalues ---    0.02069   0.02656   0.03616   0.04519   0.04719
     Eigenvalues ---    0.04838   0.05043   0.05143   0.05292   0.05892
     Eigenvalues ---    0.06448   0.07341   0.07776   0.07794   0.08003
     Eigenvalues ---    0.08030   0.08058   0.08111   0.10517   0.11815
     Eigenvalues ---    0.12419   0.13687   0.15227   0.15983   0.16000
     Eigenvalues ---    0.16636   0.20406   0.22941   0.24997   0.25000
     Eigenvalues ---    0.25000   0.25241   0.25997   0.26625   0.27984
     Eigenvalues ---    0.28094   0.28463   0.29783   0.29836   0.31350
     Eigenvalues ---    0.31986   0.32226   0.32280   0.32370   0.32383
     Eigenvalues ---    0.32405   0.32498   0.32508   0.32558   0.33299
     Eigenvalues ---    0.33385   0.33604   0.35457   0.43867   0.43972
     Eigenvalues ---    0.47298   0.66350   0.90493   0.911561000.00000
     Eigenvalues --- 1000.000001000.000001000.000001000.000001000.00000
     Eigenvalues --- 1000.000001000.000001000.000001000.000001000.00000
     Eigenvalues --- 1000.000001000.000001000.000001000.000001000.00000
     Eigenvalues --- 1000.000001000.000001000.000001000.000001000.00000
     Eigenvalues --- 1000.000001000.000001000.000001000.000001000.00000
     Eigenvalues --- 1000.000001000.000001000.000001000.000001000.00000
     Eigenvalues --- 1000.000001000.000001000.000001000.000001000.00000
     Eigenvalues --- 1000.000001000.000001000.000001000.000001000.00000
     Eigenvalues --- 1000.000001000.000001000.000001000.000001000.00000
     Eigenvalues --- 1000.000001000.000001000.000001000.000001000.00000
     Eigenvalues --- 1000.000001000.000001000.000001000.000001000.00000
     Eigenvalues --- 1000.000001000.000001000.000001000.000001000.00000
     Eigenvalues --- 1000.000001000.000001000.000001000.000001000.00000
     Eigenvalues --- 1000.000001000.000001000.000001000.000001000.00000
     Eigenvalues --- 1000.000001000.000001000.000001000.000001000.00000
     Eigenvalues --- 1000.000001000.000001000.000001000.000001000.00000
     Eigenvalues --- 1000.000001000.000001000.000001000.000001000.00000
     Eigenvalues --- 1000.000001000.000001000.000001000.000001000.00000
     Eigenvalues --- 1000.00000
 RFO step:  Lambda=-2.40812057D-02 EMin= 2.32510321D-03
 Linear search not attempted -- first point.
 Iteration  1 RMS(Cart)=  0.05542019 RMS(Int)=  0.00112464
 Iteration  2 RMS(Cart)=  0.00140861 RMS(Int)=  0.00017911
 Iteration  3 RMS(Cart)=  0.00000156 RMS(Int)=  0.00017910
 Iteration  4 RMS(Cart)=  0.00000000 RMS(Int)=  0.00017910
 Iteration  1 RMS(Cart)=  0.00005634 RMS(Int)=  0.00004937
 Iteration  2 RMS(Cart)=  0.00003658 RMS(Int)=  0.00005442
 Iteration  3 RMS(Cart)=  0.00002411 RMS(Int)=  0.00006232
 Iteration  4 RMS(Cart)=  0.00001608 RMS(Int)=  0.00006903
 Iteration  5 RMS(Cart)=  0.00001090 RMS(Int)=  0.00007407
 Iteration  6 RMS(Cart)=  0.00000755 RMS(Int)=  0.00007776
 Iteration  7 RMS(Cart)=  0.00000540 RMS(Int)=  0.00008043
 Iteration  8 RMS(Cart)=  0.00000401 RMS(Int)=  0.00008237
 Iteration  9 RMS(Cart)=  0.00000310 RMS(Int)=  0.00008381
 Iteration 10 RMS(Cart)=  0.00000248 RMS(Int)=  0.00008488
 Iteration 11 RMS(Cart)=  0.00000204 RMS(Int)=  0.00008570
 Iteration 12 RMS(Cart)=  0.00000170 RMS(Int)=  0.00008633
 Iteration 13 RMS(Cart)=  0.00000143 RMS(Int)=  0.00008682
 Iteration 14 RMS(Cart)=  0.00000122 RMS(Int)=  0.00008720
 Iteration 15 RMS(Cart)=  0.00000103 RMS(Int)=  0.00008751
 Iteration 16 RMS(Cart)=  0.00000088 RMS(Int)=  0.00008777
 Variable       Old X    -DE/DX   Delta X   Delta X   Delta X     New X
                                 (Linear)    (Quad)   (Total)
    R1        2.32405   0.01819   0.00000   0.01944   0.01944   2.34349
    R2        2.32707   0.01503   0.00000   0.01618   0.01618   2.34325
    R3        2.88398  -0.03552   0.00000  -0.11035  -0.11035   2.77363
    R4        2.64593  -0.03851   0.00000  -0.08364  -0.08351   2.56242
    R5        2.79920  -0.01429   0.00000  -0.05114  -0.05078   2.74842
    R6        2.60288  -0.02089   0.00000  -0.03544  -0.03564   2.56724
    R7        2.08380  -0.00885   0.00000  -0.02474  -0.02474   2.05907
    R8        2.84888  -0.02321   0.00000  -0.05404  -0.05446   2.79441
    R9        1.93314  -0.00890   0.00000  -0.01924  -0.01924   1.91390
   R10        2.12049  -0.01121   0.00000  -0.03321  -0.03321   2.08728
   R11        2.92977  -0.01302   0.00000  -0.04266  -0.04269   2.88708
   R12        2.90791  -0.00983   0.00000  -0.02066  -0.02088   2.88703
   R13        2.91089  -0.00556   0.00000  -0.01583  -0.01583   2.89506
   R14        2.09942  -0.00978   0.00000  -0.02803  -0.02803   2.07140
   R15        2.09925  -0.00801   0.00000  -0.02295  -0.02295   2.07630
   R16        2.90264  -0.00159   0.00000  -0.00892  -0.00891   2.89373
   R17        2.10149  -0.01050   0.00000  -0.03018  -0.03018   2.07132
   R18        2.10335  -0.00914   0.00000  -0.02636  -0.02636   2.07699
   R19        2.91628  -0.00835   0.00000  -0.02814  -0.02812   2.88816
   R20        2.10433  -0.01169   0.00000  -0.03375  -0.03375   2.07058
   R21        2.10109  -0.00998   0.00000  -0.02866  -0.02866   2.07243
   R22        2.93577  -0.01038   0.00000  -0.03738  -0.03737   2.89840
   R23        2.10172  -0.01079   0.00000  -0.03103  -0.03103   2.07069
   R24        2.09834  -0.00806   0.00000  -0.02306  -0.02306   2.07529
   R25        2.10870  -0.00879   0.00000  -0.02555  -0.02555   2.08315
   R26        2.76512  -0.00309   0.00000  -0.00704  -0.00702   2.75809
   R27        2.43826  -0.00218   0.00000  -0.00872  -0.00835   2.42992
   R28        2.08004  -0.00623   0.00000  -0.01730  -0.01730   2.06274
    A1        2.15998   0.01120   0.00000   0.04124   0.04091   2.20089
    A2        2.05371  -0.00980   0.00000  -0.03541  -0.03574   2.01797
    A3        2.06917  -0.00139   0.00000  -0.00471  -0.00504   2.06413
    A4        2.03773  -0.00572   0.00000  -0.02440  -0.02438   2.01335
    A5        2.03514  -0.00369   0.00000  -0.01691  -0.01689   2.01825
    A6        2.21023   0.00940   0.00000   0.04115   0.04102   2.25125
    A7        2.23863  -0.00519   0.00000   0.01837   0.01757   2.25620
    A8        2.04972  -0.00060   0.00000  -0.02657  -0.02627   2.02346
    A9        1.99481   0.00579   0.00000   0.00808   0.00837   2.00319
   A10        2.12072   0.01357   0.00000   0.00000  -0.00000   2.12072
   A11        2.17895  -0.01906   0.00000  -0.07010  -0.07003   2.10893
   A12        1.94540   0.00589   0.00000   0.06986   0.06982   2.01522
   A13        1.81867   0.00197   0.00000  -0.00291  -0.00265   1.81602
   A14        1.98147   0.00301   0.00000  -0.00807  -0.00788   1.97359
   A15        2.03113  -0.00831   0.00000  -0.00583  -0.00684   2.02428
   A16        1.84121   0.00081   0.00000   0.02268   0.02249   1.86370
   A17        1.83467   0.00180   0.00000   0.00983   0.00999   1.84466
   A18        1.93544   0.00159   0.00000  -0.00969  -0.00941   1.92603
   A19        1.91849  -0.00053   0.00000  -0.00340  -0.00351   1.91498
   A20        1.91967  -0.00026   0.00000  -0.00889  -0.00885   1.91082
   A21        1.92349  -0.00163   0.00000  -0.01036  -0.01036   1.91312
   A22        1.91791  -0.00066   0.00000   0.00671   0.00662   1.92453
   A23        1.89969   0.00370   0.00000   0.02253   0.02264   1.92233
   A24        1.88421  -0.00059   0.00000  -0.00627  -0.00651   1.87769
   A25        1.94111  -0.00225   0.00000   0.00143   0.00115   1.94226
   A26        1.91900  -0.00014   0.00000  -0.00413  -0.00409   1.91491
   A27        1.90455   0.00063   0.00000  -0.00294  -0.00289   1.90166
   A28        1.91613   0.00129   0.00000   0.00842   0.00849   1.92461
   A29        1.89840   0.00193   0.00000   0.01082   0.01091   1.90931
   A30        1.88359  -0.00142   0.00000  -0.01399  -0.01409   1.86950
   A31        1.94270   0.00012   0.00000   0.00177   0.00200   1.94469
   A32        1.90255   0.00099   0.00000   0.00748   0.00733   1.90988
   A33        1.91856   0.00032   0.00000   0.00526   0.00527   1.92383
   A34        1.90553  -0.00081   0.00000  -0.01110  -0.01115   1.89438
   A35        1.91638  -0.00043   0.00000  -0.00068  -0.00078   1.91560
   A36        1.87683  -0.00020   0.00000  -0.00297  -0.00298   1.87385
   A37        1.95365  -0.00129   0.00000  -0.01651  -0.01656   1.93709
   A38        1.90543   0.00281   0.00000   0.01749   0.01727   1.92269
   A39        1.90873   0.00049   0.00000   0.01517   0.01520   1.92393
   A40        1.90544  -0.00113   0.00000  -0.00931  -0.00909   1.89634
   A41        1.90948  -0.00030   0.00000  -0.00309  -0.00306   1.90641
   A42        1.87964  -0.00055   0.00000  -0.00330  -0.00354   1.87610
   A43        1.85348   0.00181   0.00000   0.01630   0.01633   1.86981
   A44        1.94095  -0.00288   0.00000  -0.03368  -0.03382   1.90713
   A45        1.97504   0.00039   0.00000   0.02384   0.02366   1.99870
   A46        1.86850   0.00275   0.00000   0.03386   0.03407   1.90256
   A47        1.89313  -0.00089   0.00000  -0.02778  -0.02766   1.86548
   A48        1.92752  -0.00086   0.00000  -0.01054  -0.01016   1.91735
   A49        2.05431  -0.00526   0.00000  -0.01057  -0.01092   2.04339
   A50        2.21807  -0.00216   0.00000  -0.01881  -0.01907   2.19900
   A51        1.99051   0.00575   0.00000   0.03544   0.03511   2.02562
   A52        2.07320  -0.00342   0.00000  -0.01436  -0.01469   2.05851
    D1       -3.01067  -0.00081   0.00000  -0.01224  -0.01181  -3.02249
    D2        0.14413  -0.00053   0.00000   0.00000  -0.00000   0.14413
    D3        0.15727  -0.00152   0.00000  -0.05829  -0.05807   0.09920
    D4       -2.97110  -0.00124   0.00000  -0.04605  -0.04626  -3.01736
    D5       -3.10771  -0.00334   0.00000  -0.03693  -0.03699   3.13849
    D6        0.02715  -0.00308   0.00000  -0.06020  -0.05990  -0.03275
    D7        0.01916  -0.00378   0.00000  -0.05114  -0.05129  -0.03213
    D8       -3.12917  -0.00352   0.00000  -0.07441  -0.07420   3.07982
    D9       -2.54784  -0.00307   0.00000  -0.04006  -0.04039  -2.58823
   D10        0.53566   0.00027   0.00000   0.00658   0.00661   0.54227
   D11        0.60846  -0.00261   0.00000  -0.02581  -0.02600   0.58246
   D12       -2.59123   0.00073   0.00000   0.02083   0.02100  -2.57023
   D13       -0.44885   0.00327   0.00000   0.07930   0.07964  -0.36922
   D14        2.37423   0.00615   0.00000   0.09082   0.09097   2.46519
   D15        2.69930   0.00304   0.00000   0.10207   0.10244   2.80174
   D16       -0.76080   0.00591   0.00000   0.11359   0.11377  -0.64704
   D17       -2.25948  -0.00112   0.00000  -0.04981  -0.04968  -2.30916
   D18        2.02964  -0.00468   0.00000  -0.07124  -0.07108   1.95855
   D19       -0.24883  -0.00186   0.00000  -0.04266  -0.04270  -0.29153
   D20        1.16191   0.00085   0.00000  -0.03794  -0.03778   1.12413
   D21       -0.83216  -0.00271   0.00000  -0.05937  -0.05918  -0.89134
   D22       -3.11063   0.00011   0.00000  -0.03079  -0.03080  -3.14143
   D23        2.89117   0.00679   0.00000   0.02648   0.02680   2.91797
   D24       -1.27804   0.00546   0.00000   0.02693   0.02713  -1.25091
   D25        0.79737   0.00357   0.00000   0.00727   0.00756   0.80493
   D26        0.91061   0.00248   0.00000   0.02043   0.02053   0.93114
   D27        3.02458   0.00115   0.00000   0.02087   0.02086   3.04544
   D28       -1.18319  -0.00074   0.00000   0.00121   0.00129  -1.18190
   D29       -1.06682  -0.00080   0.00000   0.00133   0.00123  -1.06559
   D30        1.04714  -0.00213   0.00000   0.00177   0.00156   1.04871
   D31        3.12256  -0.00402   0.00000  -0.01789  -0.01800   3.10455
   D32       -2.89887  -0.00100   0.00000  -0.00997  -0.00961  -2.90848
   D33       -0.87209   0.00184   0.00000   0.02237   0.02238  -0.84971
   D34        1.30938  -0.00130   0.00000   0.00000  -0.00001   1.30937
   D35       -0.89722  -0.00173   0.00000  -0.01003  -0.00984  -0.90706
   D36        1.12956   0.00110   0.00000   0.02231   0.02215   1.15171
   D37       -2.97216  -0.00203   0.00000  -0.00006  -0.00023  -2.97239
   D38        1.08435   0.00091   0.00000   0.01719   0.01735   1.10170
   D39        3.11113   0.00375   0.00000   0.04953   0.04934  -3.12271
   D40       -0.99059   0.00061   0.00000   0.02716   0.02696  -0.96363
   D41        0.95665   0.00034   0.00000   0.00000   0.00000   0.95665
   D42        3.08278   0.00037   0.00000   0.00877   0.00871   3.09148
   D43       -1.13767  -0.00107   0.00000  -0.01241  -0.01240  -1.15007
   D44       -1.15838   0.00142   0.00000   0.00892   0.00901  -1.14937
   D45        0.96775   0.00145   0.00000   0.01769   0.01771   0.98546
   D46        3.03049   0.00002   0.00000  -0.00350  -0.00339   3.02710
   D47        3.06484   0.00033   0.00000  -0.00071  -0.00071   3.06413
   D48       -1.09221   0.00036   0.00000   0.00806   0.00799  -1.08422
   D49        0.97053  -0.00108   0.00000  -0.01312  -0.01311   0.95741
   D50       -0.92191  -0.00086   0.00000   0.00000   0.00000  -0.92191
   D51        1.18096  -0.00113   0.00000  -0.00779  -0.00782   1.17314
   D52       -3.04913  -0.00061   0.00000  -0.00393  -0.00399  -3.05312
   D53       -3.04971  -0.00006   0.00000  -0.00147  -0.00141  -3.05113
   D54       -0.94684  -0.00034   0.00000  -0.00926  -0.00924  -0.95608
   D55        1.10626   0.00019   0.00000  -0.00540  -0.00541   1.10085
   D56        1.17604  -0.00022   0.00000   0.00425   0.00426   1.18031
   D57       -3.00426  -0.00049   0.00000  -0.00355  -0.00357  -3.00783
   D58       -0.95117   0.00003   0.00000   0.00032   0.00027  -0.95090
   D59        0.98572  -0.00008   0.00000  -0.00382  -0.00398   0.98174
   D60        3.09739  -0.00043   0.00000  -0.01435  -0.01458   3.08281
   D61       -1.13330   0.00081   0.00000   0.00052   0.00050  -1.13280
   D62       -1.11540  -0.00086   0.00000  -0.00697  -0.00704  -1.12243
   D63        0.99627  -0.00122   0.00000  -0.01750  -0.01764   0.97863
   D64        3.04877   0.00003   0.00000  -0.00263  -0.00256   3.04621
   D65        3.11420   0.00010   0.00000   0.00355   0.00350   3.11769
   D66       -1.05732  -0.00025   0.00000  -0.00698  -0.00711  -1.06442
   D67        0.99518   0.00099   0.00000   0.00789   0.00797   1.00315
   D68       -1.04451   0.00089   0.00000  -0.00988  -0.00968  -1.05419
   D69       -3.11958   0.00194   0.00000   0.00389   0.00364  -3.11594
   D70        1.08350   0.00191   0.00000   0.01255   0.01230   1.09580
   D71        3.12701  -0.00104   0.00000  -0.01487  -0.01464   3.11237
   D72        1.05195   0.00000   0.00000  -0.00109  -0.00132   1.05062
   D73       -1.02816  -0.00002   0.00000   0.00756   0.00733  -1.02083
   D74        1.07407   0.00046   0.00000  -0.00370  -0.00345   1.07062
   D75       -1.00099   0.00150   0.00000   0.01007   0.00986  -0.99113
   D76       -3.08110   0.00147   0.00000   0.01873   0.01852  -3.06258
   D77       -1.17216   0.00162   0.00000   0.00000  -0.00001  -1.17217
   D78        3.05914  -0.00028   0.00000  -0.01631  -0.01591   3.04323
   D79        1.01655  -0.00260   0.00000  -0.03489  -0.03512   0.98143
   D80        0.02622   0.00306   0.00000   0.03697   0.03637   0.06260
   D81       -3.05484  -0.00070   0.00000  -0.01307  -0.01287  -3.06771
         Item               Value     Threshold  Converged?
 Maximum Force            0.038662     0.000450     NO 
 RMS     Force            0.006826     0.000300     NO 
 Maximum Displacement     0.268366     0.001800     NO 
 RMS     Displacement     0.055785     0.001200     NO 
 Predicted change in Energy=-1.393189D-02
 GradGradGradGradGradGradGradGradGradGradGradGradGradGradGradGradGradGrad

                          Input orientation:                          
 ---------------------------------------------------------------------
 Center     Atomic      Atomic             Coordinates (Angstroms)
 Number     Number       Type             X           Y           Z
 ---------------------------------------------------------------------
      1          8           0       -3.427427   -1.469938   -0.079300
      2          7           0       -3.101121   -0.285777    0.091544
      3          8           0       -3.864467    0.648321    0.378500
      4          6           0       -1.667977    0.002833   -0.039124
      5          6           0       -1.297546    1.265230    0.289217
      6          7           0       -0.061915    1.829704    0.276231
      7          6           0        1.164847    1.005352    0.322836
      8          1           0        1.782724    1.487816    1.100954
      9          6           0        1.970223    1.056258   -0.974423
     10          6           0        3.359163    0.452047   -0.744643
     11          6           0        3.261191   -0.964101   -0.170363
     12          6           0        2.378701   -1.000860    1.076919
     13          6           0        0.982153   -0.441396    0.778431
     14          1           0        0.383183   -0.458562    1.703705
     15          7           0        0.378331   -1.318911   -0.219350
     16          6           0       -0.847979   -1.092258   -0.532749
     17          1           0       -2.103411    1.937138    0.583111
     18          1           0        0.068175    2.787259   -0.026940
     19          1           0        1.439278    0.501119   -1.756364
     20          1           0        2.061843    2.098141   -1.311016
     21          1           0        3.918497    0.441768   -1.687225
     22          1           0        3.915606    1.091821   -0.045302
     23          1           0        2.829144   -1.633380   -0.922674
     24          1           0        4.260705   -1.345227    0.071362
     25          1           0        2.274270   -2.031023    1.435469
     26          1           0        2.837937   -0.415224    1.884485
     27          1           0       -1.335109   -1.782169   -1.224282
 ---------------------------------------------------------------------
                    Distance matrix (angstroms):
                    1          2          3          4          5
     1  O    0.000000
     2  N    1.240121   0.000000
     3  O    2.210793   1.239992   0.000000
     4  C    2.294849   1.467744   2.327152   0.000000
     5  C    3.486164   2.386961   2.641521   1.355977   0.000000
     6  N    4.726596   3.707579   3.983155   2.452823   1.358523
     7  C    5.232376   4.463070   5.042278   3.026707   2.476297
     8  H    6.106307   5.293060   5.754777   3.925849   3.193200
     9  C    6.026403   5.353118   6.003367   3.901408   3.509810
    10  C    7.084809   6.555827   7.313057   5.096242   4.838912
    11  C    6.708336   6.403728   7.326401   5.024826   5.095410
    12  C    5.938687   5.613444   6.494977   4.316080   4.389809
    13  C    4.608470   4.143568   4.983689   2.808723   2.889451
    14  H    4.326978   3.843084   4.585182   2.730860   2.792326
    15  N    3.811327   3.642884   4.714739   2.442716   3.121696
    16  C    2.646094   2.473217   3.599887   1.454402   2.536826
    17  H    3.714831   2.485642   2.191856   2.078056   1.089611
    18  H    5.508693   4.416110   4.495009   3.281372   2.069232
    19  H    5.512025   4.964795   5.719180   3.585001   3.501210
    20  H    6.661862   5.857170   6.330686   4.463136   3.813133
    21  H    7.759036   7.277938   8.055086   5.841026   5.638396
    22  H    7.777139   7.151990   7.804219   5.688790   5.226751
    23  H    6.315273   6.165445   7.190524   4.866410   5.186539
    24  H    7.690620   7.437697   8.371797   6.081015   6.144600
    25  H    5.926102   5.809203   6.780866   4.674644   4.993700
    26  H    6.650087   6.205143   6.951355   4.917143   4.740361
    27  H    2.405465   2.662589   3.856661   2.168324   3.402753
                    6          7          8          9         10
     6  N    0.000000
     7  C    1.478740   0.000000
     8  H    2.049329   1.104541   0.000000
     9  C    2.508373   1.527777   2.128047   0.000000
    10  C    3.826734   2.502135   2.638978   1.532000   0.000000
    11  C    4.364381   2.918329   3.132731   2.528826   1.531297
    12  C    3.822276   2.463122   2.559154   2.933699   2.527911
    13  C    2.549545   1.527751   2.113479   2.508335   2.961110
    14  H    2.733488   2.158898   2.471925   3.462043   3.959807
    15  N    3.217638   2.512922   3.404885   2.957310   3.506791
    16  C    3.132125   3.030423   4.030678   3.571198   4.486627
    17  H    2.067226   3.408442   3.946150   4.449309   5.814477
    18  H    1.012792   2.121373   2.429068   2.740779   4.098647
    19  H    2.854848   2.156998   3.042333   1.096137   2.170702
    20  H    2.664912   2.160616   2.503598   1.098731   2.171047
    21  H    4.650290   3.455511   3.664653   2.163667   1.096093
    22  H    4.058143   2.776630   2.453548   2.156164   1.099098
    23  H    4.667820   3.359180   3.864185   2.823930   2.159079
    24  H    5.367234   3.895228   3.902125   3.479527   2.169986
    25  H    4.659056   3.418822   3.568717   3.928273   3.477861
    26  H    4.004413   2.693698   2.312780   3.330396   2.817117
    27  H    4.113172   4.051374   5.081379   4.363980   5.220917
                   11         12         13         14         15
    11  C    0.000000
    12  C    1.528349   0.000000
    13  C    2.523379   1.533767   0.000000
    14  H    3.471401   2.160796   1.102358   0.000000
    15  N    2.905025   2.404777   1.459521   2.106743   0.000000
    16  C    4.127108   3.607055   2.343544   2.630411   1.285856
    17  H    6.145230   5.381914   3.900805   3.630187   4.171911
    18  H    4.928348   4.572403   3.450824   3.691844   4.122360
    19  H    2.825179   3.341549   2.742715   3.742780   2.607783
    20  H    3.480927   3.925104   3.461325   4.294552   3.962599
    21  H    2.170113   3.477447   3.934660   4.980707   4.217514
    22  H    2.161183   2.828563   3.410929   4.235649   4.284184
    23  H    1.095706   2.145077   2.779561   3.776346   2.569054
    24  H    1.096685   2.161406   3.473581   4.299523   3.893333
    25  H    2.165878   1.095764   2.151320   2.474023   2.615361
    26  H    2.168596   1.098194   2.160549   2.461783   3.360422
    27  H    4.786017   4.438283   3.343387   3.643840   2.039699
                   16         17         18         19         20
    16  C    0.000000
    17  H    3.463884   0.000000
    18  H    4.018188   2.410530   0.000000
    19  H    3.044277   4.481733   3.177619   0.000000
    20  H    4.387643   4.578535   2.469503   1.770989   0.000000
    21  H    5.138613   6.607112   4.804461   2.480893   2.516400
    22  H    5.263036   6.110485   4.204470   3.067387   2.459908
    23  H    3.737123   6.272646   5.288415   2.680085   3.829336
    24  H    5.150495   7.178982   5.887649   3.835366   4.313091
    25  H    3.808359   5.969665   5.497393   4.158936   4.963698
    26  H    4.459526   5.625308   4.645537   4.006459   4.138907
    27  H    1.091554   4.205971   4.927728   3.632319   5.157869
                   21         22         23         24         25
    21  H    0.000000
    22  H    1.765924   0.000000
    23  H    2.465252   3.062173   0.000000
    24  H    2.530433   2.464124   1.766496   0.000000
    25  H    4.309222   3.826071   2.454963   2.505400   0.000000
    26  H    3.828728   2.675188   3.060085   2.485275   1.769221
    27  H    5.723687   6.100805   4.177812   5.760448   4.490414
                   26         27
    26  H    0.000000
    27  H    5.380268   0.000000
 Symmetry turned off by external request.
 Stoichiometry    C9H13N3O2
 Framework group  C1[X(C9H13N3O2)]
 Deg. of freedom    75
 Full point group                 C1      NOp   1
 Rotational constants (GHZ):           1.6820995           0.4264301           0.3744553
 Standard basis: 6-31G(d) (6D, 7F)
   236 basis functions,   444 primitive gaussians,   236 cartesian basis functions
    52 alpha electrons       52 beta electrons
       nuclear repulsion energy       933.2149777157 Hartrees.
 NAtoms=   27 NActive=   27 NUniq=   27 SFac= 1.00D+00 NAtFMM=   60 NAOKFM=F Big=F
 Integral buffers will be    131072 words long.
 Raffenetti 1 integral format.
 Two-electron integral symmetry is turned off.
 One-electron integrals computed using PRISM.
 NBasis=   236 RedAO= T EigKep=  1.01D-03  NBF=   236
 NBsUse=   236 1.00D-06 EigRej= -1.00D+00 NBFU=   236
 Initial guess from the checkpoint file:  "/home/alexey/tmp/Gau-1385332.chk"
 B after Tr=     0.052580    0.005986    0.002251
         Rot=    0.999999   -0.000563    0.000286    0.000976 Ang=  -0.13 deg.
 ExpMin= 1.61D-01 ExpMax= 5.48D+03 ExpMxC= 8.25D+02 IAcc=3 IRadAn=         5 AccDes= 0.00D+00
 Harris functional with IExCor=  205 and IRadAn=       5 diagonalized for initial guess.
 HarFok:  IExCor=  205 AccDes= 0.00D+00 IRadAn=         5 IDoV= 1 UseB2=F ITyADJ=14
 ICtDFT=  3500011 ScaDFX=  1.000000  1.000000  1.000000  1.000000
 FoFCou: FMM=F IPFlag=           0 FMFlag=      100000 FMFlg1=           0
         NFxFlg=           0 DoJE=T BraDBF=F KetDBF=T FulRan=T
         wScrn=  0.000000 ICntrl=       500 IOpCl=  0 I1Cent=   200000004 NGrid=           0
         NMat0=    1 NMatS0=      1 NMatT0=    0 NMatD0=    1 NMtDS0=    0 NMtDT0=    0
 Symmetry not used in FoFCou.
 Keep R1 ints in memory in canonical form, NReq=397720213.
 Requested convergence on RMS density matrix=1.00D-08 within 128 cycles.
 Requested convergence on MAX density matrix=1.00D-06.
 Requested convergence on             energy=1.00D-06.
 No special actions if energy rises.
 SCF Done:  E(RHF) =  -661.288880322     A.U. after   15 cycles
            NFock= 15  Conv=0.48D-08     -V/T= 2.0025
 ExpMin= 1.61D-01 ExpMax= 5.48D+03 ExpMxC= 8.25D+02 IAcc=3 IRadAn=         5 AccDes= 0.00D+00
 HarFok:  IExCor=  205 AccDes= 0.00D+00 IRadAn=         5 IDoV=-2 UseB2=F ITyADJ=14
 ICtDFT= 12500011 ScaDFX=  1.000000  1.000000  1.000000  1.000000
 Range of M.O.s used for correlation:    15   236
 NBasis=   236 NAE=    52 NBE=    52 NFC=    14 NFV=     0
 NROrb=    222 NOA=    38 NOB=    38 NVA=   184 NVB=   184
 Fully direct method using O(ONN) memory.
 JobTyp=1 Pass  1:  I=  15 to  52 NPSUse=  4 ParTrn=T ParDer=T DoDerP=T.
 Spin components of T(2) and E(2):
     alpha-alpha T2 =       0.9122402300D-01 E2=     -0.2722646099D+00
     alpha-beta  T2 =       0.4923039908D+00 E2=     -0.1489128633D+01
     beta-beta   T2 =       0.9122402300D-01 E2=     -0.2722646099D+00
 ANorm=    0.1294122110D+01
 E2 =    -0.2033657853D+01 EUMP2 =    -0.66332253817468D+03
          IDoAtm=111111111111111111111111111
          Differentiating once with respect to electric field.
                with respect to dipole field.
          Differentiating once with respect to nuclear coordinates.
 Keep R1 ints in memory in canonical form, NReq=397723379.
          There are     1 degrees of freedom in the 1st order CPHF.  IDoFFX=0 NUNeed=     1.
 LinEq1:  Iter=  0 NonCon=     1 RMS=4.55D-03 Max=1.06D-01 NDo=     1
 AX will form     1 AO Fock derivatives at one time.
 LinEq1:  Iter=  1 NonCon=     1 RMS=1.53D-03 Max=2.62D-02 NDo=     1
 LinEq1:  Iter=  2 NonCon=     1 RMS=6.38D-04 Max=1.74D-02 NDo=     1
 LinEq1:  Iter=  3 NonCon=     1 RMS=2.80D-04 Max=7.78D-03 NDo=     1
 LinEq1:  Iter=  4 NonCon=     1 RMS=8.75D-05 Max=1.84D-03 NDo=     1
[...]
    27  H    4.736602   4.423975   3.348734   3.638669   2.033163
                   16         17         18         19         20
    16  C    0.000000
    17  H    3.450383   0.000000
    18  H    4.149677   2.249801   0.000000
    19  H    3.001838   4.343426   3.617568   0.000000
    20  H    4.378680   4.484610   2.972550   1.767039   0.000000
    21  H    5.102445   6.528786   5.154989   2.497870   2.521721
    22  H    5.249060   6.085749   4.337978   3.069644   2.460269
    23  H    3.693204   6.218915   5.472275   2.702265   3.840381
    24  H    5.129594   7.167248   5.959271   3.848741   4.316065
    25  H    3.810308   6.009068   5.354220   4.169343   4.975388
    26  H    4.483354   5.695943   4.441895   4.027567   4.165327
    27  H    1.089233   4.203806   5.143246   3.597141   5.152953
                   21         22         23         24         25
    21  H    0.000000
    22  H    1.759146   0.000000
    23  H    2.471192   3.062546   0.000000
    24  H    2.519605   2.461172   1.764803   0.000000
    25  H    4.310974   3.833004   2.446872   2.518084   0.000000
    26  H    3.840275   2.693525   3.060927   2.493897   1.767865
    27  H    5.670003   6.070251   4.105629   5.707093   4.461354
                   26         27
    26  H    0.000000
    27  H    5.379770   0.000000
 Symmetry turned off by external request.
 Stoichiometry    C9H13N3O2
 Framework group  C1[X(C9H13N3O2)]
 Deg. of freedom    75
 Full point group                 C1      NOp   1
 Rotational constants (GHZ):           1.6685881           0.4241432           0.3742317

 **********************************************************************

            Population analysis using the SCF Density.

 **********************************************************************

 Alpha  occ. eigenvalues --  -20.59517 -20.59236 -15.84956 -15.63985 -15.56312
 Alpha  occ. eigenvalues --  -11.34737 -11.29580 -11.29466 -11.28985 -11.27291
 Alpha  occ. eigenvalues --  -11.23444 -11.23038 -11.22790 -11.22050  -1.57405
 Alpha  occ. eigenvalues --   -1.37017  -1.30502  -1.23464  -1.14610  -1.09891
 Alpha  occ. eigenvalues --   -1.02569  -1.01146  -0.94441  -0.89738  -0.85261
 Alpha  occ. eigenvalues --   -0.82519  -0.78518  -0.77517  -0.75115  -0.72342
 Alpha  occ. eigenvalues --   -0.70038  -0.69578  -0.67653  -0.64898  -0.63816
 Alpha  occ. eigenvalues --   -0.61730  -0.60273  -0.57336  -0.57055  -0.55201
 Alpha  occ. eigenvalues --   -0.54447  -0.50663  -0.49972  -0.48812  -0.48188
 Alpha  occ. eigenvalues --   -0.47510  -0.46115  -0.45941  -0.43874  -0.41679
 Alpha  occ. eigenvalues --   -0.40174  -0.34318
 Alpha virt. eigenvalues --    0.07240   0.11746   0.17232   0.21816   0.24185
 Alpha virt. eigenvalues --    0.25681   0.27023   0.28741   0.29088   0.29751
 Alpha virt. eigenvalues --    0.30903   0.31819   0.32067   0.32687   0.34142
 Alpha virt. eigenvalues --    0.34507   0.35734   0.37053   0.38536   0.40448
 Alpha virt. eigenvalues --    0.41120   0.42508   0.44782   0.46143   0.46932
 Alpha virt. eigenvalues --    0.47468   0.48935   0.53894   0.57846   0.59429
 Alpha virt. eigenvalues --    0.63710   0.69669   0.70296   0.73031   0.74407
 Alpha virt. eigenvalues --    0.74892   0.76172   0.76546   0.78477   0.79637
 Alpha virt. eigenvalues --    0.81289   0.84929   0.85335   0.86444   0.88859
 Alpha virt. eigenvalues --    0.89847   0.90697   0.92593   0.93049   0.94495
 Alpha virt. eigenvalues --    0.95503   0.98072   0.99783   1.01849   1.02349
 Alpha virt. eigenvalues --    1.03136   1.05638   1.06766   1.07962   1.09080
 Alpha virt. eigenvalues --    1.10155   1.10499   1.11964   1.12441   1.14058
 Alpha virt. eigenvalues --    1.14214   1.15132   1.15526   1.16970   1.18796
 Alpha virt. eigenvalues --    1.19414   1.21130   1.22336   1.23479   1.24186
 Alpha virt. eigenvalues --    1.25055   1.26023   1.26770   1.27714   1.29568
 Alpha virt. eigenvalues --    1.30039   1.33488   1.35363   1.36633   1.41058
 Alpha virt. eigenvalues --    1.42017   1.47169   1.48339   1.50565   1.53914
 Alpha virt. eigenvalues --    1.54261   1.56189   1.60742   1.64114   1.65411
 Alpha virt. eigenvalues --    1.67559   1.68808   1.74331   1.74814   1.77128
 Alpha virt. eigenvalues --    1.81771   1.85225   1.87314   1.91214   1.92947
 Alpha virt. eigenvalues --    1.96086   1.96762   1.99738   2.01200   2.03818
 Alpha virt. eigenvalues --    2.04862   2.05103   2.07749   2.08633   2.12160
 Alpha virt. eigenvalues --    2.12817   2.14873   2.16685   2.20178   2.21643
 Alpha virt. eigenvalues --    2.23806   2.24526   2.25239   2.28252   2.30093
 Alpha virt. eigenvalues --    2.31336   2.34950   2.35770   2.36894   2.38788
 Alpha virt. eigenvalues --    2.39611   2.41600   2.44022   2.45427   2.48260
 Alpha virt. eigenvalues --    2.50038   2.52201   2.54512   2.57052   2.61572
 Alpha virt. eigenvalues --    2.62989   2.64765   2.67531   2.70283   2.71394
 Alpha virt. eigenvalues --    2.72925   2.73477   2.77634   2.78454   2.83012
 Alpha virt. eigenvalues --    2.88081   2.89751   2.92544   2.93549   2.95743
 Alpha virt. eigenvalues --    3.00125   3.00790   3.02838   3.05251   3.07939
 Alpha virt. eigenvalues --    3.09220   3.14259   3.21492   3.24606   3.27410
 Alpha virt. eigenvalues --    3.31578   3.36491   3.37190   3.52173   3.64335
 Alpha virt. eigenvalues --    4.13256   4.27322   4.35390   4.39526   4.46028
 Alpha virt. eigenvalues --    4.56433   4.61830   4.62307   4.73409   4.78819
 Alpha virt. eigenvalues --    4.99192   5.01125   5.04541   5.11204
          Condensed to atoms (all electrons):
               1          2          3          4          5          6
     1  O    8.313888   0.306899  -0.083031  -0.085592   0.004561  -0.000015
     2  N    0.306899   5.723781   0.301737   0.264176  -0.054366   0.000938
     3  O   -0.083031   0.301737   8.349482  -0.090221   0.000929   0.000726
     4  C   -0.085592   0.264176  -0.090221   5.204069   0.562153  -0.044256
     5  C    0.004561  -0.054366   0.000929   0.562153   4.741177   0.315964
     6  N   -0.000015   0.000938   0.000726  -0.044256   0.315964   7.153523
     7  C    0.000005  -0.000189  -0.000002   0.002682  -0.039135   0.185598
     8  H   -0.000000   0.000003  -0.000000  -0.000150   0.003079  -0.049748
     9  C   -0.000000  -0.000004   0.000000   0.000832   0.001156  -0.064915
    10  C    0.000000   0.000000  -0.000000  -0.000032  -0.000080   0.003671
    11  C   -0.000000  -0.000000  -0.000000  -0.000041   0.000027  -0.000193
    12  C   -0.000000   0.000003  -0.000000  -0.000003  -0.000215   0.003756
    13  C   -0.000031  -0.000046  -0.000005  -0.014401  -0.000040  -0.039482
    14  H   -0.000006  -0.000110   0.000001   0.002970   0.007070  -0.006281
    15  N    0.000318   0.002585  -0.000018  -0.062904  -0.007835   0.001449
    16  C    0.001452  -0.028819   0.002499   0.334201  -0.050276  -0.001451
    17  H    0.000282  -0.008196   0.018290  -0.027509   0.377420  -0.034411
    18  H    0.000001  -0.000046   0.000013   0.001622  -0.029823   0.338519
    19  H    0.000001  -0.000003   0.000000  -0.001080   0.001011  -0.000123
    20  H    0.000000  -0.000000   0.000000  -0.000101   0.000293  -0.000604
    21  H   -0.000000   0.000000   0.000000   0.000001   0.000001  -0.000075
    22  H   -0.000000   0.000000  -0.000000  -0.000000  -0.000003  -0.000119
    23  H    0.000000  -0.000000   0.000000   0.000040   0.000001  -0.000028
    24  H    0.000000   0.000000   0.000000   0.000000  -0.000000   0.000005
    25  H    0.000000  -0.000000   0.000000   0.000023   0.000003  -0.000081
    26  H    0.000000  -0.000000   0.000000   0.000006  -0.000003  -0.000043
    27  H    0.005353  -0.000812  -0.000000  -0.060530   0.002219   0.000011
               7          8          9         10         11         12
     1  O    0.000005  -0.000000  -0.000000   0.000000  -0.000000  -0.000000
     2  N   -0.000189   0.000003  -0.000004   0.000000  -0.000000   0.000003
     3  O   -0.000002  -0.000000   0.000000  -0.000000  -0.000000  -0.000000
     4  C    0.002682  -0.000150   0.000832  -0.000032  -0.000041  -0.000003
     5  C   -0.039135   0.003079   0.001156  -0.000080   0.000027  -0.000215
     6  N    0.185598  -0.049748  -0.064915   0.003671  -0.000193   0.003756
     7  C    5.036891   0.417753   0.344987  -0.054359  -0.008742  -0.059314
     8  H    0.417753   0.544332  -0.055556   0.000477  -0.000447  -0.003058
     9  C    0.344987  -0.055556   5.162261   0.324685  -0.050387  -0.005419
    10  C   -0.054359   0.000477   0.324685   5.119277   0.336492  -0.061895
    11  C   -0.008742  -0.000447  -0.050387   0.336492   5.120062   0.336297
    12  C   -0.059314  -0.003058  -0.005419  -0.061895   0.336297   5.120225
    13  C    0.337591  -0.039430  -0.061768   0.000331  -0.051125   0.370936
    14  H   -0.048357  -0.000642   0.004625  -0.000415   0.004154  -0.036193
    15  N   -0.059165   0.004001  -0.013806   0.001587  -0.013357  -0.081998
    16  C   -0.001484  -0.000037  -0.000983  -0.000042   0.000055   0.002722
    17  H    0.002251  -0.000073  -0.000087   0.000001   0.000000  -0.000000
    18  H   -0.022027  -0.004611   0.002164  -0.000089   0.000003  -0.000103
    19  H   -0.037047   0.004440   0.390252  -0.032555  -0.002328   0.000680
    20  H   -0.041363  -0.001837   0.400241  -0.035569   0.003965  -0.000397
    21  H    0.004589  -0.000056  -0.036373   0.402430  -0.035079   0.004422
    22  H   -0.004875   0.003633  -0.046998   0.398028  -0.045489  -0.001188
    23  H    0.000517   0.000042  -0.001954  -0.038929   0.399505  -0.038154
    24  H   -0.000135  -0.000112   0.004384  -0.038177   0.402068  -0.038762
    25  H    0.005096   0.000006  -0.000448   0.004247  -0.033402   0.398672
    26  H   -0.004234   0.001782   0.000985  -0.002376  -0.041001   0.396447
    27  H   -0.000411   0.000009  -0.000050   0.000006   0.000011  -0.000040
              13         14         15         16         17         18
     1  O   -0.000031  -0.000006   0.000318   0.001452   0.000282   0.000001
     2  N   -0.000046  -0.000110   0.002585  -0.028819  -0.008196  -0.000046
     3  O   -0.000005   0.000001  -0.000018   0.002499   0.018290   0.000013
     4  C   -0.014401   0.002970  -0.062904   0.334201  -0.027509   0.001622
     5  C   -0.000040   0.007070  -0.007835  -0.050276   0.377420  -0.029823
     6  N   -0.039482  -0.006281   0.001449  -0.001451  -0.034411   0.338519
     7  C    0.337591  -0.048357  -0.059165  -0.001484   0.002251  -0.022027
     8  H   -0.039430  -0.000642   0.004001  -0.000037  -0.000073  -0.004611
     9  C   -0.061768   0.004625  -0.013806  -0.000983  -0.000087   0.002164
    10  C    0.000331  -0.000415   0.001587  -0.000042   0.000001  -0.000089
    11  C   -0.051125   0.004154  -0.013357   0.000055   0.000000   0.000003
    12  C    0.370936  -0.036193  -0.081998   0.002722  -0.000000  -0.000103
    13  C    5.044523   0.401348   0.248264  -0.072534   0.000036   0.002138
    14  H    0.401348   0.532110  -0.038031  -0.005403   0.000097  -0.000117
    15  N    0.248264  -0.038031   6.953514   0.584575  -0.000110  -0.000107
    16  C   -0.072534  -0.005403   0.584575   4.706621   0.001982  -0.000162
    17  H    0.000036   0.000097  -0.000110   0.001982   0.382945  -0.002959
    18  H    0.002138  -0.000117  -0.000107  -0.000162  -0.002959   0.308975
    19  H   -0.007550   0.000114   0.007494   0.002816   0.000013  -0.000149
    20  H    0.004270  -0.000069   0.000128  -0.000030   0.000004   0.000308
    21  H   -0.000462   0.000011  -0.000032   0.000004  -0.000000   0.000002
    22  H    0.000135  -0.000055   0.000016  -0.000002   0.000000  -0.000000
    23  H   -0.007450   0.000006   0.008514   0.000108   0.000000   0.000000
    24  H    0.004729  -0.000057   0.000132   0.000006   0.000000  -0.000000
    25  H   -0.035827  -0.002990   0.000375  -0.000009   0.000000   0.000002
    26  H   -0.046993  -0.000977   0.004858  -0.000072   0.000000   0.000001
    27  H    0.005057  -0.000177  -0.039498   0.402096  -0.000085   0.000000
              19         20         21         22         23         24
     1  O    0.000001   0.000000  -0.000000  -0.000000   0.000000   0.000000
     2  N   -0.000003  -0.000000   0.000000   0.000000  -0.000000   0.000000
     3  O    0.000000   0.000000   0.000000  -0.000000   0.000000   0.000000
     4  C   -0.001080  -0.000101   0.000001  -0.000000   0.000040   0.000000
     5  C    0.001011   0.000293   0.000001  -0.000003   0.000001  -0.000000
     6  N   -0.000123  -0.000604  -0.000075  -0.000119  -0.000028   0.000005
     7  C   -0.037047  -0.041363   0.004589  -0.004875   0.000517  -0.000135
     8  H    0.004440  -0.001837  -0.000056   0.003633   0.000042  -0.000112
     9  C    0.390252   0.400241  -0.036373  -0.046998  -0.001954   0.004384
    10  C   -0.032555  -0.035569   0.402430   0.398028  -0.038929  -0.038177
    11  C   -0.002328   0.003965  -0.035079  -0.045489   0.399505   0.402068
    12  C    0.000680  -0.000397   0.004422  -0.001188  -0.038154  -0.038762
    13  C   -0.007550   0.004270  -0.000462   0.000135  -0.007450   0.004729
    14  H    0.000114  -0.000069   0.000011  -0.000055   0.000006  -0.000057
    15  N    0.007494   0.000128  -0.000032   0.000016   0.008514   0.000132
    16  C    0.002816  -0.000030   0.000004  -0.000002   0.000108   0.000006
    17  H    0.000013   0.000004  -0.000000   0.000000   0.000000   0.000000
    18  H   -0.000149   0.000308   0.000002  -0.000000   0.000000  -0.000000
    19  H    0.507662  -0.024387  -0.002742   0.003971   0.001522  -0.000068
    20  H   -0.024387   0.536310  -0.002696  -0.003010  -0.000047  -0.000082
    21  H   -0.002742  -0.002696   0.525352  -0.027470  -0.002915  -0.002242
    22  H    0.003971  -0.003010  -0.027470   0.571924   0.004135  -0.003632
    23  H    0.001522  -0.000047  -0.002915   0.004135   0.498966  -0.025433
    24  H   -0.000068  -0.000082  -0.002242  -0.003632  -0.025433   0.538413
    25  H   -0.000027   0.000012  -0.000089  -0.000081  -0.002295  -0.002308
    26  H    0.000019  -0.000031  -0.000081   0.002396   0.004053  -0.002997
    27  H    0.000076   0.000000  -0.000000   0.000000  -0.000032  -0.000000
              25         26         27
     1  O    0.000000   0.000000   0.005353
     2  N   -0.000000  -0.000000  -0.000812
     3  O    0.000000   0.000000  -0.000000
     4  C    0.000023   0.000006  -0.060530
     5  C    0.000003  -0.000003   0.002219
     6  N   -0.000081  -0.000043   0.000011
     7  C    0.005096  -0.004234  -0.000411
     8  H    0.000006   0.001782   0.000009
     9  C   -0.000448   0.000985  -0.000050
    10  C    0.004247  -0.002376   0.000006
    11  C   -0.033402  -0.041001   0.000011
    12  C    0.398672   0.396447  -0.000040
    13  C   -0.035827  -0.046993   0.005057
    14  H   -0.002990  -0.000977  -0.000177
    15  N    0.000375   0.004858  -0.039498
    16  C   -0.000009  -0.000072   0.402096
    17  H    0.000000   0.000000  -0.000085
    18  H    0.000002   0.000001   0.000000
    19  H   -0.000027   0.000019   0.000076
    20  H    0.000012  -0.000031   0.000000
    21  H   -0.000089  -0.000081  -0.000000
    22  H   -0.000081   0.002396   0.000000
    23  H   -0.002295   0.004053  -0.000032
    24  H   -0.002308  -0.002997  -0.000000
    25  H    0.505480  -0.024062  -0.000011
    26  H   -0.024062   0.561062   0.000001
    27  H   -0.000011   0.000001   0.438143
 Mulliken charges:
               1
     1  O   -0.464085
     2  N    0.492470
     3  O   -0.500400
     4  C    0.014047
     5  C    0.164712
     6  N   -0.762335
     7  C    0.042879
     8  H    0.176199
     9  C   -0.297826
    10  C   -0.326716
    11  C   -0.321048
    12  C   -0.307419
    13  C   -0.042216
    14  H    0.187374
    15  N   -0.500946
    16  C    0.122164
    17  H    0.290107
    18  H    0.406443
    19  H    0.187989
    20  H    0.164691
    21  H    0.173500
    22  H    0.148684
    23  H    0.199827
    24  H    0.164266
    25  H    0.187714
    26  H    0.151260
    27  H    0.248666
 Sum of Mulliken charges =  -0.00000
 Mulliken charges with hydrogens summed into heavy atoms:
               1
     1  O   -0.464085
     2  N    0.492470
     3  O   -0.500400
     4  C    0.014047
     5  C    0.454819
     6  N   -0.355893
     7  C    0.219078
     9  C    0.054855
    10  C   -0.004533
    11  C    0.043044
    12  C    0.031555
    13  C    0.145158
    15  N   -0.500946
    16  C    0.370830
 Electronic spatial extent (au):  <R**2>=           2986.9526
 Charge=             -0.0000 electrons
 Dipole moment (field-independent basis, Debye):
    X=              5.2037    Y=              4.5295    Z=              1.4535  Tot=              7.0503
 Quadrupole moment (field-independent basis, Debye-Ang):
   XX=           -105.5847   YY=            -79.9227   ZZ=            -81.0944
   XY=             -1.6719   XZ=              0.5090   YZ=              2.8065
 Traceless Quadrupole moment (field-independent basis, Debye-Ang):
   XX=            -16.7174   YY=              8.9446   ZZ=              7.7728
   XY=             -1.6719   XZ=              0.5090   YZ=              2.8065
 Octapole moment (field-independent basis, Debye-Ang**2):
  XXX=             86.8923  YYY=             33.9660  ZZZ=             -0.1402  XYY=             -4.7049
  XXY=              8.9520  XXZ=              2.3860  XZZ=            -10.7935  YZZ=             -0.1191
  YYZ=             10.1667  XYZ=             -0.5280
 Hexadecapole moment (field-independent basis, Debye-Ang**3):
 XXXX=          -3337.1747 YYYY=           -614.3423 ZZZZ=           -299.2268 XXXY=            -24.4466
 XXXZ=              9.4103 YYYX=            -10.2621 YYYZ=             32.2645 ZZZX=             12.7890
 ZZZY=             10.0159 XXYY=           -625.1811 XXZZ=           -517.0886 YYZZ=           -155.5530
 XXYZ=             -2.7584 YYXZ=              6.2935 ZZXY=              4.3959
 N-N= 9.321715585175D+02 E-N=-3.411029778767D+03  KE= 6.596282993830D+02
 Unable to Open any file for archive entry.
 1\1\GINC-LOTUS\FOpt\RMP2-FC\6-31G(d)\C9H13N3O2\ALEXEY\01-Jul-2023\0\\#
 MP2/6-31G* SCF=Tight Opt=(ModRedun, MaxCycle=20 ) NoSymm\\MolName:\\0,
 1\O,-3.483892268,-1.399735528,-0.2935806065\N,-3.0986985824,-0.2349029
 061,-0.0736349991\O,-3.872517268,0.7215758904,0.1187272935\C,-1.656070
 0004,-0.0219654551,-0.0331714135\C,-1.268208309,1.2533376552,0.2710908
 951\N,-0.0474994011,1.8307534473,0.294743138\C,1.1837100294,1.02542207
 89,0.3279551892\H,1.8346077373,1.5354927824,1.0550138185\C,1.923348858
 6,1.0278658305,-1.0112573747\C,3.3183080337,0.4233664669,-0.8181568559
 \C,3.2556748239,-0.9695111513,-0.1880669758\C,2.4333107458,-0.96717973
 79,1.1016385032\C,1.0252802173,-0.4230815049,0.829052371\H,0.428659527
 2,-0.4040639304,1.7562196201\N,0.4042020347,-1.3299306808,-0.128627757
 5\C,-0.836838657,-1.1447770388,-0.4349802215\H,-2.08804868,1.943799054
 9,0.4596230032\H,-0.0049653926,2.7613563789,0.6919316645\H,1.3457188,0
 .4496425761,-1.7408510369\H,1.9960855181,2.0546371647,-1.389509679\H,3
 .8423646248,0.3819601221,-1.7799987019\H,3.904603572,1.0917350186,-0.1
 71601783\H,2.7905863202,-1.6692291001,-0.8893961992\H,4.269546066,-1.3
 351645757,0.0137148113\H,2.3394639958,-1.9848888246,1.4947246533\H,2.9
 250997213,-0.3606359523,1.8744355743\H,-1.3048120675,-1.8898980808,-1.
 0770269306\\Version=ES64L-G16RevC.02\HF=-661.2963041\MP2=-663.3316221\
 RMSD=5.902e-09\RMSF=4.432e-03\Dipole=1.8803257,1.5970151,0.530007\PG=C
 01 [X(C9H13N3O2)]\\@
 The archive entry for this job was punched.


 The arm of the moral universe is long, but it bends toward justice.
 -- Martin Luther King, Jr.
 Job cpu time:       0 days  1 hours 33 minutes 49.4 seconds.
 Elapsed time:       0 days  0 hours 28 minutes  8.0 seconds.
 File lengths (MBytes):  RWF=     36 Int=      0 D2E=      0 Chk=      7 Scr=      1
 Normal termination of Gaussian 16 at Sat Jul  1 21:24:56 2023.
