 Entering Gaussian System, Link 0=g16
 Initial command:
 /home/alexey/programs//g16/l1.exe "/home/alexey/tmp/Gau-1382353.inp" -scrdir="/home/alexey/tmp/"
 Entering Link 1 = /home/alexey/programs//g16/l1.exe PID=   1382355.
  
 Copyright (c) 1988-2021, Gaussian, Inc.  All Rights Reserved.
  
 This is part of the Gaussian(R) 16 program.  It is based on
 the Gaussian(R) 09 system (copyright 2009, Gaussian, Inc.),
 the Gaussian(R) 03 system (copyright 2003, Gaussian, Inc.),
 the Gaussian(R) 98 system (copyright 1998, Gaussian, Inc.),
 the Gaussian(R) 94 system (copyright 1995, Gaussian, Inc.),
 the Gaussian 92(TM) system (copyright 1992, Gaussian, Inc.),
 the Gaussian 90(TM) system (copyright 1990, Gaussian, Inc.),
 the Gaussian 88(TM) system (copyright 1988, Gaussian, Inc.),
 the Gaussian 86(TM) system (copyright 1986, Carnegie Mellon
 University), and the Gaussian 82(TM) system (copyright 1983,
 Carnegie Mellon University). Gaussian is a federally registered
 trademark of Gaussian, Inc.
  
 This software contains proprietary and confidential information,
 including trade secrets, belonging to Gaussian, Inc.
  
 This software is provided under written license and may be
 used, copied, transmitted, or stored only in accord with that
 written license.
  
 The following legend is applicable only to US Government
 contracts under FAR:
  
                    RESTRICTED RIGHTS LEGEND
  
 Use, reproduction and disclosure by the US Government is
 subject to restrictions as set forth in subparagraphs (a)
 and (c) of the Commercial Computer Software - Restricted
 Rights clause in FAR 52.227-19.
  
 Gaussian, Inc.
 340 Quinnipiac St., Bldg. 40, Wallingford CT 06492
  
  
 ---------------------------------------------------------------
 Warning -- This program may not be used in any manner that
 competes with the business of Gaussian, Inc. or will provide
 assistance to any competitor of Gaussian, Inc.  The licensee
 of this program is prohibited from giving any competitor of
 Gaussian, Inc. access to this program.  By using this program,
 the user acknowledges that Gaussian, Inc. is engaged in the
 business of creating and licensing software in the field of
 computational chemistry and represents and warrants to the
 licensee that it is not a competitor of Gaussian, Inc. and that
 it will not use this program in any manner prohibited above.
 ---------------------------------------------------------------
  

 Cite this work as:
 Gaussian 16, Revision C.02,
 M. J. Frisch, G. W. Trucks, H. B. Schlegel, G. E. Scuseria, 
 M. A. Robb, J. R. Cheeseman, G. Scalmani, V. Barone, 
 G. A. Petersson, H. Nakatsuji, X. Li, M. Caricato, A. V. Marenich, 
 J. Bloino, B. G. Janesko, R. Gomperts, B. Mennucci, H. P. Hratchian, 
 J. V. Ortiz, A. F. Izmaylov, J. L. Sonnenberg, D. Williams-Young, 
 F. Ding, F. Lipparini, F. Egidi, J. Goings, B. Peng, A. Petrone, 
 T. Henderson, D. Ranasinghe, V. G. Zakrzewski, J. Gao, N. Rega, 
 G. Zheng, W. Liang, M. Hada, M. Ehara, K. Toyota, R. Fukuda, 
 J. Hasegawa, M. Ishida, T. Nakajima, Y. Honda, O. Kitao, H. Nakai, 
 T. Vreven, K. Throssell, J. A. Montgomery, Jr., J. E. Peralta, 
 F. Ogliaro, M. J. Bearpark, J. J. Heyd, E. N. Brothers, K. N. Kudin, 
 V. N. Staroverov, T. A. Keith, R. Kobayashi, J. Normand, 
 K. Raghavachari, A. P. Rendell, J. C. Burant, S. S. Iyengar, 
 J. Tomasi, M. Cossi, J. M. Millam, M. Klene, C. Adamo, R. Cammi, 
 J. W. Ochterski, R. L. Martin, K. Morokuma, O. Farkas, 
 J. B. Foresman, and D. J. Fox, Gaussian, Inc., Wallingford CT, 2019.
 
 ******************************************
 Gaussian 16:  ES64L-G16RevC.02  7-Dec-2021
                 1-Jul-2023 
 ******************************************
 %mem=8GB
 %NPROCS=4
 Will use up to    4 processors via shared memory.
 %NoSave
 ---------------------------------------------------------
 #MP2/6-31G* SCF=Tight Opt=(ModRedun, MaxCycle=20 ) NoSymm
 ---------------------------------------------------------
 1/6=20,18=120,19=15,38=1/1,3;
 2/9=110,12=2,15=1,17=6,18=5,40=1/2;
 3/5=1,6=6,7=1,11=9,25=1,30=1,71=1/1,2,3;
 4//1;
 5/5=2,32=2,38=5/2;
 8/6=4,10=2/1;
 9/15=2,16=-3/6;
 10/5=1,31=1/2;
 6/7=2,8=2,9=2,10=2/1;
 7/12=2,30=1/1,2,3,16;
 1/6=20,18=20,19=15/3(2);
 2/9=110,15=1/2;
 99//99;
 2/9=110,15=1/2;
 3/5=1,6=6,7=1,11=9,25=1,30=1,71=1/1,2,3;
 4/5=5,16=3,69=1/1;
 5/5=2,32=2,38=5/2;
 8/6=4,10=2/1;
 9/15=2,16=-3/6;
 10/5=1,31=1/2;
 7/12=2,30=1/1,2,3,16;
 1/6=20,18=20,19=15/3(-8);
 2/9=110,15=1/2;
 6/7=2,8=2,9=2,10=2/1;
 99/9=10/99;
 --------
 MolName:
 --------
 Symbolic Z-matrix:
 Charge =  0 Multiplicity = 1
 8                    0    -3.59299  -1.47055  -0.11362 
 7                    0    -3.23963  -0.30452   0.05378 
 8                    0    -4.02168   0.6228    0.26612 
 6                    0    -1.74679   0.00414  -0.03679 
 6                    0    -1.3539    1.305     0.29897 
 7                    0    -0.07863   1.81842   0.31473 
 6                    0     1.17894   0.99713   0.33017 
 1                    0     1.82756   1.48553   1.10402 
 6                    0     1.98705   1.05084  -0.99127 
 6                    0     3.39175   0.45995  -0.76552 
 6                    0     3.31061  -0.95869  -0.18118 
 6                    0     2.42649  -0.99593   1.0835 
 6                    0     0.99778  -0.45441   0.80339 
 1                    0     0.43076  -0.49546   1.76326 
 7                    0     0.36313  -1.3166   -0.19457 
 6                    0    -0.87001  -1.096    -0.50562 
 1                    0    -2.13977   2.01402   0.60813 
 1                    0     0.14175   2.7809    0.04742 
 1                    0     1.45901   0.47967  -1.78437 
 1                    0     2.0887    2.10184  -1.33611 
 1                    0     3.95373   0.44029  -1.72491 
 1                    0     3.95047   1.10878  -0.05445 
 1                    0     2.88203  -1.64281  -0.94812 
 1                    0     4.3312   -1.32653   0.06237 
 1                    0     2.35522  -2.04386   1.44903 
 1                    0     2.90131  -0.39038   1.88388 
 1                    0    -1.37408  -1.80956  -1.17524 
 
 The following ModRedundant input section has been read:
 A       5       6       7 F                                                   
 D       1       2       4      16 F                                           
 D       7      13      15      16 F                                           
 D       7       9      10      11 F                                           
 D       9      10      11      12 F                                           
 D       6       7      13      15 F                                           
 

 GradGradGradGradGradGradGradGradGradGradGradGradGradGradGradGradGradGrad
 Berny optimization.
 Initialization pass.
                           ----------------------------
                           !    Initial Parameters    !
                           ! (Angstroms and Degrees)  !
 --------------------------                            --------------------------
 ! Name  Definition              Value          Derivative Info.                !
 --------------------------------------------------------------------------------
 ! R1    R(1,2)                  1.2298         estimate D2E/DX2                !
 ! R2    R(2,3)                  1.2315         estimate D2E/DX2                !
 ! R3    R(2,4)                  1.5271         estimate D2E/DX2                !
 ! R4    R(4,5)                  1.3998         estimate D2E/DX2                !
 ! R5    R(4,16)                 1.4829         estimate D2E/DX2                !
 ! R6    R(5,6)                  1.3748         estimate D2E/DX2                !
 ! R7    R(5,17)                 1.1027         estimate D2E/DX2                !
 ! R8    R(6,7)                  1.5021         estimate D2E/DX2                !
 ! R9    R(6,18)                 1.0229         estimate D2E/DX2                !
 ! R10   R(7,8)                  1.1216         estimate D2E/DX2                !
 ! R11   R(7,9)                  1.5499         estimate D2E/DX2                !
 ! R12   R(7,13)                 1.5374         estimate D2E/DX2                !
 ! R13   R(9,10)                 1.5406         estimate D2E/DX2                !
 ! R14   R(9,19)                 1.1109         estimate D2E/DX2                !
 ! R15   R(9,20)                 1.1108         estimate D2E/DX2                !
 ! R16   R(10,11)                1.5364         estimate D2E/DX2                !
 ! R17   R(10,21)                1.112          estimate D2E/DX2                !
 ! R18   R(10,22)                1.113          estimate D2E/DX2                !
 ! R19   R(11,12)                1.5435         estimate D2E/DX2                !
 ! R20   R(11,23)                1.1135         estimate D2E/DX2                !
 ! R21   R(11,24)                1.1119         estimate D2E/DX2                !
 ! R22   R(12,13)                1.5534         estimate D2E/DX2                !
 ! R23   R(12,25)                1.1121         estimate D2E/DX2                !
 ! R24   R(12,26)                1.1103         estimate D2E/DX2                !
 ! R25   R(13,14)                1.1156         estimate D2E/DX2                !
 ! R26   R(13,15)                1.4636         estimate D2E/DX2                !
 ! R27   R(15,16)                1.2908         estimate D2E/DX2                !
 ! R28   R(16,27)                1.1007         estimate D2E/DX2                !
 ! A1    A(1,2,3)              123.7063         estimate D2E/DX2                !
 ! A2    A(1,2,4)              117.6737         estimate D2E/DX2                !
 ! A3    A(3,2,4)              118.6081         estimate D2E/DX2                !
 ! A4    A(2,4,5)              116.6154         estimate D2E/DX2                !
 ! A5    A(2,4,16)             116.5391         estimate D2E/DX2                !
 ! A6    A(5,4,16)             126.8243         estimate D2E/DX2                !
 ! A7    A(4,5,6)              127.6013         estimate D2E/DX2                !
 ! A8    A(4,5,17)             117.6961         estimate D2E/DX2                !
 ! A9    A(6,5,17)             114.6925         estimate D2E/DX2                !
 ! A10   A(5,6,7)              124.9263         Frozen                          !
 ! A11   A(5,6,18)             123.2447         estimate D2E/DX2                !
 ! A12   A(7,6,18)             109.6804         estimate D2E/DX2                !
 ! A13   A(6,7,8)              104.6643         estimate D2E/DX2                !
 ! A14   A(6,7,9)              114.1305         estimate D2E/DX2                !
 ! A15   A(6,7,13)             114.8808         estimate D2E/DX2                !
 ! A16   A(8,7,9)              105.7614         estimate D2E/DX2                !
 ! A17   A(8,7,13)             105.4791         estimate D2E/DX2                !
 ! A18   A(9,7,13)             110.8907         estimate D2E/DX2                !
 ! A19   A(7,9,10)             109.7058         estimate D2E/DX2                !
 ! A20   A(7,9,19)             110.0628         estimate D2E/DX2                !
 ! A21   A(7,9,20)             110.1935         estimate D2E/DX2                !
 ! A22   A(10,9,19)            109.9272         estimate D2E/DX2                !
 ! A23   A(10,9,20)            108.9634         estimate D2E/DX2                !
 ! A24   A(19,9,20)            107.9594         estimate D2E/DX2                !
 ! A25   A(9,10,11)            111.2067         estimate D2E/DX2                !
 ! A26   A(9,10,21)            109.9471         estimate D2E/DX2                !
 ! A27   A(9,10,22)            109.1323         estimate D2E/DX2                !
 ! A28   A(11,10,21)           109.7845         estimate D2E/DX2                !
 ! A29   A(11,10,22)           108.7717         estimate D2E/DX2                !
 ! A30   A(21,10,22)           107.9265         estimate D2E/DX2                !
 ! A31   A(10,11,12)           111.355          estimate D2E/DX2                !
 ! A32   A(10,11,23)           109.0055         estimate D2E/DX2                !
 ! A33   A(10,11,24)           109.8956         estimate D2E/DX2                !
 ! A34   A(12,11,23)           109.2109         estimate D2E/DX2                !
 ! A35   A(12,11,24)           109.7744         estimate D2E/DX2                !
 ! A36   A(23,11,24)           107.5123         estimate D2E/DX2                !
 ! A37   A(11,12,13)           111.7569         estimate D2E/DX2                !
 ! A38   A(11,12,25)           109.1922         estimate D2E/DX2                !
 ! A39   A(11,12,26)           109.4223         estimate D2E/DX2                !
 ! A40   A(13,12,25)           109.1967         estimate D2E/DX2                !
 ! A41   A(13,12,26)           109.4629         estimate D2E/DX2                !
 ! A42   A(25,12,26)           107.721          estimate D2E/DX2                !
 ! A43   A(7,13,12)            106.0372         estimate D2E/DX2                !
 ! A44   A(7,13,14)            111.0673         estimate D2E/DX2                !
 ! A45   A(7,13,15)            113.4158         estimate D2E/DX2                !
 ! A46   A(12,13,14)           107.4276         estimate D2E/DX2                !
 ! A47   A(12,13,15)           108.4467         estimate D2E/DX2                !
 ! A48   A(14,13,15)           110.1577         estimate D2E/DX2                !
 ! A49   A(13,15,16)           118.5488         estimate D2E/DX2                !
 ! A50   A(4,16,15)            127.9877         estimate D2E/DX2                !
 ! A51   A(4,16,27)            113.7352         estimate D2E/DX2                !
 ! A52   A(15,16,27)           118.2487         estimate D2E/DX2                !
 ! D1    D(1,2,4,5)           -173.2982         estimate D2E/DX2                !
 ! D2    D(1,2,4,16)             8.2581         Frozen                          !
 ! D3    D(3,2,4,5)              7.9112         estimate D2E/DX2                !
 ! D4    D(3,2,4,16)          -170.5325         estimate D2E/DX2                !
 ! D5    D(2,4,5,6)            179.023          estimate D2E/DX2                !
 ! D6    D(2,4,5,17)             0.253          estimate D2E/DX2                !
 ! D7    D(16,4,5,6)            -2.7165         estimate D2E/DX2                !
 ! D8    D(16,4,5,17)          178.5135         estimate D2E/DX2                !
 ! D9    D(2,4,16,15)         -149.9112         estimate D2E/DX2                !
 ! D10   D(2,4,16,27)           28.0962         estimate D2E/DX2                !
 ! D11   D(5,4,16,15)           31.8271         estimate D2E/DX2                !
 ! D12   D(5,4,16,27)         -150.1655         estimate D2E/DX2                !
 ! D13   D(4,5,6,7)            -17.3543         estimate D2E/DX2                !
 ! D14   D(4,5,6,18)           144.2431         estimate D2E/DX2                !
 ! D15   D(17,5,6,7)           161.447          estimate D2E/DX2                !
 ! D16   D(17,5,6,18)          -36.9556         estimate D2E/DX2                !
 ! D17   D(5,6,7,8)           -135.114          estimate D2E/DX2                !
 ! D18   D(5,6,7,9)            109.7427         estimate D2E/DX2                !
 ! D19   D(5,6,7,13)           -19.9343         estimate D2E/DX2                !
 ! D20   D(18,6,7,8)            61.1703         estimate D2E/DX2                !
 ! D21   D(18,6,7,9)           -53.973          estimate D2E/DX2                !
 ! D22   D(18,6,7,13)          176.35           estimate D2E/DX2                !
 ! D23   D(6,7,9,10)           166.8867         estimate D2E/DX2                !
 ! D24   D(6,7,9,19)           -72.0341         estimate D2E/DX2                !
 ! D25   D(6,7,9,20)            46.9185         estimate D2E/DX2                !
 ! D26   D(8,7,9,10)            52.3884         estimate D2E/DX2                !
 ! D27   D(8,7,9,19)           173.4676         estimate D2E/DX2                !
 ! D28   D(8,7,9,20)           -67.5798         estimate D2E/DX2                !
 ! D29   D(13,7,9,10)          -61.4745         estimate D2E/DX2                !
 ! D30   D(13,7,9,19)           59.6046         estimate D2E/DX2                !
 ! D31   D(13,7,9,20)          178.5573         estimate D2E/DX2                !
 ! D32   D(6,7,13,12)         -166.079          estimate D2E/DX2                !
 ! D33   D(6,7,13,14)          -49.6762         estimate D2E/DX2                !
 ! D34   D(6,7,13,15)           75.022          Frozen                          !
 ! D35   D(8,7,13,12)          -51.371          estimate D2E/DX2                !
 ! D36   D(8,7,13,14)           65.0317         estimate D2E/DX2                !
 ! D37   D(8,7,13,15)         -170.27           estimate D2E/DX2                !
 ! D38   D(9,7,13,12)           62.6697         estimate D2E/DX2                !
 ! D39   D(9,7,13,14)          179.0724         estimate D2E/DX2                !
 ! D40   D(9,7,13,15)          -56.2294         estimate D2E/DX2                !
 ! D41   D(7,9,10,11)           54.8119         Frozen                          !
 ! D42   D(7,9,10,21)          176.6189         estimate D2E/DX2                !
 ! D43   D(7,9,10,22)          -65.1853         estimate D2E/DX2                !
 ! D44   D(19,9,10,11)         -66.349          estimate D2E/DX2                !
 ! D45   D(19,9,10,21)          55.458          estimate D2E/DX2                !
 ! D46   D(19,9,10,22)         173.6538         estimate D2E/DX2                !
 ! D47   D(20,9,10,11)         175.5276         estimate D2E/DX2                !
 ! D48   D(20,9,10,21)         -62.6654         estimate D2E/DX2                !
 ! D49   D(20,9,10,22)          55.5304         estimate D2E/DX2                !
 ! D50   D(9,10,11,12)         -52.8224         Frozen                          !
 ! D51   D(9,10,11,23)          67.7312         estimate D2E/DX2                !
 ! D52   D(9,10,11,24)        -174.6805         estimate D2E/DX2                !
 ! D53   D(21,10,11,12)       -174.724          estimate D2E/DX2                !
 ! D54   D(21,10,11,23)        -54.1704         estimate D2E/DX2                !
 ! D55   D(21,10,11,24)         63.4179         estimate D2E/DX2                !
 ! D56   D(22,10,11,12)         67.3883         estimate D2E/DX2                !
 ! D57   D(22,10,11,23)       -172.058          estimate D2E/DX2                !
 ! D58   D(22,10,11,24)        -54.4698         estimate D2E/DX2                !
 ! D59   D(10,11,12,13)         56.5435         estimate D2E/DX2                !
 ! D60   D(10,11,12,25)        177.4599         estimate D2E/DX2                !
 ! D61   D(10,11,12,26)        -64.8638         estimate D2E/DX2                !
 ! D62   D(23,11,12,13)        -63.8893         estimate D2E/DX2                !
 ! D63   D(23,11,12,25)         57.0272         estimate D2E/DX2                !
 ! D64   D(23,11,12,26)        174.7034         estimate D2E/DX2                !
 ! D65   D(24,11,12,13)        178.4718         estimate D2E/DX2                !
 ! D66   D(24,11,12,25)        -60.6117         estimate D2E/DX2                !
 ! D67   D(24,11,12,26)         57.0645         estimate D2E/DX2                !
 ! D68   D(11,12,13,7)         -60.1069         estimate D2E/DX2                !
 ! D69   D(11,12,13,14)       -178.9392         estimate D2E/DX2                !
 ! D70   D(11,12,13,15)         62.0183         estimate D2E/DX2                !
 ! D71   D(25,12,13,7)         178.9793         estimate D2E/DX2                !
 ! D72   D(25,12,13,14)         60.147          estimate D2E/DX2                !
 ! D73   D(25,12,13,15)        -58.8955         estimate D2E/DX2                !
 ! D74   D(26,12,13,7)          61.2769         estimate D2E/DX2                !
 ! D75   D(26,12,13,14)        -57.5554         estimate D2E/DX2                !
 ! D76   D(26,12,13,15)       -176.5978         estimate D2E/DX2                !
 ! D77   D(7,13,15,16)         -67.1601         Frozen                          !
 ! D78   D(12,13,15,16)        175.3355         estimate D2E/DX2                !
 ! D79   D(14,13,15,16)         58.0277         estimate D2E/DX2                !
 ! D80   D(13,15,16,4)           4.2707         estimate D2E/DX2                !
 ! D81   D(13,15,16,27)       -173.6586         estimate D2E/DX2                !
 --------------------------------------------------------------------------------
 Trust Radius=3.00D-01 FncErr=1.00D-07 GrdErr=1.00D-07 EigMax=2.50D+02 EigMin=1.00D-04
 Number of steps in this run=     20 maximum allowed number of steps=    162.
 GradGradGradGradGradGradGradGradGradGradGradGradGradGradGradGradGradGrad

                          Input orientation:                          
 ---------------------------------------------------------------------
 Center     Atomic      Atomic             Coordinates (Angstroms)
 Number     Number       Type             X           Y           Z
 ---------------------------------------------------------------------
      1          8           0       -3.592990   -1.470550   -0.113620
      2          7           0       -3.239630   -0.304520    0.053780
      3          8           0       -4.021680    0.622800    0.266120
      4          6           0       -1.746790    0.004140   -0.036790
      5          6           0       -1.353900    1.305000    0.298970
      6          7           0       -0.078630    1.818420    0.314730
      7          6           0        1.178940    0.997130    0.330170
      8          1           0        1.827560    1.485530    1.104020
      9          6           0        1.987050    1.050840   -0.991270
     10          6           0        3.391750    0.459950   -0.765520
     11          6           0        3.310610   -0.958690   -0.181180
     12          6           0        2.426490   -0.995930    1.083500
     13          6           0        0.997780   -0.454410    0.803390
     14          1           0        0.430760   -0.495460    1.763260
     15          7           0        0.363130   -1.316600   -0.194570
     16          6           0       -0.870010   -1.096000   -0.505620
     17          1           0       -2.139770    2.014020    0.608130
     18          1           0        0.141750    2.780900    0.047420
     19          1           0        1.459010    0.479670   -1.784370
     20          1           0        2.088700    2.101840   -1.336110
     21          1           0        3.953730    0.440290   -1.724910
     22          1           0        3.950470    1.108780   -0.054450
     23          1           0        2.882030   -1.642810   -0.948120
     24          1           0        4.331200   -1.326530    0.062370
     25          1           0        2.355220   -2.043860    1.449030
     26          1           0        2.901310   -0.390380    1.883880
     27          1           0       -1.374080   -1.809560   -1.175240
 ---------------------------------------------------------------------
                    Distance matrix (angstroms):
                    1          2          3          4          5
     1  O    0.000000
     2  N    1.229842   0.000000
     3  O    2.170275   1.231508   0.000000
     4  C    2.364121   1.527104   2.376893   0.000000
     5  C    3.589907   2.491315   2.753820   1.399762   0.000000
     6  N    4.832342   3.816660   4.120621   2.489565   1.374832
     7  C    5.390520   4.614590   5.214468   3.111364   2.551673
     8  H    6.293125   5.475737   5.971598   4.033849   3.286698
     9  C    6.185832   5.499756   6.153786   3.993517   3.590441
    10  C    7.275878   6.725390   7.486638   5.209933   4.936440
    11  C    6.922879   6.587017   7.514231   5.150261   5.206966
    12  C    6.155688   5.800283   6.698305   4.435251   4.494565
    13  C    4.790471   4.305813   5.161784   2.906688   2.979994
    14  H    4.545772   4.053461   4.828681   2.869060   2.927595
    15  N    3.959942   3.750448   4.816645   2.494195   3.172469
    16  C    2.776431   2.560170   3.671904   1.482853   2.578045
    17  H    3.843826   2.625381   2.365174   2.147085   1.102670
    18  H    5.661187   4.577509   4.694611   3.359177   2.116253
    19  H    5.667228   5.105974   5.853457   3.682026   3.596378
    20  H    6.821880   6.009448   6.487792   4.560654   3.893576
    21  H    7.949877   7.447342   8.222206   5.961200   5.745846
    22  H    7.972467   7.328483   7.993380   5.803388   5.319751
    23  H    6.530846   6.345829   7.366721   4.996893   5.309230
    24  H    7.927452   7.639506   8.579744   6.222739   6.269074
    25  H    6.176711   6.022821   7.012503   4.819590   5.127872
    26  H    6.879877   6.408415   7.181328   5.044745   4.846965
    27  H    2.483048   2.693680   3.873458   2.173589   3.445894
                    6          7          8          9         10
     6  N    0.000000
     7  C    1.502078   0.000000
     8  H    2.089822   1.121644   0.000000
     9  C    2.561611   1.549881   2.145841   0.000000
    10  C    3.880196   2.526980   2.644558   1.540551   0.000000
    11  C    4.409673   2.937810   3.134547   2.538950   1.536417
    12  C    3.845413   2.469043   2.552799   2.947379   2.543657
    13  C    2.561875   1.537441   2.131263   2.542683   3.004767
    14  H    2.777005   2.200306   2.511965   3.521437   4.009364
    15  N    3.206694   2.508833   3.418015   2.979366   3.557338
    16  C    3.129393   3.045970   4.065971   3.606601   4.544351
    17  H    2.091086   3.482120   4.032979   4.529508   5.907602
    18  H    1.022932   2.082678   2.374098   2.734432   4.075559
    19  H    2.926228   2.194877   3.080646   1.110887   2.184932
    20  H    2.739146   2.196483   2.530270   1.110787   2.172398
    21  H    4.724331   3.497554   3.689982   2.186053   1.112042
    22  H    4.107740   2.800317   2.447599   2.176237   1.113000
    23  H    4.726564   3.391729   3.887119   2.838768   2.171349
    24  H    5.422269   3.925284   3.906524   3.501012   2.181623
    25  H    4.703984   3.447188   3.585255   3.958255   3.499670
    26  H    4.027539   2.702916   2.297860   3.343572   2.825405
    27  H    4.130429   4.081872   5.128659   4.417344   5.294495
                   11         12         13         14         15
    11  C    0.000000
    12  C    1.543525   0.000000
    13  C    2.563759   1.553357   0.000000
    14  H    3.505562   2.166906   1.115593   0.000000
    15  N    2.969161   2.448213   1.463583   2.124133   0.000000
    16  C    4.195438   3.660905   2.369343   2.683369   1.290756
    17  H    6.258327   5.489673   3.996935   3.773518   4.242861
    18  H    4.906981   4.534087   3.430963   3.709740   4.110605
    19  H    2.840338   3.367208   2.789577   3.820190   2.637234
    20  H    3.491958   3.945224   3.507418   4.370449   3.995802
    21  H    2.180333   3.504619   3.991294   5.045223   4.280305
    22  H    2.167928   2.836767   3.449323   4.273876   4.332564
    23  H    1.113507   2.180241   2.833810   3.831021   2.649360
    24  H    1.111857   2.186304   3.524400   4.335566   3.976392
    25  H    2.178979   1.112137   2.187658   2.489946   2.683049
    26  H    2.180591   1.110294   2.189745   2.475724   3.408841
    27  H    4.863996   4.495357   3.373000   3.690405   2.054902
                   16         17         18         19         20
    16  C    0.000000
    17  H    3.539061   0.000000
    18  H    4.044733   2.471403   0.000000
    19  H    3.089057   4.585794   3.222776   0.000000
    20  H    4.435071   4.654862   2.483121   1.796909   0.000000
    21  H    5.207238   6.711963   4.811528   2.495739   2.527895
    22  H    5.319928   6.192697   4.160855   3.097705   2.468807
    23  H    3.817409   6.404123   5.298060   2.688721   3.847377
    24  H    5.237207   7.302779   5.867086   3.862937   4.328773
    25  H    3.888599   6.113791   5.490198   4.198365   5.001486
    26  H    4.520007   5.728976   4.587458   4.036493   4.152088
    27  H    1.100748   4.287943   4.986478   3.692968   5.226450
                   21         22         23         24         25
    21  H    0.000000
    22  H    1.799257   0.000000
    23  H    2.468046   3.084065   0.000000
    24  H    2.541359   2.467658   1.794775   0.000000
    25  H    4.335912   3.839846   2.486905   2.518310   0.000000
    26  H    3.849801   2.665584   3.096640   2.497771   1.794799
    27  H    5.809434   6.174440   4.265426   5.857919   4.566111
                   26         27
    26  H    0.000000
    27  H    5.445296   0.000000
 Symmetry turned off by external request.
 Stoichiometry    C9H13N3O2
 Framework group  C1[X(C9H13N3O2)]
 Deg. of freedom    75
 Full point group                 C1      NOp   1
 Rotational constants (GHZ):           1.6719318           0.4029512           0.3565390
 Standard basis: 6-31G(d) (6D, 7F)
   236 basis functions,   444 primitive gaussians,   236 cartesian basis functions
    52 alpha electrons       52 beta electrons
       nuclear repulsion energy       918.1811202129 Hartrees.
 NAtoms=   27 NActive=   27 NUniq=   27 SFac= 1.00D+00 NAtFMM=   60 NAOKFM=F Big=F
 Integral buffers will be    131072 words long.
 Raffenetti 1 integral format.
 Two-electron integral symmetry is turned off.
 One-electron integrals computed using PRISM.
 NBasis=   236 RedAO= T EigKep=  1.27D-03  NBF=   236
 NBsUse=   236 1.00D-06 EigRej= -1.00D+00 NBFU=   236
 ExpMin= 1.61D-01 ExpMax= 5.48D+03 ExpMxC= 8.25D+02 IAcc=3 IRadAn=         5 AccDes= 0.00D+00
 Harris functional with IExCor=  205 and IRadAn=       5 diagonalized for initial guess.
 HarFok:  IExCor=  205 AccDes= 0.00D+00 IRadAn=         5 IDoV= 1 UseB2=F ITyADJ=14
 ICtDFT=  3500011 ScaDFX=  1.000000  1.000000  1.000000  1.000000
 FoFCou: FMM=F IPFlag=           0 FMFlag=      100000 FMFlg1=           0
         NFxFlg=           0 DoJE=T BraDBF=F KetDBF=T FulRan=T
         wScrn=  0.000000 ICntrl=       500 IOpCl=  0 I1Cent=   200000004 NGrid=           0
         NMat0=    1 NMatS0=      1 NMatT0=    0 NMatD0=    1 NMtDS0=    0 NMtDT0=    0
 Symmetry not used in FoFCou.
 Keep R1 ints in memory in canonical form, NReq=397720213.
 Requested convergence on RMS density matrix=1.00D-08 within 128 cycles.
 Requested convergence on MAX density matrix=1.00D-06.
 Requested convergence on             energy=1.00D-06.
 No special actions if energy rises.
 SCF Done:  E(RHF) =  -661.277133082     A.U. after   16 cycles
            NFock= 16  Conv=0.86D-08     -V/T= 2.0037
 ExpMin= 1.61D-01 ExpMax= 5.48D+03 ExpMxC= 8.25D+02 IAcc=3 IRadAn=         5 AccDes= 0.00D+00
 HarFok:  IExCor=  205 AccDes= 0.00D+00 IRadAn=         5 IDoV=-2 UseB2=F ITyADJ=14
 ICtDFT= 12500011 ScaDFX=  1.000000  1.000000  1.000000  1.000000
 Range of M.O.s used for correlation:    15   236
 NBasis=   236 NAE=    52 NBE=    52 NFC=    14 NFV=     0
 NROrb=    222 NOA=    38 NOB=    38 NVA=   184 NVB=   184
 Fully direct method using O(ONN) memory.
 JobTyp=1 Pass  1:  I=  15 to  52 NPSUse=  4 ParTrn=T ParDer=T DoDerP=T.
 Spin components of T(2) and E(2):
     alpha-alpha T2 =       0.9193669356D-01 E2=     -0.2717103208D+00
     alpha-beta  T2 =       0.5001061267D+00 E2=     -0.1494151021D+01
     beta-beta   T2 =       0.9193669356D-01 E2=     -0.2717103208D+00
 ANorm=    0.1297682362D+01
 E2 =    -0.2037571663D+01 EUMP2 =    -0.66331470474518D+03
          IDoAtm=111111111111111111111111111
          Differentiating once with respect to electric field.
                with respect to dipole field.
          Differentiating once with respect to nuclear coordinates.
 Keep R1 ints in memory in canonical form, NReq=397723379.
          There are     1 degrees of freedom in the 1st order CPHF.  IDoFFX=0 NUNeed=     1.
 LinEq1:  Iter=  0 NonCon=     1 RMS=4.60D-03 Max=1.09D-01 NDo=     1
 AX will form     1 AO Fock derivatives at one time.
 LinEq1:  Iter=  1 NonCon=     1 RMS=1.56D-03 Max=3.26D-02 NDo=     1
 LinEq1:  Iter=  2 NonCon=     1 RMS=6.38D-04 Max=1.74D-02 NDo=     1
 LinEq1:  Iter=  3 NonCon=     1 RMS=2.94D-04 Max=9.00D-03 NDo=     1
 LinEq1:  Iter=  4 NonCon=     1 RMS=9.07D-05 Max=2.04D-03 NDo=     1
 LinEq1:  Iter=  5 NonCon=     1 RMS=3.79D-05 Max=1.93D-03 NDo=     1
 LinEq1:  Iter=  6 NonCon=     1 RMS=1.55D-05 Max=5.89D-04 NDo=     1
 LinEq1:  Iter=  7 NonCon=     1 RMS=6.05D-06 Max=1.06D-04 NDo=     1
 LinEq1:  Iter=  8 NonCon=     1 RMS=2.47D-06 Max=6.60D-05 NDo=     1
 LinEq1:  Iter=  9 NonCon=     1 RMS=9.36D-07 Max=2.69D-05 NDo=     1
 LinEq1:  Iter= 10 NonCon=     1 RMS=4.57D-07 Max=1.50D-05 NDo=     1
 LinEq1:  Iter= 11 NonCon=     1 RMS=1.59D-07 Max=5.79D-06 NDo=     1
 LinEq1:  Iter= 12 NonCon=     1 RMS=5.55D-08 Max=8.15D-07 NDo=     1
 LinEq1:  Iter= 13 NonCon=     1 RMS=1.76D-08 Max=4.17D-07 NDo=     1
 LinEq1:  Iter= 14 NonCon=     1 RMS=5.61D-09 Max=1.62D-07 NDo=     1
 LinEq1:  Iter= 15 NonCon=     1 RMS=2.00D-09 Max=4.67D-08 NDo=     1
 LinEq1:  Iter= 16 NonCon=     1 RMS=7.26D-10 Max=1.09D-08 NDo=     1
 LinEq1:  Iter= 17 NonCon=     1 RMS=2.48D-10 Max=4.37D-09 NDo=     1
 LinEq1:  Iter= 18 NonCon=     0 RMS=8.49D-11 Max=9.81D-10 NDo=     1
 Linear equations converged to 1.000D-10 1.000D-09 after    18 iterations.
 End of Minotr F.D. properties file   721 does not exist.
 End of Minotr F.D. properties file   722 does not exist.
 End of Minotr F.D. properties file   788 does not exist.

 **********************************************************************

            Population analysis using the SCF Density.

 **********************************************************************

 Alpha  occ. eigenvalues --  -20.60007 -20.59531 -15.85421 -15.62935 -15.57109
 Alpha  occ. eigenvalues --  -11.35674 -11.30499 -11.30301 -11.29893 -11.27850
 Alpha  occ. eigenvalues --  -11.24530 -11.23803 -11.23484 -11.22852  -1.58631
 Alpha  occ. eigenvalues --   -1.38129  -1.28210  -1.22976  -1.13196  -1.08406
 Alpha  occ. eigenvalues --   -1.01788  -1.00553  -0.93498  -0.89059  -0.84859
 Alpha  occ. eigenvalues --   -0.81577  -0.78211  -0.76777  -0.74310  -0.71172
 Alpha  occ. eigenvalues --   -0.70456  -0.69888  -0.67395  -0.64353  -0.63465
 Alpha  occ. eigenvalues --   -0.61281  -0.60597  -0.57346  -0.56319  -0.54882
 Alpha  occ. eigenvalues --   -0.53379  -0.50744  -0.49129  -0.48556  -0.47741
 Alpha  occ. eigenvalues --   -0.47565  -0.46090  -0.45703  -0.44097  -0.42158
 Alpha  occ. eigenvalues --   -0.40320  -0.33961
 Alpha virt. eigenvalues --    0.07028   0.11688   0.18556   0.21392   0.23267
 Alpha virt. eigenvalues --    0.24061   0.26317   0.27591   0.28587   0.28937
 Alpha virt. eigenvalues --    0.30054   0.30992   0.31913   0.32207   0.33341
 Alpha virt. eigenvalues --    0.33729   0.34086   0.35535   0.37578   0.38756
 Alpha virt. eigenvalues --    0.40772   0.41906   0.44572   0.45350   0.45693
 Alpha virt. eigenvalues --    0.46125   0.49619   0.53143   0.57668   0.58837
 Alpha virt. eigenvalues --    0.63156   0.69109   0.69747   0.72163   0.74052
 Alpha virt. eigenvalues --    0.75074   0.75702   0.75856   0.77588   0.79653
 Alpha virt. eigenvalues --    0.80417   0.83677   0.85110   0.85252   0.88150
 Alpha virt. eigenvalues --    0.88769   0.90314   0.91189   0.91743   0.93800
 Alpha virt. eigenvalues --    0.95592   0.97196   0.98635   1.00067   1.01912
 Alpha virt. eigenvalues --    1.02781   1.05239   1.06157   1.07009   1.08513
 Alpha virt. eigenvalues --    1.09396   1.10480   1.10967   1.11829   1.13307
 Alpha virt. eigenvalues --    1.13696   1.14411   1.15236   1.16315   1.17188
 Alpha virt. eigenvalues --    1.17924   1.19836   1.21008   1.22051   1.23435
 Alpha virt. eigenvalues --    1.23584   1.24432   1.25901   1.26982   1.27364
 Alpha virt. eigenvalues --    1.29703   1.30742   1.32656   1.35324   1.40066
 Alpha virt. eigenvalues --    1.43382   1.44721   1.47046   1.48237   1.51613
 Alpha virt. eigenvalues --    1.53680   1.55354   1.61230   1.61446   1.65965
 Alpha virt. eigenvalues --    1.68706   1.70205   1.72526   1.73850   1.75955
 Alpha virt. eigenvalues --    1.79124   1.80022   1.84312   1.89132   1.92664
 Alpha virt. eigenvalues --    1.93795   1.96143   1.97317   1.99069   2.00755
 Alpha virt. eigenvalues --    2.03129   2.04232   2.05955   2.08455   2.11906
 Alpha virt. eigenvalues --    2.12275   2.14738   2.17851   2.18186   2.19350
 Alpha virt. eigenvalues --    2.20213   2.22307   2.24074   2.24665   2.26754
 Alpha virt. eigenvalues --    2.29305   2.32440   2.34298   2.35364   2.35918
 Alpha virt. eigenvalues --    2.38664   2.39707   2.41501   2.42916   2.46505
 Alpha virt. eigenvalues --    2.48244   2.50421   2.51745   2.56594   2.57205
 Alpha virt. eigenvalues --    2.61193   2.62833   2.66516   2.68181   2.68836
 Alpha virt. eigenvalues --    2.69932   2.70681   2.74904   2.77539   2.80618
 Alpha virt. eigenvalues --    2.84296   2.87853   2.90216   2.91754   2.95325
 Alpha virt. eigenvalues --    2.97785   2.98428   3.01753   3.03023   3.05963
 Alpha virt. eigenvalues --    3.06532   3.12197   3.19768   3.22431   3.27272
 Alpha virt. eigenvalues --    3.29058   3.32668   3.36702   3.43747   3.58649
 Alpha virt. eigenvalues --    4.09600   4.22992   4.32516   4.36212   4.43051
 Alpha virt. eigenvalues --    4.53094   4.59669   4.60108   4.70747   4.77149
 Alpha virt. eigenvalues --    4.95505   4.99235   5.02268   5.10066
          Condensed to atoms (all electrons):
               1          2          3          4          5          6
     1  O    8.298006   0.313406  -0.089684  -0.079236   0.003380  -0.000013
     2  N    0.313406   5.687350   0.308665   0.262709  -0.044601   0.000930
     3  O   -0.089684   0.308665   8.328142  -0.086402   0.007131   0.000441
     4  C   -0.079236   0.262709  -0.086402   5.239558   0.566124  -0.046973
     5  C    0.003380  -0.044601   0.007131   0.566124   4.677515   0.305386
     6  N   -0.000013   0.000930   0.000441  -0.046973   0.305386   7.193136
     7  C    0.000003  -0.000107   0.000001   0.003326  -0.034579   0.202524
     8  H   -0.000000   0.000003  -0.000000  -0.000112   0.002021  -0.052735
     9  C   -0.000000  -0.000003   0.000000   0.000390   0.002288  -0.056472
    10  C   -0.000000   0.000000  -0.000000  -0.000014  -0.000084   0.003322
    11  C   -0.000000  -0.000000  -0.000000  -0.000020   0.000014  -0.000142
    12  C   -0.000000   0.000002  -0.000000   0.000018  -0.000119   0.003301
    13  C   -0.000023  -0.000036  -0.000003  -0.012641   0.000656  -0.036922
    14  H   -0.000005  -0.000049   0.000000   0.003212   0.005538  -0.005134
    15  N    0.000094   0.001715  -0.000015  -0.061472  -0.004162   0.001881
    16  C    0.004177  -0.028658   0.001921   0.319888  -0.041010  -0.001838
    17  H    0.000123  -0.003941   0.011448  -0.031103   0.381009  -0.035919
    18  H    0.000000  -0.000032   0.000009   0.000553  -0.021954   0.327428
    19  H    0.000000   0.000001   0.000000  -0.000646   0.000473   0.000956
    20  H    0.000000  -0.000000   0.000000  -0.000023   0.000066  -0.002294
    21  H   -0.000000  -0.000000   0.000000   0.000000   0.000001  -0.000058
    22  H   -0.000000   0.000000  -0.000000  -0.000000  -0.000003  -0.000099
    23  H    0.000000  -0.000000   0.000000   0.000024  -0.000000  -0.000022
    24  H    0.000000   0.000000   0.000000   0.000000  -0.000000   0.000004
    25  H    0.000000  -0.000000   0.000000   0.000017   0.000000  -0.000062
    26  H    0.000000  -0.000000   0.000000   0.000007  -0.000001  -0.000060
    27  H    0.004818  -0.000139  -0.000011  -0.064952   0.002187   0.000061
               7          8          9         10         11         12
     1  O    0.000003  -0.000000  -0.000000  -0.000000  -0.000000  -0.000000
     2  N   -0.000107   0.000003  -0.000003   0.000000  -0.000000   0.000002
     3  O    0.000001  -0.000000   0.000000  -0.000000  -0.000000  -0.000000
     4  C    0.003326  -0.000112   0.000390  -0.000014  -0.000020   0.000018
     5  C   -0.034579   0.002021   0.002288  -0.000084   0.000014  -0.000119
     6  N    0.202524  -0.052735  -0.056472   0.003322  -0.000142   0.003301
     7  C    4.995786   0.418373   0.337894  -0.049040  -0.007584  -0.061804
     8  H    0.418373   0.554266  -0.062338   0.001482  -0.000409  -0.003000
     9  C    0.337894  -0.062338   5.186484   0.317884  -0.052799  -0.006656
    10  C   -0.049040   0.001482   0.317884   5.125169   0.333030  -0.060127
    11  C   -0.007584  -0.000409  -0.052799   0.333030   5.123001   0.330689
    12  C   -0.061804  -0.003000  -0.006656  -0.060127   0.330689   5.134785
    13  C    0.335105  -0.042394  -0.048361  -0.001905  -0.048096   0.367525
    14  H   -0.040716  -0.000992   0.003988  -0.000400   0.003954  -0.040772
    15  N   -0.058958   0.004214  -0.012792   0.001489  -0.007623  -0.073714
    16  C   -0.002739   0.000042  -0.000935  -0.000016  -0.000002   0.002702
    17  H    0.001764  -0.000015  -0.000076   0.000001   0.000000   0.000001
    18  H   -0.026226  -0.001707   0.000978  -0.000119   0.000011  -0.000111
    19  H   -0.035067   0.004228   0.384910  -0.032525  -0.002331   0.000666
    20  H   -0.041518  -0.001880   0.397720  -0.037635   0.004164  -0.000347
    21  H    0.004024  -0.000072  -0.035954   0.400189  -0.036018   0.004237
    22  H   -0.004075   0.003529  -0.045698   0.396119  -0.045522  -0.001321
    23  H    0.000384   0.000034  -0.002001  -0.040178   0.396901  -0.036930
    24  H   -0.000146  -0.000097   0.004389  -0.038382   0.400183  -0.037823
    25  H    0.004854   0.000007  -0.000362   0.004109  -0.034106   0.395983
    26  H   -0.004387   0.001714   0.000995  -0.002442  -0.042032   0.394590
    27  H   -0.000417   0.000009  -0.000058   0.000005   0.000004  -0.000019
              13         14         15         16         17         18
     1  O   -0.000023  -0.000005   0.000094   0.004177   0.000123   0.000000
     2  N   -0.000036  -0.000049   0.001715  -0.028658  -0.003941  -0.000032
     3  O   -0.000003   0.000000  -0.000015   0.001921   0.011448   0.000009
     4  C   -0.012641   0.003212  -0.061472   0.319888  -0.031103   0.000553
     5  C    0.000656   0.005538  -0.004162  -0.041010   0.381009  -0.021954
     6  N   -0.036922  -0.005134   0.001881  -0.001838  -0.035919   0.327428
     7  C    0.335105  -0.040716  -0.058958  -0.002739   0.001764  -0.026226
     8  H   -0.042394  -0.000992   0.004214   0.000042  -0.000015  -0.001707
     9  C   -0.048361   0.003988  -0.012792  -0.000935  -0.000076   0.000978
    10  C   -0.001905  -0.000400   0.001489  -0.000016   0.000001  -0.000119
    11  C   -0.048096   0.003954  -0.007623  -0.000002   0.000000   0.000011
    12  C    0.367525  -0.040772  -0.073714   0.002702   0.000001  -0.000111
    13  C    5.029302   0.400503   0.238226  -0.071031  -0.000037   0.003013
    14  H    0.400503   0.521236  -0.036016  -0.005055   0.000080   0.000006
    15  N    0.238226  -0.036016   6.927259   0.587406  -0.000073  -0.000106
    16  C   -0.071031  -0.005055   0.587406   4.704161   0.001685  -0.000215
    17  H   -0.000037   0.000080  -0.000073   0.001685   0.393830  -0.001489
    18  H    0.003013   0.000006  -0.000106  -0.000215  -0.001489   0.314837
    19  H   -0.006538   0.000062   0.006999   0.002542   0.000010  -0.000112
    20  H    0.003825  -0.000049   0.000069  -0.000028  -0.000000   0.003166
    21  H   -0.000375   0.000009  -0.000025   0.000002  -0.000000  -0.000000
    22  H    0.000347  -0.000046   0.000002  -0.000001   0.000000   0.000002
    23  H   -0.005722   0.000006   0.006624   0.000048   0.000000   0.000000
    24  H    0.004149  -0.000058   0.000042   0.000005   0.000000  -0.000000
    25  H   -0.034547  -0.002707   0.000606  -0.000056  -0.000000   0.000002
    26  H   -0.044532  -0.000939   0.004171  -0.000067   0.000000  -0.000001
    27  H    0.004902  -0.000181  -0.039101   0.401554  -0.000060   0.000003
              19         20         21         22         23         24
     1  O    0.000000   0.000000  -0.000000  -0.000000   0.000000   0.000000
     2  N    0.000001  -0.000000  -0.000000   0.000000  -0.000000   0.000000
     3  O    0.000000   0.000000   0.000000  -0.000000   0.000000   0.000000
     4  C   -0.000646  -0.000023   0.000000  -0.000000   0.000024   0.000000
     5  C    0.000473   0.000066   0.000001  -0.000003  -0.000000  -0.000000
     6  N    0.000956  -0.002294  -0.000058  -0.000099  -0.000022   0.000004
     7  C   -0.035067  -0.041518   0.004024  -0.004075   0.000384  -0.000146
     8  H    0.004228  -0.001880  -0.000072   0.003529   0.000034  -0.000097
     9  C    0.384910   0.397720  -0.035954  -0.045698  -0.002001   0.004389
    10  C   -0.032525  -0.037635   0.400189   0.396119  -0.040178  -0.038382
    11  C   -0.002331   0.004164  -0.036018  -0.045522   0.396901   0.400183
    12  C    0.000666  -0.000347   0.004237  -0.001321  -0.036930  -0.037823
    13  C   -0.006538   0.003825  -0.000375   0.000347  -0.005722   0.004149
    14  H    0.000062  -0.000049   0.000009  -0.000046   0.000006  -0.000058
    15  N    0.006999   0.000069  -0.000025   0.000002   0.006624   0.000042
    16  C    0.002542  -0.000028   0.000002  -0.000001   0.000048   0.000005
    17  H    0.000010  -0.000000  -0.000000   0.000000   0.000000   0.000000
    18  H   -0.000112   0.003166  -0.000000   0.000002   0.000000  -0.000000
    19  H    0.509474  -0.024259  -0.002585   0.003770   0.001643  -0.000069
    20  H   -0.024259   0.551953  -0.002616  -0.002990  -0.000050  -0.000090
    21  H   -0.002585  -0.002616   0.527388  -0.024794  -0.002841  -0.002058
    22  H    0.003770  -0.002990  -0.024794   0.568348   0.004068  -0.003590
    23  H    0.001643  -0.000050  -0.002841   0.004068   0.510696  -0.025014
    24  H   -0.000069  -0.000090  -0.002058  -0.003590  -0.025014   0.540995
    25  H   -0.000027   0.000011  -0.000087  -0.000082  -0.002128  -0.002345
    26  H    0.000024  -0.000035  -0.000075   0.002474   0.003830  -0.002792
    27  H    0.000075  -0.000000  -0.000000   0.000000  -0.000020  -0.000000
              25         26         27
     1  O    0.000000   0.000000   0.004818
     2  N   -0.000000  -0.000000  -0.000139
     3  O    0.000000   0.000000  -0.000011
     4  C    0.000017   0.000007  -0.064952
     5  C    0.000000  -0.000001   0.002187
     6  N   -0.000062  -0.000060   0.000061
     7  C    0.004854  -0.004387  -0.000417
     8  H    0.000007   0.001714   0.000009
     9  C   -0.000362   0.000995  -0.000058
    10  C    0.004109  -0.002442   0.000005
    11  C   -0.034106  -0.042032   0.000004
    12  C    0.395983   0.394590  -0.000019
    13  C   -0.034547  -0.044532   0.004902
    14  H   -0.002707  -0.000939  -0.000181
    15  N    0.000606   0.004171  -0.039101
    16  C   -0.000056  -0.000067   0.401554
    17  H   -0.000000   0.000000  -0.000060
    18  H    0.000002  -0.000001   0.000003
    19  H   -0.000027   0.000024   0.000075
    20  H    0.000011  -0.000035  -0.000000
    21  H   -0.000087  -0.000075  -0.000000
    22  H   -0.000082   0.002474   0.000000
    23  H   -0.002128   0.003830  -0.000020
    24  H   -0.002345  -0.002792  -0.000000
    25  H    0.510001  -0.023112  -0.000009
    26  H   -0.023112   0.559016   0.000001
    27  H   -0.000009   0.000001   0.453300
 Mulliken charges:
               1
     1  O   -0.455048
     2  N    0.502785
     3  O   -0.481641
     4  C   -0.012232
     5  C    0.192724
     6  N   -0.800626
     7  C    0.063324
     8  H    0.175831
     9  C   -0.313414
    10  C   -0.319932
    11  C   -0.315268
    12  C   -0.311756
    13  C   -0.034390
    14  H    0.194525
    15  N   -0.486742
    16  C    0.125518
    17  H    0.282760
    18  H    0.402064
    19  H    0.188325
    20  H    0.152842
    21  H    0.171709
    22  H    0.149560
    23  H    0.190646
    24  H    0.162696
    25  H    0.184042
    26  H    0.153652
    27  H    0.238047
 Sum of Mulliken charges =  -0.00000
 Mulliken charges with hydrogens summed into heavy atoms:
               1
     1  O   -0.455048
     2  N    0.502785
     3  O   -0.481641
     4  C   -0.012232
     5  C    0.475484
     6  N   -0.398562
     7  C    0.239155
     9  C    0.027752
    10  C    0.001336
    11  C    0.038074
    12  C    0.025937
    13  C    0.160134
    15  N   -0.486742
    16  C    0.363566
 Electronic spatial extent (au):  <R**2>=           3113.2179
 Charge=             -0.0000 electrons
 Dipole moment (field-independent basis, Debye):
    X=              5.2296    Y=              4.3493    Z=              0.2855  Tot=              6.8078
 Quadrupole moment (field-independent basis, Debye-Ang):
   XX=           -105.1380   YY=            -80.5972   ZZ=            -82.1360
   XY=             -2.0325   XZ=              1.6569   YZ=             -0.4611
 Traceless Quadrupole moment (field-independent basis, Debye-Ang):
   XX=            -15.8476   YY=              8.6932   ZZ=              7.1544
   XY=             -2.0325   XZ=              1.6569   YZ=             -0.4611
 Octapole moment (field-independent basis, Debye-Ang**2):
  XXX=             97.9501  YYY=             36.9360  ZZZ=             -6.3913  XYY=             -1.0600
  XXY=             11.8244  XXZ=             -4.5284  XZZ=             -8.9697  YZZ=             -2.9792
  YYZ=             -1.4298  XYZ=             -2.1513
 Hexadecapole moment (field-independent basis, Debye-Ang**3):
 XXXX=          -3527.7938 YYYY=           -624.8682 ZZZZ=           -297.4813 XXXY=            -49.9395
 XXXZ=             60.2320 YYYX=            -27.1970 YYYZ=              6.1612 ZZZX=             38.5934
 ZZZY=             10.5576 XXYY=           -655.4429 XXZZ=           -540.3584 YYZZ=           -164.8697
 XXYZ=              2.5423 YYXZ=             16.0437 ZZXY=              0.6055
 N-N= 9.181811202129D+02 E-N=-3.382360246124D+03  KE= 6.588570834875D+02
 Calling FoFJK, ICntrl=  10002127 FMM=F ISym2X=0 I1Cent= 0 IOpClX= 0 NMat=1 NMatS=1 NMatT=0.
 -------------------------------------------------------------------
 Center     Atomic                   Forces (Hartrees/Bohr)
 Number     Number              X              Y              Z
 -------------------------------------------------------------------
      1        8           0.003032115   -0.019335087   -0.003955153
      2        7           0.037420242    0.015082306   -0.001877502
      3        8          -0.005273150    0.015095111    0.004200115
      4        6          -0.000915020    0.012374219    0.011211052
      5        6          -0.003284919   -0.007053035   -0.008419829
      6        7           0.014218492   -0.032118578   -0.001931914
      7        6           0.002830807    0.015055236    0.001628860
      8        1          -0.008658858   -0.002418409   -0.007866416
      9        6          -0.003747120   -0.000896670   -0.001941196
     10        6           0.002944465   -0.000636216    0.000762718
     11        6          -0.001214952   -0.004623725   -0.002662389
     12        6           0.001431788   -0.007483237   -0.002847149
     13        6           0.006318407    0.000360091    0.006031796
     14        1           0.000458193    0.004306507   -0.009820037
     15        7           0.001337081    0.001488776   -0.001370999
     16        6          -0.021780704    0.004430834    0.005132242
     17        1           0.004805964   -0.005457260   -0.009164642
     18        1          -0.016203414   -0.002404310    0.008247589
     19        1           0.003030035    0.005942279    0.007517982
     20        1          -0.003439128   -0.007284110    0.002554285
     21        1          -0.004544901    0.002308683    0.009503989
     22        1          -0.003857668   -0.003983809   -0.007545470
     23        1           0.003875001    0.006095279    0.009373488
     24        1          -0.009356127    0.002627055   -0.002316958
     25        1          -0.001066189    0.010674432   -0.002408292
     26        1          -0.004747717   -0.004856364   -0.004567748
     27        1           0.006387278    0.002710002    0.002531580
 -------------------------------------------------------------------
 Cartesian Forces:  Max     0.037420242 RMS     0.008962214

 GradGradGradGradGradGradGradGradGradGradGradGradGradGradGradGradGradGrad
 Berny optimization.
 FormGI is forming the generalized inverse of G from B-inverse, IUseBI=4.
 Internal  Forces:  Max     0.036739631 RMS     0.006820643
 Search for a local minimum.
 Step number   1 out of a maximum of   20
 All quantities printed in internal units (Hartrees-Bohrs-Radians)
 Mixed Optimization -- RFO/linear search
 Second derivative matrix not updated -- first step.
 ITU=  0
     Eigenvalues ---    0.00232   0.00756   0.01036   0.01152   0.01188
     Eigenvalues ---    0.01522   0.01556   0.01705   0.01996   0.02027
     Eigenvalues ---    0.02060   0.02667   0.03657   0.04517   0.04713
     Eigenvalues ---    0.04838   0.05060   0.05142   0.05296   0.05914
     Eigenvalues ---    0.06385   0.07358   0.07743   0.07779   0.07999
     Eigenvalues ---    0.08007   0.08042   0.08081   0.10493   0.11802
     Eigenvalues ---    0.12370   0.13637   0.15316   0.15994   0.15997
     Eigenvalues ---    0.16652   0.20326   0.23032   0.24990   0.25000
     Eigenvalues ---    0.25000   0.25284   0.26021   0.26637   0.27981
     Eigenvalues ---    0.28087   0.28463   0.29693   0.30174   0.31398
     Eigenvalues ---    0.32015   0.32232   0.32284   0.32375   0.32385
     Eigenvalues ---    0.32404   0.32506   0.32517   0.32569   0.33331
     Eigenvalues ---    0.33389   0.33600   0.35442   0.43874   0.44126
     Eigenvalues ---    0.47762   0.66279   0.90461   0.911521000.00000
     Eigenvalues --- 1000.000001000.000001000.000001000.000001000.00000
     Eigenvalues --- 1000.000001000.000001000.000001000.000001000.00000
     Eigenvalues --- 1000.000001000.000001000.000001000.000001000.00000
     Eigenvalues --- 1000.000001000.000001000.000001000.000001000.00000
     Eigenvalues --- 1000.000001000.000001000.000001000.000001000.00000
     Eigenvalues --- 1000.000001000.000001000.000001000.000001000.00000
     Eigenvalues --- 1000.000001000.000001000.000001000.000001000.00000
     Eigenvalues --- 1000.000001000.000001000.000001000.000001000.00000
     Eigenvalues --- 1000.000001000.000001000.000001000.000001000.00000
     Eigenvalues --- 1000.000001000.000001000.000001000.000001000.00000
     Eigenvalues --- 1000.000001000.000001000.000001000.000001000.00000
     Eigenvalues --- 1000.000001000.000001000.000001000.000001000.00000
     Eigenvalues --- 1000.000001000.000001000.000001000.000001000.00000
     Eigenvalues --- 1000.000001000.000001000.000001000.000001000.00000
     Eigenvalues --- 1000.000001000.000001000.000001000.000001000.00000
     Eigenvalues --- 1000.000001000.000001000.000001000.000001000.00000
     Eigenvalues --- 1000.000001000.000001000.000001000.000001000.00000
     Eigenvalues --- 1000.000001000.000001000.000001000.000001000.00000
     Eigenvalues --- 1000.00000
 RFO step:  Lambda=-2.38208093D-02 EMin= 2.31606534D-03
 Linear search not attempted -- first point.
 Iteration  1 RMS(Cart)=  0.05468217 RMS(Int)=  0.00100766
 Iteration  2 RMS(Cart)=  0.00115768 RMS(Int)=  0.00016943
 Iteration  3 RMS(Cart)=  0.00000116 RMS(Int)=  0.00016943
 Iteration  4 RMS(Cart)=  0.00000000 RMS(Int)=  0.00016943
 Iteration  1 RMS(Cart)=  0.00003440 RMS(Int)=  0.00003162
 Iteration  2 RMS(Cart)=  0.00002028 RMS(Int)=  0.00003478
 Iteration  3 RMS(Cart)=  0.00001290 RMS(Int)=  0.00003937
 Iteration  4 RMS(Cart)=  0.00000874 RMS(Int)=  0.00004319
 Iteration  5 RMS(Cart)=  0.00000626 RMS(Int)=  0.00004615
 Iteration  6 RMS(Cart)=  0.00000473 RMS(Int)=  0.00004842
 Iteration  7 RMS(Cart)=  0.00000374 RMS(Int)=  0.00005020
 Iteration  8 RMS(Cart)=  0.00000306 RMS(Int)=  0.00005160
 Iteration  9 RMS(Cart)=  0.00000257 RMS(Int)=  0.00005272
 Iteration 10 RMS(Cart)=  0.00000218 RMS(Int)=  0.00005364
 Iteration 11 RMS(Cart)=  0.00000186 RMS(Int)=  0.00005439
 Iteration 12 RMS(Cart)=  0.00000159 RMS(Int)=  0.00005501
 Iteration 13 RMS(Cart)=  0.00000136 RMS(Int)=  0.00005553
 Iteration 14 RMS(Cart)=  0.00000117 RMS(Int)=  0.00005597
 Iteration 15 RMS(Cart)=  0.00000100 RMS(Int)=  0.00005634
 Variable       Old X    -DE/DX   Delta X   Delta X   Delta X     New X
                                 (Linear)    (Quad)   (Total)
    R1        2.32407   0.01800   0.00000   0.01924   0.01924   2.34331
    R2        2.32721   0.01544   0.00000   0.01663   0.01663   2.34384
    R3        2.88581  -0.03668   0.00000  -0.11435  -0.11435   2.77145
    R4        2.64517  -0.03674   0.00000  -0.07977  -0.07959   2.56558
    R5        2.80219  -0.01739   0.00000  -0.05452  -0.05420   2.74799
    R6        2.59806  -0.02374   0.00000  -0.04401  -0.04410   2.55395
    R7        2.08374  -0.00950   0.00000  -0.02657  -0.02657   2.05718
    R8        2.83852  -0.02216   0.00000  -0.05700  -0.05729   2.78122
    R9        1.93306  -0.00791   0.00000  -0.01710  -0.01710   1.91596
   R10        2.11960  -0.01149   0.00000  -0.03401  -0.03401   2.08559
   R11        2.92885  -0.01299   0.00000  -0.04362  -0.04363   2.88522
   R12        2.90534  -0.00756   0.00000  -0.01583  -0.01596   2.88938
   R13        2.91122  -0.00520   0.00000  -0.01533  -0.01535   2.89587
   R14        2.09927  -0.00986   0.00000  -0.02827  -0.02827   2.07100
   R15        2.09908  -0.00800   0.00000  -0.02292  -0.02292   2.07616
   R16        2.90341  -0.00171   0.00000  -0.00792  -0.00794   2.89546
   R17        2.10145  -0.01054   0.00000  -0.03031  -0.03031   2.07115
   R18        2.10327  -0.00908   0.00000  -0.02619  -0.02619   2.07707
   R19        2.91684  -0.00864   0.00000  -0.02805  -0.02805   2.88879
   R20        2.10422  -0.01169   0.00000  -0.03378  -0.03378   2.07044
   R21        2.10111  -0.00996   0.00000  -0.02865  -0.02865   2.07246
   R22        2.93542  -0.01047   0.00000  -0.03698  -0.03696   2.89846
   R23        2.10163  -0.01078   0.00000  -0.03102  -0.03102   2.07062
   R24        2.09815  -0.00797   0.00000  -0.02281  -0.02281   2.07534
   R25        2.10816  -0.00884   0.00000  -0.02570  -0.02570   2.08246
   R26        2.76577  -0.00407   0.00000  -0.00856  -0.00870   2.75708
   R27        2.43918  -0.00341   0.00000  -0.00722  -0.00702   2.43216
   R28        2.08011  -0.00622   0.00000  -0.01729  -0.01729   2.06282
    A1        2.15908   0.01115   0.00000   0.04097   0.04072   2.19980
    A2        2.05379  -0.00893   0.00000  -0.03236  -0.03261   2.02119
    A3        2.07010  -0.00221   0.00000  -0.00783  -0.00808   2.06202
    A4        2.03532  -0.00678   0.00000  -0.02508  -0.02525   2.01007
    A5        2.03399  -0.00327   0.00000  -0.01217  -0.01234   2.02165
    A6        2.21350   0.01002   0.00000   0.03663   0.03671   2.25021
    A7        2.22706  -0.00058   0.00000   0.01280   0.01248   2.23954
    A8        2.05418  -0.00156   0.00000  -0.01632  -0.01624   2.03795
    A9        2.00176   0.00214   0.00000   0.00386   0.00394   2.00570
   A10        2.18038   0.00558   0.00000   0.00000  -0.00000   2.18037
   A11        2.15103  -0.01639   0.00000  -0.07503  -0.07517   2.07586
   A12        1.91428   0.01118   0.00000   0.07824   0.07834   1.99262
   A13        1.82674   0.00038   0.00000  -0.00844  -0.00819   1.81854
   A14        1.99195   0.00120   0.00000  -0.00782  -0.00783   1.98413
   A15        2.00505  -0.00433   0.00000  -0.00796  -0.00865   1.99640
   A16        1.84588   0.00158   0.00000   0.02373   0.02357   1.86945
   A17        1.84096   0.00137   0.00000   0.01408   0.01402   1.85498
   A18        1.93541   0.00039   0.00000  -0.00807  -0.00781   1.92760
   A19        1.91473  -0.00028   0.00000  -0.00476  -0.00487   1.90986
   A20        1.92096  -0.00049   0.00000  -0.01067  -0.01063   1.91032
   A21        1.92324  -0.00157   0.00000  -0.00847  -0.00846   1.91478
   A22        1.91859  -0.00051   0.00000   0.00621   0.00613   1.92472
   A23        1.90177   0.00340   0.00000   0.02374   0.02380   1.92557
   A24        1.88425  -0.00051   0.00000  -0.00566  -0.00591   1.87834
   A25        1.94092  -0.00163   0.00000   0.00299   0.00280   1.94372
   A26        1.91894  -0.00039   0.00000  -0.00530  -0.00528   1.91366
   A27        1.90472   0.00048   0.00000  -0.00287  -0.00287   1.90184
   A28        1.91610   0.00109   0.00000   0.00785   0.00791   1.92401
   A29        1.89842   0.00181   0.00000   0.01112   0.01119   1.90961
   A30        1.88367  -0.00133   0.00000  -0.01422  -0.01431   1.86936
   A31        1.94351   0.00030   0.00000   0.00343   0.00360   1.94711
   A32        1.90251   0.00087   0.00000   0.00675   0.00666   1.90916
   A33        1.91804   0.00033   0.00000   0.00523   0.00522   1.92326
   A34        1.90609  -0.00095   0.00000  -0.01262  -0.01267   1.89342
   A35        1.91592  -0.00043   0.00000  -0.00032  -0.00041   1.91552
   A36        1.87644  -0.00014   0.00000  -0.00277  -0.00279   1.87365
   A37        1.95053  -0.00193   0.00000  -0.01655  -0.01659   1.93394
   A38        1.90576   0.00269   0.00000   0.01739   0.01722   1.92298
   A39        1.90978   0.00082   0.00000   0.01386   0.01386   1.92364
   A40        1.90584  -0.00062   0.00000  -0.00674  -0.00657   1.89927
   A41        1.91049  -0.00025   0.00000  -0.00398  -0.00394   1.90655
   A42        1.88009  -0.00067   0.00000  -0.00353  -0.00375   1.87634
   A43        1.85070   0.00285   0.00000   0.01835   0.01839   1.86909
   A44        1.93849  -0.00341   0.00000  -0.03174  -0.03199   1.90650
   A45        1.97948   0.00073   0.00000   0.01848   0.01849   1.99797
   A46        1.87497   0.00250   0.00000   0.03191   0.03215   1.90711
   A47        1.89275  -0.00228   0.00000  -0.02770  -0.02765   1.86510
   A48        1.92262  -0.00014   0.00000  -0.00721  -0.00696   1.91565
   A49        2.06907  -0.00638   0.00000  -0.01285  -0.01324   2.05582
   A50        2.23381  -0.00365   0.00000  -0.01862  -0.01879   2.21502
   A51        1.98505   0.00580   0.00000   0.03135   0.03093   2.01598
   A52        2.06383  -0.00207   0.00000  -0.01132  -0.01173   2.05210
    D1       -3.02462  -0.00080   0.00000  -0.02217  -0.02161  -3.04623
    D2        0.14413  -0.00007   0.00000   0.00000  -0.00000   0.14413
    D3        0.13808  -0.00169   0.00000  -0.06190  -0.06161   0.07646
    D4       -2.97635  -0.00097   0.00000  -0.03973  -0.04001  -3.01636
    D5        3.12454  -0.00116   0.00000  -0.01328  -0.01319   3.11135
    D6        0.00442  -0.00174   0.00000  -0.03366  -0.03348  -0.02906
    D7       -0.04741  -0.00225   0.00000  -0.03908  -0.03927  -0.08668
    D8        3.11565  -0.00282   0.00000  -0.05946  -0.05955   3.05610
    D9       -2.61644  -0.00239   0.00000  -0.04613  -0.04650  -2.66294
   D10        0.49037   0.00041   0.00000   0.00327   0.00317   0.49354
   D11        0.55549  -0.00125   0.00000  -0.02015  -0.02009   0.53540
   D12       -2.62088   0.00155   0.00000   0.02925   0.02958  -2.59130
   D13       -0.30289   0.00167   0.00000   0.06039   0.06072  -0.24218
   D14        2.51752   0.00508   0.00000   0.08694   0.08649   2.60401
   D15        2.81778   0.00219   0.00000   0.08004   0.08047   2.89825
   D16       -0.64500   0.00560   0.00000   0.10659   0.10625  -0.53875
   D17       -2.35818  -0.00095   0.00000  -0.03908  -0.03887  -2.39706
   D18        1.91537  -0.00368   0.00000  -0.05854  -0.05826   1.85711
   D19       -0.34792  -0.00124   0.00000  -0.03139  -0.03142  -0.37934
   D20        1.06762   0.00037   0.00000  -0.03984  -0.04006   1.02756
   D21       -0.94201  -0.00236   0.00000  -0.05930  -0.05945  -1.00145
   D22        3.07789   0.00008   0.00000  -0.03215  -0.03261   3.04528
   D23        2.91272   0.00483   0.00000   0.02938   0.02951   2.94224
   D24       -1.25723   0.00370   0.00000   0.02722   0.02730  -1.22993
   D25        0.81888   0.00180   0.00000   0.00834   0.00850   0.82738
   D26        0.91435   0.00278   0.00000   0.02888   0.02892   0.94328
   D27        3.02758   0.00165   0.00000   0.02672   0.02671   3.05430
   D28       -1.17949  -0.00026   0.00000   0.00784   0.00791  -1.17158
   D29       -1.07293   0.00013   0.00000   0.00336   0.00331  -1.06962
   D30        1.04030  -0.00100   0.00000   0.00121   0.00110   1.04140
   D31        3.11641  -0.00290   0.00000  -0.01767  -0.01770   3.09871
   D32       -2.89862  -0.00094   0.00000  -0.01156  -0.01125  -2.90988
   D33       -0.86701   0.00191   0.00000   0.02060   0.02056  -0.84645
   D34        1.30938  -0.00042   0.00000   0.00000  -0.00001   1.30937
   D35       -0.89659  -0.00185   0.00000  -0.01698  -0.01685  -0.91345
   D36        1.13502   0.00100   0.00000   0.01518   0.01496   1.14998
   D37       -2.97177  -0.00133   0.00000  -0.00542  -0.00561  -2.97739
   D38        1.09379   0.00093   0.00000   0.01460   0.01472   1.10851
   D39        3.12540   0.00377   0.00000   0.04676   0.04653  -3.11125
   D40       -0.98139   0.00145   0.00000   0.02616   0.02596  -0.95543
   D41        0.95665   0.00042   0.00000   0.00000   0.00001   0.95665
   D42        3.08258   0.00044   0.00000   0.00830   0.00825   3.09084
   D43       -1.13770  -0.00112   0.00000  -0.01381  -0.01379  -1.15148
   D44       -1.15801   0.00153   0.00000   0.01232   0.01240  -1.14561
   D45        0.96793   0.00155   0.00000   0.02062   0.02065   0.98858
   D46        3.03083  -0.00001   0.00000  -0.00149  -0.00139   3.02944
   D47        3.06353   0.00042   0.00000   0.00144   0.00142   3.06496
   D48       -1.09372   0.00044   0.00000   0.00975   0.00967  -1.08405
   D49        0.96919  -0.00112   0.00000  -0.01237  -0.01237   0.95682
   D50       -0.92193  -0.00082   0.00000   0.00000   0.00000  -0.92192
   D51        1.18213  -0.00124   0.00000  -0.00912  -0.00914   1.17299
   D52       -3.04875  -0.00071   0.00000  -0.00548  -0.00552  -3.05427
   D53       -3.04951   0.00002   0.00000  -0.00065  -0.00061  -3.05012
   D54       -0.94545  -0.00041   0.00000  -0.00977  -0.00975  -0.95520
   D55        1.10685   0.00013   0.00000  -0.00612  -0.00613   1.10072
   D56        1.17615  -0.00006   0.00000   0.00549   0.00551   1.18166
   D57       -3.00298  -0.00049   0.00000  -0.00363  -0.00363  -3.00661
   D58       -0.95068   0.00005   0.00000   0.00001  -0.00001  -0.95069
   D59        0.98687  -0.00035   0.00000  -0.00754  -0.00762   0.97925
   D60        3.09726  -0.00056   0.00000  -0.01496  -0.01514   3.08212
   D61       -1.13209   0.00067   0.00000  -0.00111  -0.00110  -1.13319
   D62       -1.11508  -0.00100   0.00000  -0.00982  -0.00984  -1.12491
   D63        0.99531  -0.00121   0.00000  -0.01724  -0.01735   0.97796
   D64        3.04915   0.00002   0.00000  -0.00339  -0.00332   3.04583
   D65        3.11492  -0.00002   0.00000   0.00114   0.00112   3.11604
   D66       -1.05787  -0.00023   0.00000  -0.00628  -0.00639  -1.06427
   D67        0.99596   0.00100   0.00000   0.00757   0.00764   1.00361
   D68       -1.04906   0.00054   0.00000  -0.00449  -0.00436  -1.05343
   D69       -3.12308   0.00178   0.00000   0.00691   0.00663  -3.11645
   D70        1.08242   0.00180   0.00000   0.01281   0.01266   1.09508
   D71        3.12378  -0.00118   0.00000  -0.01110  -0.01093   3.11285
   D72        1.04976   0.00006   0.00000   0.00030   0.00006   1.04982
   D73       -1.02792   0.00008   0.00000   0.00620   0.00609  -1.02183
   D74        1.06948   0.00014   0.00000  -0.00060  -0.00040   1.06908
   D75       -1.00453   0.00138   0.00000   0.01080   0.01059  -0.99394
   D76       -3.08221   0.00140   0.00000   0.01669   0.01662  -3.06560
   D77       -1.17217   0.00232   0.00000   0.00000  -0.00001  -1.17218
   D78        3.06018  -0.00016   0.00000  -0.01562  -0.01537   3.04481
   D79        1.01277  -0.00176   0.00000  -0.03382  -0.03405   0.97872
   D80        0.07454   0.00264   0.00000   0.02988   0.02937   0.10391
   D81       -3.03091  -0.00040   0.00000  -0.02218  -0.02194  -3.05285
         Item               Value     Threshold  Converged?
 Maximum Force            0.036709     0.000450     NO 
 RMS     Force            0.006896     0.000300     NO 
 Maximum Displacement     0.272170     0.001800     NO 
 RMS     Displacement     0.054977     0.001200     NO 
 Predicted change in Energy=-1.356208D-02
 GradGradGradGradGradGradGradGradGradGradGradGradGradGradGradGradGradGrad

                          Input orientation:                          
 ---------------------------------------------------------------------
 Center     Atomic      Atomic             Coordinates (Angstroms)
 Number     Number       Type             X           Y           Z
 ---------------------------------------------------------------------
      1          8           0       -3.456740   -1.447789   -0.146684
      2          7           0       -3.117414   -0.268263    0.030063
      3          8           0       -3.877654    0.681252    0.272593
      4          6           0       -1.676670   -0.001870   -0.034591
      5          6           0       -1.309878    1.268180    0.274662
      6          7           0       -0.064681    1.790498    0.331273
      7          6           0        1.179191    1.003934    0.344622
      8          1           0        1.804872    1.499920    1.106568
      9          6           0        1.950547    1.053938   -0.972043
     10          6           0        3.345414    0.452816   -0.768740
     11          6           0        3.264087   -0.962012   -0.186223
     12          6           0        2.409092   -0.999740    1.080440
     13          6           0        1.006198   -0.442975    0.807597
     14          1           0        0.421087   -0.457879    1.741305
     15          7           0        0.385907   -1.322693   -0.177271
     16          6           0       -0.846791   -1.109824   -0.479963
     17          1           0       -2.111225    1.966244    0.510505
     18          1           0        0.066576    2.771019    0.109208
     19          1           0        1.402860    0.492486   -1.737461
     20          1           0        2.029760    2.094434   -1.315758
     21          1           0        3.883570    0.439390   -1.723429
     22          1           0        3.915930    1.097148   -0.085032
     23          1           0        2.817892   -1.635093   -0.926682
     24          1           0        4.270053   -1.339044    0.034294
     25          1           0        2.316322   -2.029464    1.443305
     26          1           0        2.883756   -0.410481    1.876407
     27          1           0       -1.332050   -1.820121   -1.151965
 ---------------------------------------------------------------------
                    Distance matrix (angstroms):
                    1          2          3          4          5
     1  O    0.000000
     2  N    1.240025   0.000000
     3  O    2.210380   1.240308   0.000000
     4  C    2.296061   1.466591   2.324940   0.000000
     5  C    3.487554   2.384884   2.634001   1.357645   0.000000
     6  N    4.713917   3.694375   3.971478   2.438227   1.351495
     7  C    5.267275   4.492020   5.067641   3.051457   2.504033
     8  H    6.159886   5.339872   5.801451   3.959641   3.232250
     9  C    6.014866   5.332604   5.971259   3.892333   3.497219
    10  C    7.090032   6.551808   7.301319   5.095787   4.839963
    11  C    6.738476   6.422743   7.342703   5.035469   5.109533
    12  C    6.009540   5.672797   6.557555   4.351149   4.429839
    13  C    4.673127   4.199912   5.040052   2.846337   2.928528
    14  H    4.425152   3.935136   4.683365   2.786097   2.850712
    15  N    3.844804   3.664433   4.732454   2.453397   3.129305
    16  C    2.652758   2.474688   3.600059   1.454173   2.537481
    17  H    3.727993   2.497252   2.197289   2.087927   1.088610
    18  H    5.502506   4.402419   4.466628   3.278490   2.044633
    19  H    5.469090   4.912816   5.653298   3.553542   3.465442
    20  H    6.634438   5.821252   6.278334   4.446741   3.790160
    21  H    7.741300   7.251847   8.017431   5.827792   5.625936
    22  H    7.799793   7.165579   7.812862   5.699787   5.240964
    23  H    6.325701   6.165343   7.185684   4.864601   5.187553
    24  H    7.729677   7.464667   8.397827   6.095596   6.163685
    25  H    6.016199   5.884264   6.861769   4.715856   5.038800
    26  H    6.735785   6.280387   7.034257   4.961489   4.792709
    27  H    2.379817   2.644424   3.842699   2.161787   3.401964
                    6          7          8          9         10
     6  N    0.000000
     7  C    1.471760   0.000000
     8  H    2.044687   1.103649   0.000000
     9  C    2.510437   1.526793   2.130902   0.000000
    10  C    3.824678   2.497164   2.643194   1.532427   0.000000
    11  C    4.350265   2.914367   3.140338   2.531196   1.532213
    12  C    3.803450   2.463493   2.571783   2.939480   2.531024
    13  C    2.522314   1.528993   2.121817   2.509913   2.959597
    14  H    2.698029   2.159245   2.480066   3.462238   3.959971
    15  N    3.186472   2.512940   3.410110   2.954342   3.501564
    16  C    3.111538   3.041795   4.044646   3.570590   4.483282
    17  H    2.061881   3.432257   3.988554   4.419077   5.805328
    18  H    1.013885   2.101409   2.373203   2.768902   4.110430
    19  H    2.849241   2.155616   3.043853   1.095927   2.171062
    20  H    2.681748   2.160908   2.504334   1.098657   2.173726
    21  H    4.651449   3.450973   3.668051   2.163060   1.096004
    22  H    4.061934   2.771829   2.457377   2.156707   1.099140
    23  H    4.650414   3.356490   3.871515   2.825816   2.159303
    24  H    5.354638   3.890923   3.909809   3.481262   2.170388
    25  H    4.636582   3.420771   3.582111   3.933835   3.480501
    26  H    3.990618   2.693043   2.325140   3.336026   2.820499
    27  H    4.103997   4.064652   5.095481   4.366696   5.214573
                   11         12         13         14         15
    11  C    0.000000
    12  C    1.528684   0.000000
    13  C    2.520940   1.533800   0.000000
    14  H    3.471622   2.163913   1.101992   0.000000
    15  N    2.900705   2.404041   1.458982   2.104774   0.000000
    16  C    4.124009   3.612167   2.352884   2.639427   1.287043
    17  H    6.160689   5.436465   3.951066   3.715352   4.186384
    18  H    4.924112   4.544150   3.420584   3.635272   4.116130
    19  H    2.825963   3.343622   2.740392   3.737497   2.600628
    20  H    3.484433   3.931867   3.463346   4.295086   3.959188
    21  H    2.170412   3.479492   3.932421   4.979785   4.210605
    22  H    2.162239   2.832989   3.411057   4.238814   4.280795
    23  H    1.095632   2.144605   2.776888   3.774740   2.563935
    24  H    1.096699   2.161648   3.471842   4.301729   3.889938
    25  H    2.166350   1.095722   2.153485   2.480040   2.617688
    26  H    2.168705   1.098224   2.160703   2.466828   3.359907
    27  H    4.774253   4.433148   3.347210   3.646944   2.036870
                   16         17         18         19         20
    16  C    0.000000
    17  H    3.470161   0.000000
    18  H    4.030175   2.356165   0.000000
    19  H    3.034737   4.424263   3.222973   0.000000
    20  H    4.386385   4.527629   2.518410   1.771179   0.000000
    21  H    5.130555   6.577181   4.833684   2.481318   2.518328
    22  H    5.264049   6.118544   4.202036   3.067843   2.463109
    23  H    3.728991   6.271470   5.296852   2.680722   3.831698
    24  H    5.147727   7.202250   5.879409   3.835937   4.316286
    25  H    3.814443   6.036469   5.466791   4.160759   4.970018
    26  H    4.467499   5.697749   4.602330   4.008547   4.146545
    27  H    1.091597   4.208026   4.962386   3.629144   5.162590
                   21         22         23         24         25
    21  H    0.000000
    22  H    1.765797   0.000000
    23  H    2.464540   3.062549   0.000000
    24  H    2.530176   2.464685   1.766321   0.000000
    25  H    4.310419   3.830178   2.454372   2.505804   0.000000
    26  H    3.831544   2.680592   3.059628   2.485443   1.769368
    27  H    5.712675   6.098369   4.160170   5.746495   4.482172
                   26         27
    26  H    0.000000
    27  H    5.378768   0.000000
 Symmetry turned off by external request.
 Stoichiometry    C9H13N3O2
 Framework group  C1[X(C9H13N3O2)]
 Deg. of freedom    75
 Full point group                 C1      NOp   1
 Rotational constants (GHZ):           1.6871651           0.4236825           0.3729629
 Standard basis: 6-31G(d) (6D, 7F)
   236 basis functions,   444 primitive gaussians,   236 cartesian basis functions
    52 alpha electrons       52 beta electrons
       nuclear repulsion energy       932.6011921750 Hartrees.
 NAtoms=   27 NActive=   27 NUniq=   27 SFac= 1.00D+00 NAtFMM=   60 NAOKFM=F Big=F
 Integral buffers will be    131072 words long.
 Raffenetti 1 integral format.
 Two-electron integral symmetry is turned off.
 One-electron integrals computed using PRISM.
 NBasis=   236 RedAO= T EigKep=  1.00D-03  NBF=   236
 NBsUse=   236 1.00D-06 EigRej= -1.00D+00 NBFU=   236
 Initial guess from the checkpoint file:  "/home/alexey/tmp/Gau-1382355.chk"
 B after Tr=     0.053004    0.006022    0.000547
         Rot=    0.999999   -0.000855    0.000614    0.001210 Ang=  -0.18 deg.
 ExpMin= 1.61D-01 ExpMax= 5.48D+03 ExpMxC= 8.25D+02 IAcc=3 IRadAn=         5 AccDes= 0.00D+00
 Harris functional with IExCor=  205 and IRadAn=       5 diagonalized for initial guess.
 HarFok:  IExCor=  205 AccDes= 0.00D+00 IRadAn=         5 IDoV= 1 UseB2=F ITyADJ=14
 ICtDFT=  3500011 ScaDFX=  1.000000  1.000000  1.000000  1.000000
 FoFCou: FMM=F IPFlag=           0 FMFlag=      100000 FMFlg1=           0
         NFxFlg=           0 DoJE=T BraDBF=F KetDBF=T FulRan=T
         wScrn=  0.000000 ICntrl=       500 IOpCl=  0 I1Cent=   200000004 NGrid=           0
         NMat0=    1 NMatS0=      1 NMatT0=    0 NMatD0=    1 NMtDS0=    0 NMtDT0=    0
 Symmetry not used in FoFCou.
 Keep R1 ints in memory in canonical form, NReq=397720213.
 Requested convergence on RMS density matrix=1.00D-08 within 128 cycles.
 Requested convergence on MAX density matrix=1.00D-06.
 Requested convergence on             energy=1.00D-06.
 No special actions if energy rises.
 SCF Done:  E(RHF) =  -661.294793350     A.U. after   15 cycles
            NFock= 15  Conv=0.35D-08     -V/T= 2.0024
 ExpMin= 1.61D-01 ExpMax= 5.48D+03 ExpMxC= 8.25D+02 IAcc=3 IRadAn=         5 AccDes= 0.00D+00
 HarFok:  IExCor=  205 AccDes= 0.00D+00 IRadAn=         5 IDoV=-2 UseB2=F ITyADJ=14
 ICtDFT= 12500011 ScaDFX=  1.000000  1.000000  1.000000  1.000000
 Range of M.O.s used for correlation:    15   236
 NBasis=   236 NAE=    52 NBE=    52 NFC=    14 NFV=     0
 NROrb=    222 NOA=    38 NOB=    38 NVA=   184 NVB=   184
 Fully direct method using O(ONN) memory.
 JobTyp=1 Pass  1:  I=  15 to  52 NPSUse=  4 ParTrn=T ParDer=T DoDerP=T.
 Spin components of T(2) and E(2):
     alpha-alpha T2 =       0.9121471079D-01 E2=     -0.2722736369D+00
     alpha-beta  T2 =       0.4916597018D+00 E2=     -0.1488437768D+01
     beta-beta   T2 =       0.9121471079D-01 E2=     -0.2722736369D+00
 ANorm=    0.1293865960D+01
 E2 =    -0.2032985042D+01 EUMP2 =    -0.66332777839193D+03
          IDoAtm=111111111111111111111111111
          Differentiating once with respect to electric field.
                with respect to dipole field.
          Differentiating once with respect to nuclear coordinates.
 Keep R1 ints in memory in canonical form, NReq=397723379.
          There are     1 degrees of freedom in the 1st order CPHF.  IDoFFX=0 NUNeed=     1.
 LinEq1:  Iter=  0 NonCon=     1 RMS=4.56D-03 Max=1.06D-01 NDo=     1
 AX will form     1 AO Fock derivatives at one time.
 LinEq1:  Iter=  1 NonCon=     1 RMS=1.53D-03 Max=2.67D-02 NDo=     1
 LinEq1:  Iter=  2 NonCon=     1 RMS=6.39D-04 Max=1.77D-02 NDo=     1
 LinEq1:  Iter=  3 NonCon=     1 RMS=2.79D-04 Max=7.95D-03 NDo=     1
 LinEq1:  Iter=  4 NonCon=     1 RMS=8.70D-05 Max=1.88D-03 NDo=     1
[...]
                   16         17         18         19         20
    16  C    0.000000
    17  H    3.455951   0.000000
    18  H    4.127197   2.246764   0.000000
    19  H    2.998237   4.311201   3.558524   0.000000
    20  H    4.380027   4.457054   2.916785   1.767848   0.000000
    21  H    5.101047   6.512357   5.116632   2.498705   2.521072
    22  H    5.250833   6.091788   4.326158   3.069998   2.460889
    23  H    3.693367   6.222848   5.449490   2.702602   3.841224
    24  H    5.131475   7.184180   5.953164   3.848820   4.316425
    25  H    3.814669   6.054838   5.373506   4.169594   4.979708
    26  H    4.489486   5.746064   4.475089   4.030709   4.172949
    27  H    1.089426   4.207032   5.119058   3.594905   5.155804
                   21         22         23         24         25
    21  H    0.000000
    22  H    1.759038   0.000000
    23  H    2.470449   3.062464   0.000000
    24  H    2.518586   2.460647   1.764729   0.000000
    25  H    4.311400   3.835917   2.445535   2.518786   0.000000
    26  H    3.843171   2.698383   3.060707   2.493151   1.767980
    27  H    5.664667   6.068212   4.097767   5.700553   4.455462
                   26         27
    26  H    0.000000
    27  H    5.378752   0.000000
 Symmetry turned off by external request.
 Stoichiometry    C9H13N3O2
 Framework group  C1[X(C9H13N3O2)]
 Deg. of freedom    75
 Full point group                 C1      NOp   1
 Rotational constants (GHZ):           1.6733813           0.4218117           0.3731772

 **********************************************************************

            Population analysis using the SCF Density.

 **********************************************************************

 Alpha  occ. eigenvalues --  -20.59336 -20.59030 -15.84810 -15.64122 -15.56151
 Alpha  occ. eigenvalues --  -11.34881 -11.29549 -11.29537 -11.28759 -11.27204
 Alpha  occ. eigenvalues --  -11.23602 -11.23127 -11.22733 -11.22066  -1.57224
 Alpha  occ. eigenvalues --   -1.36822  -1.30777  -1.23251  -1.14648  -1.09850
 Alpha  occ. eigenvalues --   -1.02687  -1.01233  -0.94467  -0.89708  -0.85428
 Alpha  occ. eigenvalues --   -0.82483  -0.78598  -0.77464  -0.75181  -0.72256
 Alpha  occ. eigenvalues --   -0.69867  -0.69488  -0.67727  -0.64868  -0.63814
 Alpha  occ. eigenvalues --   -0.62062  -0.60273  -0.57507  -0.57039  -0.55154
 Alpha  occ. eigenvalues --   -0.54533  -0.50711  -0.50037  -0.48709  -0.48139
 Alpha  occ. eigenvalues --   -0.47422  -0.46128  -0.45995  -0.43753  -0.41675
 Alpha  occ. eigenvalues --   -0.39979  -0.34002
 Alpha virt. eigenvalues --    0.07425   0.11795   0.17262   0.21839   0.24175
 Alpha virt. eigenvalues --    0.25696   0.27093   0.28769   0.29054   0.29667
 Alpha virt. eigenvalues --    0.30810   0.31806   0.32065   0.32741   0.34041
 Alpha virt. eigenvalues --    0.34443   0.35812   0.37184   0.38613   0.40369
 Alpha virt. eigenvalues --    0.41348   0.42417   0.44874   0.46108   0.46970
 Alpha virt. eigenvalues --    0.47219   0.49011   0.53999   0.57682   0.59415
 Alpha virt. eigenvalues --    0.63854   0.69585   0.70189   0.72956   0.74323
 Alpha virt. eigenvalues --    0.74851   0.75936   0.76605   0.78586   0.79571
 Alpha virt. eigenvalues --    0.81365   0.84853   0.85456   0.86019   0.88719
 Alpha virt. eigenvalues --    0.89649   0.90951   0.92355   0.92872   0.94538
 Alpha virt. eigenvalues --    0.95587   0.98072   0.99725   1.01736   1.02464
 Alpha virt. eigenvalues --    1.03175   1.05891   1.06919   1.08022   1.08955
 Alpha virt. eigenvalues --    1.10299   1.11039   1.11923   1.12460   1.13977
 Alpha virt. eigenvalues --    1.14626   1.15078   1.15621   1.16952   1.18747
 Alpha virt. eigenvalues --    1.19229   1.21265   1.22550   1.23915   1.24390
 Alpha virt. eigenvalues --    1.24947   1.26034   1.26937   1.27568   1.29590
 Alpha virt. eigenvalues --    1.30007   1.33327   1.35858   1.36974   1.40992
 Alpha virt. eigenvalues --    1.41961   1.46962   1.48519   1.51319   1.54132
 Alpha virt. eigenvalues --    1.55740   1.57502   1.60149   1.63943   1.65108
 Alpha virt. eigenvalues --    1.67848   1.68729   1.73530   1.75092   1.77287
 Alpha virt. eigenvalues --    1.81620   1.84987   1.87929   1.90881   1.93235
 Alpha virt. eigenvalues --    1.95903   1.96908   1.99800   2.01461   2.03263
 Alpha virt. eigenvalues --    2.05028   2.05614   2.08092   2.08971   2.12352
 Alpha virt. eigenvalues --    2.13176   2.15070   2.17787   2.20110   2.22016
 Alpha virt. eigenvalues --    2.23339   2.24380   2.25463   2.28331   2.29874
 Alpha virt. eigenvalues --    2.31900   2.34213   2.35240   2.36431   2.38522
 Alpha virt. eigenvalues --    2.39992   2.41831   2.44010   2.45203   2.47665
 Alpha virt. eigenvalues --    2.50418   2.52091   2.53524   2.56302   2.61580
 Alpha virt. eigenvalues --    2.62604   2.64866   2.67607   2.70388   2.70846
 Alpha virt. eigenvalues --    2.72530   2.72886   2.77100   2.78453   2.83478
 Alpha virt. eigenvalues --    2.88763   2.89733   2.92789   2.93285   2.95887
 Alpha virt. eigenvalues --    2.99914   3.00980   3.03882   3.05621   3.07725
 Alpha virt. eigenvalues --    3.09326   3.14704   3.21378   3.25005   3.27605
 Alpha virt. eigenvalues --    3.32913   3.37447   3.37792   3.52253   3.65247
 Alpha virt. eigenvalues --    4.13643   4.27754   4.35238   4.39273   4.46285
 Alpha virt. eigenvalues --    4.56522   4.61965   4.62331   4.73498   4.79289
 Alpha virt. eigenvalues --    4.99423   5.01037   5.04786   5.11177
          Condensed to atoms (all electrons):
               1          2          3          4          5          6
     1  O    8.315410   0.306820  -0.082826  -0.085543   0.004622  -0.000015
     2  N    0.306820   5.722650   0.301529   0.264524  -0.054224   0.000961
     3  O   -0.082826   0.301529   8.352257  -0.091587   0.002187   0.000767
     4  C   -0.085543   0.264524  -0.091587   5.217057   0.559914  -0.044788
     5  C    0.004622  -0.054224   0.002187   0.559914   4.723285   0.316450
     6  N   -0.000015   0.000961   0.000767  -0.044788   0.316450   7.180689
     7  C    0.000004  -0.000165   0.000000   0.004024  -0.034373   0.174887
     8  H   -0.000000   0.000002  -0.000000  -0.000221   0.003163  -0.050454
     9  C   -0.000000  -0.000004   0.000000   0.000831   0.000785  -0.063415
    10  C    0.000000   0.000000   0.000000  -0.000035  -0.000064   0.003723
    11  C   -0.000000  -0.000000  -0.000000  -0.000034   0.000026  -0.000190
    12  C   -0.000000   0.000002  -0.000000  -0.000067  -0.000209   0.003803
    13  C   -0.000028  -0.000040  -0.000004  -0.012836  -0.000289  -0.042591
    14  H   -0.000005  -0.000109   0.000001   0.002750   0.006487  -0.006599
    15  N    0.000365   0.002477  -0.000017  -0.063521  -0.007142   0.001546
    16  C    0.001060  -0.027833   0.002532   0.331656  -0.050556  -0.001734
    17  H    0.000256  -0.007843   0.018102  -0.025168   0.375674  -0.034405
    18  H    0.000001  -0.000047   0.000012   0.001422  -0.030206   0.338827
    19  H    0.000001  -0.000004   0.000000  -0.001202   0.001189  -0.000253
    20  H    0.000000  -0.000000   0.000000  -0.000091   0.000225  -0.000525
    21  H   -0.000000   0.000000   0.000000   0.000001   0.000001  -0.000077
    22  H   -0.000000   0.000000  -0.000000  -0.000000  -0.000003  -0.000118
    23  H    0.000000  -0.000000   0.000000   0.000041   0.000001  -0.000029
    24  H    0.000000   0.000000   0.000000   0.000000  -0.000000   0.000005
    25  H    0.000000  -0.000000   0.000000   0.000023   0.000002  -0.000085
    26  H    0.000000  -0.000000   0.000000   0.000006  -0.000002  -0.000051
    27  H    0.005807  -0.000844   0.000011  -0.062081   0.002204   0.000012
               7          8          9         10         11         12
     1  O    0.000004  -0.000000  -0.000000   0.000000  -0.000000  -0.000000
     2  N   -0.000165   0.000002  -0.000004   0.000000  -0.000000   0.000002
     3  O    0.000000  -0.000000   0.000000   0.000000  -0.000000  -0.000000
     4  C    0.004024  -0.000221   0.000831  -0.000035  -0.000034  -0.000067
     5  C   -0.034373   0.003163   0.000785  -0.000064   0.000026  -0.000209
     6  N    0.174887  -0.050454  -0.063415   0.003723  -0.000190   0.003803
     7  C    5.024961   0.418283   0.348325  -0.054443  -0.008914  -0.060216
     8  H    0.418283   0.541101  -0.055445   0.000649  -0.000387  -0.002679
     9  C    0.348325  -0.055445   5.160366   0.324821  -0.050437  -0.005413
    10  C   -0.054443   0.000649   0.324821   5.118995   0.336817  -0.061500
    11  C   -0.008914  -0.000387  -0.050437   0.336817   5.119989   0.336129
    12  C   -0.060216  -0.002679  -0.005413  -0.061500   0.336129   5.119475
    13  C    0.337815  -0.038552  -0.060984  -0.000010  -0.050894   0.371821
    14  H   -0.047456  -0.000709   0.004533  -0.000411   0.004179  -0.036268
    15  N   -0.058553   0.003931  -0.014114   0.001572  -0.013210  -0.082129
    16  C   -0.001609  -0.000012  -0.001102  -0.000037   0.000043   0.002638
    17  H    0.001890  -0.000056  -0.000078   0.000001   0.000000  -0.000000
    18  H   -0.020709  -0.004404   0.001663  -0.000084   0.000003  -0.000105
    19  H   -0.036926   0.004402   0.390153  -0.032276  -0.002268   0.000680
    20  H   -0.041995  -0.001949   0.399864  -0.035449   0.003952  -0.000405
    21  H    0.004591  -0.000067  -0.036371   0.402412  -0.034988   0.004389
    22  H   -0.004870   0.003596  -0.046985   0.397911  -0.045421  -0.001108
    23  H    0.000545   0.000038  -0.001958  -0.038972   0.399344  -0.038016
    24  H   -0.000132  -0.000107   0.004391  -0.038324   0.402213  -0.038717
    25  H    0.005138  -0.000008  -0.000435   0.004222  -0.033386   0.398507
    26  H   -0.004076   0.001725   0.000981  -0.002311  -0.041250   0.396550
    27  H   -0.000409   0.000009  -0.000054   0.000006   0.000012  -0.000038
              13         14         15         16         17         18
     1  O   -0.000028  -0.000005   0.000365   0.001060   0.000256   0.000001
     2  N   -0.000040  -0.000109   0.002477  -0.027833  -0.007843  -0.000047
     3  O   -0.000004   0.000001  -0.000017   0.002532   0.018102   0.000012
     4  C   -0.012836   0.002750  -0.063521   0.331656  -0.025168   0.001422
     5  C   -0.000289   0.006487  -0.007142  -0.050556   0.375674  -0.030206
     6  N   -0.042591  -0.006599   0.001546  -0.001734  -0.034405   0.338827
     7  C    0.337815  -0.047456  -0.058553  -0.001609   0.001890  -0.020709
     8  H   -0.038552  -0.000709   0.003931  -0.000012  -0.000056  -0.004404
     9  C   -0.060984   0.004533  -0.014114  -0.001102  -0.000078   0.001663
    10  C   -0.000010  -0.000411   0.001572  -0.000037   0.000001  -0.000084
    11  C   -0.050894   0.004179  -0.013210   0.000043   0.000000   0.000003
    12  C    0.371821  -0.036268  -0.082129   0.002638  -0.000000  -0.000105
    13  C    5.040659   0.402307   0.246726  -0.071886   0.000014   0.002483
    14  H    0.402307   0.529246  -0.037746  -0.004916   0.000095  -0.000118
    15  N    0.246726  -0.037746   6.960461   0.585165  -0.000095  -0.000119
    16  C   -0.071886  -0.004916   0.585165   4.707438   0.002008  -0.000181
    17  H    0.000014   0.000095  -0.000095   0.002008   0.379522  -0.002753
    18  H    0.002483  -0.000118  -0.000119  -0.000181  -0.002753   0.306313
    19  H   -0.007566   0.000111   0.007601   0.002921   0.000015  -0.000151
    20  H    0.004304  -0.000068   0.000125  -0.000033   0.000003   0.000568
    21  H   -0.000448   0.000010  -0.000037   0.000004  -0.000000   0.000002
    22  H    0.000095  -0.000055   0.000017  -0.000002   0.000000   0.000000
    23  H   -0.007492   0.000005   0.008580   0.000110   0.000000   0.000000
    24  H    0.004712  -0.000057   0.000133   0.000006   0.000000  -0.000000
    25  H   -0.035740  -0.002914   0.000419  -0.000014  -0.000000   0.000002
    26  H   -0.047176  -0.001011   0.004882  -0.000065   0.000000   0.000000
    27  H    0.005055  -0.000174  -0.039918   0.402960  -0.000082   0.000000
              19         20         21         22         23         24
     1  O    0.000001   0.000000  -0.000000  -0.000000   0.000000   0.000000
     2  N   -0.000004  -0.000000   0.000000   0.000000  -0.000000   0.000000
     3  O    0.000000   0.000000   0.000000  -0.000000   0.000000   0.000000
     4  C   -0.001202  -0.000091   0.000001  -0.000000   0.000041   0.000000
     5  C    0.001189   0.000225   0.000001  -0.000003   0.000001  -0.000000
     6  N   -0.000253  -0.000525  -0.000077  -0.000118  -0.000029   0.000005
     7  C   -0.036926  -0.041995   0.004591  -0.004870   0.000545  -0.000132
     8  H    0.004402  -0.001949  -0.000067   0.003596   0.000038  -0.000107
     9  C    0.390153   0.399864  -0.036371  -0.046985  -0.001958   0.004391
    10  C   -0.032276  -0.035449   0.402412   0.397911  -0.038972  -0.038324
    11  C   -0.002268   0.003952  -0.034988  -0.045421   0.399344   0.402213
    12  C    0.000680  -0.000405   0.004389  -0.001108  -0.038016  -0.038717
    13  C   -0.007566   0.004304  -0.000448   0.000095  -0.007492   0.004712
    14  H    0.000111  -0.000068   0.000010  -0.000055   0.000005  -0.000057
    15  N    0.007601   0.000125  -0.000037   0.000017   0.008580   0.000133
    16  C    0.002921  -0.000033   0.000004  -0.000002   0.000110   0.000006
    17  H    0.000015   0.000003  -0.000000   0.000000   0.000000   0.000000
    18  H   -0.000151   0.000568   0.000002   0.000000   0.000000  -0.000000
    19  H    0.506352  -0.024608  -0.002763   0.003965   0.001518  -0.000067
    20  H   -0.024608   0.539442  -0.002703  -0.002997  -0.000046  -0.000083
    21  H   -0.002763  -0.002703   0.524749  -0.027438  -0.002903  -0.002244
    22  H    0.003965  -0.002997  -0.027438   0.571576   0.004134  -0.003640
    23  H    0.001518  -0.000046  -0.002903   0.004134   0.498837  -0.025429
    24  H   -0.000067  -0.000083  -0.002244  -0.003640  -0.025429   0.538256
    25  H   -0.000028   0.000012  -0.000088  -0.000081  -0.002302  -0.002307
    26  H    0.000019  -0.000031  -0.000081   0.002387   0.004060  -0.003009
    27  H    0.000080   0.000000  -0.000000   0.000000  -0.000034  -0.000000
              25         26         27
     1  O    0.000000   0.000000   0.005807
     2  N   -0.000000  -0.000000  -0.000844
     3  O    0.000000   0.000000   0.000011
     4  C    0.000023   0.000006  -0.062081
     5  C    0.000002  -0.000002   0.002204
     6  N   -0.000085  -0.000051   0.000012
     7  C    0.005138  -0.004076  -0.000409
     8  H   -0.000008   0.001725   0.000009
     9  C   -0.000435   0.000981  -0.000054
    10  C    0.004222  -0.002311   0.000006
    11  C   -0.033386  -0.041250   0.000012
    12  C    0.398507   0.396550  -0.000038
    13  C   -0.035740  -0.047176   0.005055
    14  H   -0.002914  -0.001011  -0.000174
    15  N    0.000419   0.004882  -0.039918
    16  C   -0.000014  -0.000065   0.402960
    17  H   -0.000000   0.000000  -0.000082
    18  H    0.000002   0.000000   0.000000
    19  H   -0.000028   0.000019   0.000080
    20  H    0.000012  -0.000031   0.000000
    21  H   -0.000088  -0.000081  -0.000000
    22  H   -0.000081   0.002387   0.000000
    23  H   -0.002302   0.004060  -0.000034
    24  H   -0.002307  -0.003009  -0.000000
    25  H    0.505639  -0.024052  -0.000012
    26  H   -0.024052   0.561703   0.000001
    27  H   -0.000012   0.000001   0.438418
 Mulliken charges:
               1
     1  O   -0.465930
     2  N    0.492146
     3  O   -0.502964
     4  C    0.004926
     5  C    0.180855
     6  N   -0.776340
     7  C    0.054383
     8  H    0.178151
     9  C   -0.299919
    10  C   -0.327211
    11  C   -0.321328
    12  C   -0.307124
    13  C   -0.039457
    14  H    0.188890
    15  N   -0.507400
    16  C    0.121439
    17  H    0.292898
    18  H    0.407580
    19  H    0.189104
    20  H    0.162486
    21  H    0.174049
    22  H    0.149036
    23  H    0.199971
    24  H    0.164399
    25  H    0.187487
    26  H    0.150801
    27  H    0.249071
 Sum of Mulliken charges =  -0.00000
 Mulliken charges with hydrogens summed into heavy atoms:
               1
     1  O   -0.465930
     2  N    0.492146
     3  O   -0.502964
     4  C    0.004926
     5  C    0.473753
     6  N   -0.368760
     7  C    0.232534
     9  C    0.051672
    10  C   -0.004126
    11  C    0.043042
    12  C    0.031163
    13  C    0.149433
    15  N   -0.507400
    16  C    0.370510
 Electronic spatial extent (au):  <R**2>=           2996.0991
 Charge=             -0.0000 electrons
 Dipole moment (field-independent basis, Debye):
    X=              5.3307    Y=              4.7042    Z=              1.3534  Tot=              7.2372
 Quadrupole moment (field-independent basis, Debye-Ang):
   XX=           -105.9429   YY=            -79.3969   ZZ=            -81.3478
   XY=             -1.6896   XZ=              0.1373   YZ=              2.2404
 Traceless Quadrupole moment (field-independent basis, Debye-Ang):
   XX=            -17.0470   YY=              9.4990   ZZ=              7.5481
   XY=             -1.6896   XZ=              0.1373   YZ=              2.2404
 Octapole moment (field-independent basis, Debye-Ang**2):
  XXX=             89.9113  YYY=             35.7852  ZZZ=             -0.9102  XYY=             -4.6792
  XXY=              9.1393  XXZ=              3.9616  XZZ=            -10.2307  YZZ=             -0.2950
  YYZ=              8.9006  XYZ=             -0.0474
 Hexadecapole moment (field-independent basis, Debye-Ang**3):
 XXXX=          -3360.2507 YYYY=           -605.8916 ZZZZ=           -301.2987 XXXY=            -22.0737
 XXXZ=             -4.7184 YYYX=             -9.0695 YYYZ=             28.1809 ZZZX=              5.9577
 ZZZY=              8.2426 XXYY=           -626.5925 XXZZ=           -520.4516 YYZZ=           -156.7336
 XXYZ=             -3.6748 YYXZ=              3.5600 ZZXY=              4.6088
 N-N= 9.317064089747D+02 E-N=-3.410123222232D+03  KE= 6.596291276585D+02
 Unable to Open any file for archive entry.
 1\1\GINC-LOTUS\FOpt\RMP2-FC\6-31G(d)\C9H13N3O2\ALEXEY\01-Jul-2023\0\\#
 MP2/6-31G* SCF=Tight Opt=(ModRedun, MaxCycle=20 ) NoSymm\\MolName:\\0,
 1\O,-3.4977627481,-1.3917443077,-0.3395672098\N,-3.1095552631,-0.23143
 87437,-0.1013633159\O,-3.8821421279,0.7293722847,0.0781604514\C,-1.670
 4231192,-0.0251831192,-0.0191282535\C,-1.2833599539,1.2561236744,0.270
 5854394\N,-0.0516894847,1.7897640318,0.350024015\C,1.1948320311,1.0236
 227317,0.3492698451\H,1.8461917475,1.5410640363,1.0703216933\C,1.91368
 79745,1.0328835141,-1.0001260116\C,3.3110575279,0.427585483,-0.8259355
 718\C,3.2574082024,-0.9679579945,-0.1998868078\C,2.4516004453,-0.97411
 41453,1.1005294453\C,1.0415216407,-0.4260877582,0.8496244915\H,0.45721
 74516,-0.4076887248,1.7839442074\N,0.4062867872,-1.3263367888,-0.10596
 69004\C,-0.8387045305,-1.1458187083,-0.4040665733\H,-2.0926116366,1.96
 55255434,0.4271062852\H,-0.0011822849,2.7568188592,0.6455674507\H,1.32
 60163716,0.4558697045,-1.7223996093\H,1.9819012963,2.0607877228,-1.376
 9439798\H,3.8228049657,0.3896941818,-1.7944674205\H,3.9053879184,1.093
 9834178,-0.1846933877\H,2.7843900314,-1.6650876854,-0.8985413264\H,4.2
 744570616,-1.332787788,-0.0133599697\H,2.3632033545,-1.9944807157,1.48
 78252253\H,2.9537908957,-0.3726453115,1.8707228807\H,-1.3043145546,-1.
 8977133942,-1.0402350926\\Version=ES64L-G16RevC.02\HF=-661.2992842\MP2
 =-663.3338453\RMSD=5.335e-09\RMSF=2.450e-03\Dipole=1.9402697,1.6620216
 ,0.4965355\PG=C01 [X(C9H13N3O2)]\\@
 The archive entry for this job was punched.


 SOME THINGS ARE EASY, THEY ARE ONLY HARD TO DO.
            -- A. EINSTEIN TO J. O. HIRSCHFELDER
 THE ONLY TROUBLE WITH A SURE THING IS THE UNCERTAINTY.
     -- FROM A TEABAG (BELONGING TO W.H.?)
 Job cpu time:       0 days  1 hours 16 minutes  8.2 seconds.
 Elapsed time:       0 days  0 hours 23 minutes  3.5 seconds.
 File lengths (MBytes):  RWF=     36 Int=      0 D2E=      0 Chk=      7 Scr=      1
 Normal termination of Gaussian 16 at Sat Jul  1 20:56:21 2023.
