 Entering Gaussian System, Link 0=g16
 Initial command:
 /home/alexey/programs//g16/l1.exe "/home/alexey/tmp/Gau-1375166.inp" -scrdir="/home/alexey/tmp/"
 Entering Link 1 = /home/alexey/programs//g16/l1.exe PID=   1375168.
  
 Copyright (c) 1988-2021, Gaussian, Inc.  All Rights Reserved.
  
 This is part of the Gaussian(R) 16 program.  It is based on
 the Gaussian(R) 09 system (copyright 2009, Gaussian, Inc.),
 the Gaussian(R) 03 system (copyright 2003, Gaussian, Inc.),
 the Gaussian(R) 98 system (copyright 1998, Gaussian, Inc.),
 the Gaussian(R) 94 system (copyright 1995, Gaussian, Inc.),
 the Gaussian 92(TM) system (copyright 1992, Gaussian, Inc.),
 the Gaussian 90(TM) system (copyright 1990, Gaussian, Inc.),
 the Gaussian 88(TM) system (copyright 1988, Gaussian, Inc.),
 the Gaussian 86(TM) system (copyright 1986, Carnegie Mellon
 University), and the Gaussian 82(TM) system (copyright 1983,
 Carnegie Mellon University). Gaussian is a federally registered
 trademark of Gaussian, Inc.
  
 This software contains proprietary and confidential information,
 including trade secrets, belonging to Gaussian, Inc.
  
 This software is provided under written license and may be
 used, copied, transmitted, or stored only in accord with that
 written license.
  
 The following legend is applicable only to US Government
 contracts under FAR:
  
                    RESTRICTED RIGHTS LEGEND
  
 Use, reproduction and disclosure by the US Government is
 subject to restrictions as set forth in subparagraphs (a)
 and (c) of the Commercial Computer Software - Restricted
 Rights clause in FAR 52.227-19.
  
 Gaussian, Inc.
 340 Quinnipiac St., Bldg. 40, Wallingford CT 06492
  
  
 ---------------------------------------------------------------
 Warning -- This program may not be used in any manner that
 competes with the business of Gaussian, Inc. or will provide
 assistance to any competitor of Gaussian, Inc.  The licensee
 of this program is prohibited from giving any competitor of
 Gaussian, Inc. access to this program.  By using this program,
 the user acknowledges that Gaussian, Inc. is engaged in the
 business of creating and licensing software in the field of
 computational chemistry and represents and warrants to the
 licensee that it is not a competitor of Gaussian, Inc. and that
 it will not use this program in any manner prohibited above.
 ---------------------------------------------------------------
  

 Cite this work as:
 Gaussian 16, Revision C.02,
 M. J. Frisch, G. W. Trucks, H. B. Schlegel, G. E. Scuseria, 
 M. A. Robb, J. R. Cheeseman, G. Scalmani, V. Barone, 
 G. A. Petersson, H. Nakatsuji, X. Li, M. Caricato, A. V. Marenich, 
 J. Bloino, B. G. Janesko, R. Gomperts, B. Mennucci, H. P. Hratchian, 
 J. V. Ortiz, A. F. Izmaylov, J. L. Sonnenberg, D. Williams-Young, 
 F. Ding, F. Lipparini, F. Egidi, J. Goings, B. Peng, A. Petrone, 
 T. Henderson, D. Ranasinghe, V. G. Zakrzewski, J. Gao, N. Rega, 
 G. Zheng, W. Liang, M. Hada, M. Ehara, K. Toyota, R. Fukuda, 
 J. Hasegawa, M. Ishida, T. Nakajima, Y. Honda, O. Kitao, H. Nakai, 
 T. Vreven, K. Throssell, J. A. Montgomery, Jr., J. E. Peralta, 
 F. Ogliaro, M. J. Bearpark, J. J. Heyd, E. N. Brothers, K. N. Kudin, 
 V. N. Staroverov, T. A. Keith, R. Kobayashi, J. Normand, 
 K. Raghavachari, A. P. Rendell, J. C. Burant, S. S. Iyengar, 
 J. Tomasi, M. Cossi, J. M. Millam, M. Klene, C. Adamo, R. Cammi, 
 J. W. Ochterski, R. L. Martin, K. Morokuma, O. Farkas, 
 J. B. Foresman, and D. J. Fox, Gaussian, Inc., Wallingford CT, 2019.
 
 ******************************************
 Gaussian 16:  ES64L-G16RevC.02  7-Dec-2021
                 1-Jul-2023 
 ******************************************
 %mem=8GB
 %NPROCS=4
 Will use up to    4 processors via shared memory.
 %NoSave
 ---------------------------------------------------------
 #MP2/6-31G* SCF=Tight Opt=(ModRedun, MaxCycle=20 ) NoSymm
 ---------------------------------------------------------
 1/6=20,18=120,19=15,38=1/1,3;
 2/9=110,12=2,15=1,17=6,18=5,40=1/2;
 3/5=1,6=6,7=1,11=9,25=1,30=1,71=1/1,2,3;
 4//1;
 5/5=2,32=2,38=5/2;
 8/6=4,10=2/1;
 9/15=2,16=-3/6;
 10/5=1,31=1/2;
 6/7=2,8=2,9=2,10=2/1;
 7/12=2,30=1/1,2,3,16;
 1/6=20,18=20,19=15/3(2);
 2/9=110,15=1/2;
 99//99;
 2/9=110,15=1/2;
 3/5=1,6=6,7=1,11=9,25=1,30=1,71=1/1,2,3;
 4/5=5,16=3,69=1/1;
 5/5=2,32=2,38=5/2;
 8/6=4,10=2/1;
 9/15=2,16=-3/6;
 10/5=1,31=1/2;
 7/12=2,30=1/1,2,3,16;
 1/6=20,18=20,19=15/3(-8);
 2/9=110,15=1/2;
 6/7=2,8=2,9=2,10=2/1;
 99/9=10/99;
 --------
 MolName:
 --------
 Symbolic Z-matrix:
 Charge =  0 Multiplicity = 1
 8                    0    -3.61412  -1.4506   -0.17084 
 7                    0    -3.25506  -0.28562  -0.00849 
 8                    0    -4.03532   0.65233   0.15951 
 6                    0    -1.75573   0.00566  -0.04001 
 6                    0    -1.36692   1.31221   0.2775 
 7                    0    -0.08064   1.77841   0.37618 
 6                    0     1.19438   0.99597   0.35533 
 1                    0     1.85521   1.49104   1.11373 
 6                    0     1.96778   1.04886  -0.98606 
 6                    0     3.37813   0.4607   -0.7898 
 6                    0     3.3116   -0.95645  -0.19899 
 6                    0     2.45585  -0.99188   1.08554 
 6                    0     1.02083  -0.45397   0.83237 
 1                    0     0.4679   -0.49403   1.80017 
 7                    0     0.36889  -1.32064  -0.15176 
 6                    0    -0.87071  -1.11431  -0.45251 
 1                    0    -2.15503   2.04616   0.51423 
 1                    0     0.1498    2.75777   0.19165 
 1                    0     1.42242   0.4745   -1.76489 
 1                    0     2.0577    2.09944  -1.33521 
 1                    0     3.91848   0.43845  -1.76145 
 1                    0     3.95178   1.11249  -0.09353 
 1                    0     2.86791  -1.64366  -0.95441 
 1                    0     4.33795  -1.3218    0.02315 
 1                    0     2.39426  -2.03891   1.45524 
 1                    0     2.94628  -0.38301   1.87377 
 1                    0    -1.37263  -1.85612  -1.09242 
 
 The following ModRedundant input section has been read:
 A       5       6       7 F                                                   
 D       1       2       4      16 F                                           
 D       7      13      15      16 F                                           
 D       7       9      10      11 F                                           
 D       9      10      11      12 F                                           
 D       6       7      13      15 F                                           
 

 GradGradGradGradGradGradGradGradGradGradGradGradGradGradGradGradGradGrad
 Berny optimization.
 Initialization pass.
                           ----------------------------
                           !    Initial Parameters    !
                           ! (Angstroms and Degrees)  !
 --------------------------                            --------------------------
 ! Name  Definition              Value          Derivative Info.                !
 --------------------------------------------------------------------------------
 ! R1    R(1,2)                  1.2298         estimate D2E/DX2                !
 ! R2    R(2,3)                  1.2316         estimate D2E/DX2                !
 ! R3    R(2,4)                  1.5277         estimate D2E/DX2                !
 ! R4    R(4,5)                  1.3997         estimate D2E/DX2                !
 ! R5    R(4,16)                 1.4858         estimate D2E/DX2                !
 ! R6    R(5,6)                  1.3717         estimate D2E/DX2                !
 ! R7    R(5,17)                 1.1027         estimate D2E/DX2                !
 ! R8    R(6,7)                  1.4961         estimate D2E/DX2                !
 ! R9    R(6,18)                 1.0229         estimate D2E/DX2                !
 ! R10   R(7,8)                  1.1211         estimate D2E/DX2                !
 ! R11   R(7,9)                  1.5493         estimate D2E/DX2                !
 ! R12   R(7,13)                 1.5362         estimate D2E/DX2                !
 ! R13   R(9,10)                 1.5406         estimate D2E/DX2                !
 ! R14   R(9,19)                 1.1108         estimate D2E/DX2                !
 ! R15   R(9,20)                 1.1107         estimate D2E/DX2                !
 ! R16   R(10,11)                1.5368         estimate D2E/DX2                !
 ! R17   R(10,21)                1.112          estimate D2E/DX2                !
 ! R18   R(10,22)                1.113          estimate D2E/DX2                !
 ! R19   R(11,12)                1.5439         estimate D2E/DX2                !
 ! R20   R(11,23)                1.1135         estimate D2E/DX2                !
 ! R21   R(11,24)                1.1119         estimate D2E/DX2                !
 ! R22   R(12,13)                1.5533         estimate D2E/DX2                !
 ! R23   R(12,25)                1.1121         estimate D2E/DX2                !
 ! R24   R(12,26)                1.1102         estimate D2E/DX2                !
 ! R25   R(13,14)                1.1153         estimate D2E/DX2                !
 ! R26   R(13,15)                1.4645         estimate D2E/DX2                !
 ! R27   R(15,16)                1.2921         estimate D2E/DX2                !
 ! R28   R(16,27)                1.1008         estimate D2E/DX2                !
 ! A1    A(1,2,3)              123.6741         estimate D2E/DX2                !
 ! A2    A(1,2,4)              117.6735         estimate D2E/DX2                !
 ! A3    A(3,2,4)              118.6456         estimate D2E/DX2                !
 ! A4    A(2,4,5)              116.4831         estimate D2E/DX2                !
 ! A5    A(2,4,16)             116.5249         estimate D2E/DX2                !
 ! A6    A(5,4,16)             126.9509         estimate D2E/DX2                !
 ! A7    A(4,5,6)              126.4459         estimate D2E/DX2                !
 ! A8    A(4,5,17)             118.1315         estimate D2E/DX2                !
 ! A9    A(6,5,17)             115.376          estimate D2E/DX2                !
 ! A10   A(5,6,7)              128.3454         Frozen                          !
 ! A11   A(5,6,18)             121.5794         estimate D2E/DX2                !
 ! A12   A(7,6,18)             107.8318         estimate D2E/DX2                !
 ! A13   A(6,7,8)              105.1864         estimate D2E/DX2                !
 ! A14   A(6,7,9)              114.8121         estimate D2E/DX2                !
 ! A15   A(6,7,13)             113.1415         estimate D2E/DX2                !
 ! A16   A(8,7,9)              106.0435         estimate D2E/DX2                !
 ! A17   A(8,7,13)             105.861          estimate D2E/DX2                !
 ! A18   A(9,7,13)             110.9451         estimate D2E/DX2                !
 ! A19   A(7,9,10)             109.4909         estimate D2E/DX2                !
 ! A20   A(7,9,19)             110.1403         estimate D2E/DX2                !
 ! A21   A(7,9,20)             110.1737         estimate D2E/DX2                !
 ! A22   A(10,9,19)            109.9599         estimate D2E/DX2                !
 ! A23   A(10,9,20)            109.0885         estimate D2E/DX2                !
 ! A24   A(19,9,20)            107.9637         estimate D2E/DX2                !
 ! A25   A(9,10,11)            111.1852         estimate D2E/DX2                !
 ! A26   A(9,10,21)            109.9475         estimate D2E/DX2                !
 ! A27   A(9,10,22)            109.1449         estimate D2E/DX2                !
 ! A28   A(11,10,21)           109.7854         estimate D2E/DX2                !
 ! A29   A(11,10,22)           108.7743         estimate D2E/DX2                !
 ! A30   A(21,10,22)           107.9324         estimate D2E/DX2                !
 ! A31   A(10,11,12)           111.4085         estimate D2E/DX2                !
 ! A32   A(10,11,23)           108.9995         estimate D2E/DX2                !
 ! A33   A(10,11,24)           109.868          estimate D2E/DX2                !
 ! A34   A(12,11,23)           109.2349         estimate D2E/DX2                !
 ! A35   A(12,11,24)           109.7482         estimate D2E/DX2                !
 ! A36   A(23,11,24)           107.4925         estimate D2E/DX2                !
 ! A37   A(11,12,13)           111.6245         estimate D2E/DX2                !
 ! A38   A(11,12,25)           109.2017         estimate D2E/DX2                !
 ! A39   A(11,12,26)           109.4679         estimate D2E/DX2                !
 ! A40   A(13,12,25)           109.2118         estimate D2E/DX2                !
 ! A41   A(13,12,26)           109.5062         estimate D2E/DX2                !
 ! A42   A(25,12,26)           107.7453         estimate D2E/DX2                !
 ! A43   A(7,13,12)            105.8484         estimate D2E/DX2                !
 ! A44   A(7,13,14)            111.0606         estimate D2E/DX2                !
 ! A45   A(7,13,15)            113.589          estimate D2E/DX2                !
 ! A46   A(12,13,14)           107.7062         estimate D2E/DX2                !
 ! A47   A(12,13,15)           108.413          estimate D2E/DX2                !
 ! A48   A(14,13,15)           109.9478         estimate D2E/DX2                !
 ! A49   A(13,15,16)           119.2738         estimate D2E/DX2                !
 ! A50   A(4,16,15)            128.8406         estimate D2E/DX2                !
 ! A51   A(4,16,27)            113.4379         estimate D2E/DX2                !
 ! A52   A(15,16,27)           117.7186         estimate D2E/DX2                !
 ! D1    D(1,2,4,5)           -173.9077         estimate D2E/DX2                !
 ! D2    D(1,2,4,16)             8.2582         Frozen                          !
 ! D3    D(3,2,4,5)              7.0036         estimate D2E/DX2                !
 ! D4    D(3,2,4,16)          -170.8304         estimate D2E/DX2                !
 ! D5    D(2,4,5,6)            176.5681         estimate D2E/DX2                !
 ! D6    D(2,4,5,17)            -0.8253         estimate D2E/DX2                !
 ! D7    D(16,4,5,6)            -5.857          estimate D2E/DX2                !
 ! D8    D(16,4,5,17)          176.7495         estimate D2E/DX2                !
 ! D9    D(2,4,16,15)         -153.9673         estimate D2E/DX2                !
 ! D10   D(2,4,16,27)           25.3878         estimate D2E/DX2                !
 ! D11   D(5,4,16,15)           28.4587         estimate D2E/DX2                !
 ! D12   D(5,4,16,27)         -152.1861         estimate D2E/DX2                !
 ! D13   D(4,5,6,7)             -8.9721         estimate D2E/DX2                !
 ! D14   D(4,5,6,18)           151.8631         estimate D2E/DX2                !
 ! D15   D(17,5,6,7)           168.4839         estimate D2E/DX2                !
 ! D16   D(17,5,6,18)          -30.681          estimate D2E/DX2                !
 ! D17   D(5,6,7,8)           -141.0863         estimate D2E/DX2                !
 ! D18   D(5,6,7,9)            102.7472         estimate D2E/DX2                !
 ! D19   D(5,6,7,13)           -25.9998         estimate D2E/DX2                !
 ! D20   D(18,6,7,8)            55.9986         estimate D2E/DX2                !
 ! D21   D(18,6,7,9)           -60.168          estimate D2E/DX2                !
 ! D22   D(18,6,7,13)          171.085          estimate D2E/DX2                !
 ! D23   D(6,7,9,10)           168.3438         estimate D2E/DX2                !
 ! D24   D(6,7,9,19)           -70.6251         estimate D2E/DX2                !
 ! D25   D(6,7,9,20)            48.3689         estimate D2E/DX2                !
 ! D26   D(8,7,9,10)            52.6701         estimate D2E/DX2                !
 ! D27   D(8,7,9,19)           173.7013         estimate D2E/DX2                !
 ! D28   D(8,7,9,20)           -67.3048         estimate D2E/DX2                !
 ! D29   D(13,7,9,10)          -61.8222         estimate D2E/DX2                !
 ! D30   D(13,7,9,19)           59.209          estimate D2E/DX2                !
 ! D31   D(13,7,9,20)          178.2029         estimate D2E/DX2                !
 ! D32   D(6,7,13,12)         -166.1456         estimate D2E/DX2                !
 ! D33   D(6,7,13,14)          -49.5237         estimate D2E/DX2                !
 ! D34   D(6,7,13,15)           75.0223         Frozen                          !
 ! D35   D(8,7,13,12)          -51.4632         estimate D2E/DX2                !
 ! D36   D(8,7,13,14)           65.1588         estimate D2E/DX2                !
 ! D37   D(8,7,13,15)         -170.2953         estimate D2E/DX2                !
 ! D38   D(9,7,13,12)           63.1434         estimate D2E/DX2                !
 ! D39   D(9,7,13,14)          179.7653         estimate D2E/DX2                !
 ! D40   D(9,7,13,15)          -55.6887         estimate D2E/DX2                !
 ! D41   D(7,9,10,11)           54.8123         Frozen                          !
 ! D42   D(7,9,10,21)          176.6062         estimate D2E/DX2                !
 ! D43   D(7,9,10,22)          -65.183          estimate D2E/DX2                !
 ! D44   D(19,9,10,11)         -66.3281         estimate D2E/DX2                !
 ! D45   D(19,9,10,21)          55.4659         estimate D2E/DX2                !
 ! D46   D(19,9,10,22)         173.6767         estimate D2E/DX2                !
 ! D47   D(20,9,10,11)         175.4494         estimate D2E/DX2                !
 ! D48   D(20,9,10,21)         -62.7566         estimate D2E/DX2                !
 ! D49   D(20,9,10,22)          55.4542         estimate D2E/DX2                !
 ! D50   D(9,10,11,12)         -52.8224         Frozen                          !
 ! D51   D(9,10,11,23)          67.7909         estimate D2E/DX2                !
 ! D52   D(9,10,11,24)        -174.6643         estimate D2E/DX2                !
 ! D53   D(21,10,11,12)       -174.7107         estimate D2E/DX2                !
 ! D54   D(21,10,11,23)        -54.0974         estimate D2E/DX2                !
 ! D55   D(21,10,11,24)         63.4475         estimate D2E/DX2                !
 ! D56   D(22,10,11,12)         67.3924         estimate D2E/DX2                !
 ! D57   D(22,10,11,23)       -171.9943         estimate D2E/DX2                !
 ! D58   D(22,10,11,24)        -54.4494         estimate D2E/DX2                !
 ! D59   D(10,11,12,13)         56.5929         estimate D2E/DX2                !
 ! D60   D(10,11,12,25)        177.4494         estimate D2E/DX2                !
 ! D61   D(10,11,12,26)        -64.8131         estimate D2E/DX2                !
 ! D62   D(23,11,12,13)        -63.8821         estimate D2E/DX2                !
 ! D63   D(23,11,12,25)         56.9744         estimate D2E/DX2                !
 ! D64   D(23,11,12,26)        174.7119         estimate D2E/DX2                !
 ! D65   D(24,11,12,13)        178.5042         estimate D2E/DX2                !
 ! D66   D(24,11,12,25)        -60.6393         estimate D2E/DX2                !
 ! D67   D(24,11,12,26)         57.0981         estimate D2E/DX2                !
 ! D68   D(11,12,13,7)         -60.2853         estimate D2E/DX2                !
 ! D69   D(11,12,13,14)       -179.1513         estimate D2E/DX2                !
 ! D70   D(11,12,13,15)         61.919          estimate D2E/DX2                !
 ! D71   D(25,12,13,7)         178.8641         estimate D2E/DX2                !
 ! D72   D(25,12,13,14)         59.998          estimate D2E/DX2                !
 ! D73   D(25,12,13,15)        -58.9316         estimate D2E/DX2                !
 ! D74   D(26,12,13,7)          61.0986         estimate D2E/DX2                !
 ! D75   D(26,12,13,14)        -57.7675         estimate D2E/DX2                !
 ! D76   D(26,12,13,15)       -176.6972         estimate D2E/DX2                !
 ! D77   D(7,13,15,16)         -67.1606         Frozen                          !
 ! D78   D(12,13,15,16)        175.4884         estimate D2E/DX2                !
 ! D79   D(14,13,15,16)         57.9831         estimate D2E/DX2                !
 ! D80   D(13,15,16,4)           7.1464         estimate D2E/DX2                !
 ! D81   D(13,15,16,27)       -172.1853         estimate D2E/DX2                !
 --------------------------------------------------------------------------------
 Trust Radius=3.00D-01 FncErr=1.00D-07 GrdErr=1.00D-07 EigMax=2.50D+02 EigMin=1.00D-04
 Number of steps in this run=     20 maximum allowed number of steps=    162.
 GradGradGradGradGradGradGradGradGradGradGradGradGradGradGradGradGradGrad

                          Input orientation:                          
 ---------------------------------------------------------------------
 Center     Atomic      Atomic             Coordinates (Angstroms)
 Number     Number       Type             X           Y           Z
 ---------------------------------------------------------------------
      1          8           0       -3.614120   -1.450600   -0.170840
      2          7           0       -3.255060   -0.285620   -0.008490
      3          8           0       -4.035320    0.652330    0.159510
      4          6           0       -1.755730    0.005660   -0.040010
      5          6           0       -1.366920    1.312210    0.277500
      6          7           0       -0.080640    1.778410    0.376180
      7          6           0        1.194380    0.995970    0.355330
      8          1           0        1.855210    1.491040    1.113730
      9          6           0        1.967780    1.048860   -0.986060
     10          6           0        3.378130    0.460700   -0.789800
     11          6           0        3.311600   -0.956450   -0.198990
     12          6           0        2.455850   -0.991880    1.085540
     13          6           0        1.020830   -0.453970    0.832370
     14          1           0        0.467900   -0.494030    1.800170
     15          7           0        0.368890   -1.320640   -0.151760
     16          6           0       -0.870710   -1.114310   -0.452510
     17          1           0       -2.155030    2.046160    0.514230
     18          1           0        0.149800    2.757770    0.191650
     19          1           0        1.422420    0.474500   -1.764890
     20          1           0        2.057700    2.099440   -1.335210
     21          1           0        3.918480    0.438450   -1.761450
     22          1           0        3.951780    1.112490   -0.093530
     23          1           0        2.867910   -1.643660   -0.954410
     24          1           0        4.337950   -1.321800    0.023150
     25          1           0        2.394260   -2.038910    1.455240
     26          1           0        2.946280   -0.383010    1.873770
     27          1           0       -1.372630   -1.856120   -1.092420
 ---------------------------------------------------------------------
                    Distance matrix (angstroms):
                    1          2          3          4          5
     1  O    0.000000
     2  N    1.229821   0.000000
     3  O    2.169990   1.231576   0.000000
     4  C    2.364619   1.527687   2.377924   0.000000
     5  C    3.589434   2.489965   2.751313   1.399664   0.000000
     6  N    4.817802   3.805934   4.117584   2.474224   1.371713
     7  C    5.420722   4.644605   5.244635   3.136902   2.581922
     8  H    6.341682   5.525465   6.025970   4.071407   3.333674
     9  C    6.170048   5.478553   6.124278   3.980930   3.575774
    10  C    7.275145   6.720614   7.476440   5.208240   4.937580
    11  C    6.943383   6.603584   7.529537   5.160307   5.221342
    12  C    6.215581   5.857491   6.759900   4.472064   4.536004
    13  C    4.845871   4.361035   5.219319   2.946454   3.021361
    14  H    4.632795   4.144287   4.927971   2.929246   2.991252
    15  N    3.985175   3.771579   4.835966   2.507104   3.182640
    16  C    2.778260   2.563007   3.675642   1.485850   2.582080
    17  H    3.850402   2.630684   2.367294   2.151805   1.102652
    18  H    5.657638   4.571143   4.684991   3.355417   2.097011
    19  H    5.622610   5.053864   5.789807   3.646321   3.557180
    20  H    6.791766   5.972781   6.438417   4.539131   3.866340
    21  H    7.927081   7.420028   8.185277   5.945361   5.732035
    22  H    7.988633   7.341695   8.004345   5.814087   5.335365
    23  H    6.532072   6.342697   7.359821   4.993439   5.309289
    24  H    7.955479   7.663450   8.603920   6.236912   6.288739
    25  H    6.252270   6.093550   7.089513   4.861940   5.173350
    26  H    6.954065   6.481435   7.263150   5.091416   4.901586
    27  H    2.457241   2.680470   3.866467   2.172684   3.451815
                    6          7          8          9         10
     6  N    0.000000
     7  C    1.496103   0.000000
     8  H    2.091429   1.121143   0.000000
     9  C    2.565924   1.549281   2.148793   0.000000
    10  C    3.880587   2.523212   2.646566   1.540629   0.000000
    11  C    4.395176   2.932889   3.136003   2.539015   1.536814
    12  C    3.822497   2.464967   2.554693   2.948620   2.545091
    13  C    2.530784   1.536233   2.135045   2.542027   3.004150
    14  H    2.737266   2.198962   2.517207   3.520402   4.011096
    15  N    3.175675   2.511027   3.422887   2.977757   3.554686
    16  C    3.111072   3.061125   4.083087   3.608463   4.543904
    17  H    2.096149   3.513787   4.092625   4.499227   5.901698
    18  H    1.022888   2.054721   2.315871   2.759062   4.081898
    19  H    2.922935   2.195283   3.083361   1.110803   2.185359
    20  H    2.757610   2.195653   2.531494   1.110725   2.174046
    21  H    4.728416   3.494611   3.692112   2.186106   1.112015
    22  H    4.113938   2.796124   2.448751   2.176445   1.112967
    23  H    4.709032   3.388771   3.889615   2.839172   2.171578
    24  H    5.409239   3.919749   3.907100   3.500891   2.181616
    25  H    4.675621   3.443837   3.587165   3.959312   3.500893
    26  H    4.009583   2.697480   2.297859   3.344599   2.827180
    27  H    4.127449   4.101212   5.146798   4.428155   5.294238
                   11         12         13         14         15
    11  C    0.000000
    12  C    1.543885   0.000000
    13  C    2.561995   1.553295   0.000000
    14  H    3.506722   2.170368   1.115335   0.000000
    15  N    2.965537   2.448346   1.464464   2.122055   0.000000
    16  C    4.192959   3.666959   2.380103   2.692804   1.292142
    17  H    6.277610   5.551243   4.054374   3.871171   4.260171
    18  H    4.893364   4.491857   3.388877   3.641803   4.098702
    19  H    2.840539   3.367967   2.787309   3.815601   2.633371
    20  H    3.493097   3.946494   3.506195   4.368542   3.993693
    21  H    2.180672   3.505778   3.990074   5.045905   4.276107
    22  H    2.168286   2.838377   3.449863   4.278367   4.331352
    23  H    1.113453   2.180827   2.831899   3.830066   2.644559
    24  H    1.111855   2.186280   3.522961   4.338236   3.972912
    25  H    2.179383   1.112090   2.187764   2.493290   2.683372
    26  H    2.181428   1.110203   2.190184   2.481957   3.409525
    27  H    4.852797   4.488617   3.376313   3.689162   2.050481
                   16         17         18         19         20
    16  C    0.000000
    17  H    3.545791   0.000000
    18  H    4.055784   2.433657   0.000000
    19  H    3.083035   4.523566   3.265108   0.000000
    20  H    4.436545   4.601126   2.530767   1.796840   0.000000
    21  H    5.201993   6.682138   4.837023   2.496323   2.530429
    22  H    5.323900   6.207595   4.152508   3.098086   2.470502
    23  H    3.809120   6.403249   5.298506   2.689409   3.848668
    24  H    5.234448   7.330969   5.849093   3.863172   4.330077
    25  H    3.892868   6.186221   5.444483   4.198921   5.002582
    26  H    4.529436   5.811418   4.529274   4.036994   4.153274
    27  H    1.100768   4.292000   5.025396   3.700853   5.241428
                   21         22         23         24         25
    21  H    0.000000
    22  H    1.799277   0.000000
    23  H    2.467832   3.084194   0.000000
    24  H    2.541502   2.467490   1.794501   0.000000
    25  H    4.336779   3.841338   2.487364   2.518543   0.000000
    26  H    3.851596   2.667924   3.097415   2.498573   1.794965
    27  H    5.805902   6.177359   4.248101   5.843006   4.551202
                   26         27
    26  H    0.000000
    27  H    5.442547   0.000000
 Symmetry turned off by external request.
 Stoichiometry    C9H13N3O2
 Framework group  C1[X(C9H13N3O2)]
 Deg. of freedom    75
 Full point group                 C1      NOp   1
 Rotational constants (GHZ):           1.6751054           0.4005764           0.3553042
 Standard basis: 6-31G(d) (6D, 7F)
   236 basis functions,   444 primitive gaussians,   236 cartesian basis functions
    52 alpha electrons       52 beta electrons
       nuclear repulsion energy       917.5404033223 Hartrees.
 NAtoms=   27 NActive=   27 NUniq=   27 SFac= 1.00D+00 NAtFMM=   60 NAOKFM=F Big=F
 Integral buffers will be    131072 words long.
 Raffenetti 1 integral format.
 Two-electron integral symmetry is turned off.
 One-electron integrals computed using PRISM.
 NBasis=   236 RedAO= T EigKep=  1.27D-03  NBF=   236
 NBsUse=   236 1.00D-06 EigRej= -1.00D+00 NBFU=   236
 ExpMin= 1.61D-01 ExpMax= 5.48D+03 ExpMxC= 8.25D+02 IAcc=3 IRadAn=         5 AccDes= 0.00D+00
 Harris functional with IExCor=  205 and IRadAn=       5 diagonalized for initial guess.
 HarFok:  IExCor=  205 AccDes= 0.00D+00 IRadAn=         5 IDoV= 1 UseB2=F ITyADJ=14
 ICtDFT=  3500011 ScaDFX=  1.000000  1.000000  1.000000  1.000000
 FoFCou: FMM=F IPFlag=           0 FMFlag=      100000 FMFlg1=           0
         NFxFlg=           0 DoJE=T BraDBF=F KetDBF=T FulRan=T
         wScrn=  0.000000 ICntrl=       500 IOpCl=  0 I1Cent=   200000004 NGrid=           0
         NMat0=    1 NMatS0=      1 NMatT0=    0 NMatD0=    1 NMtDS0=    0 NMtDT0=    0
 Symmetry not used in FoFCou.
 Keep R1 ints in memory in canonical form, NReq=397720213.
 Requested convergence on RMS density matrix=1.00D-08 within 128 cycles.
 Requested convergence on MAX density matrix=1.00D-06.
 Requested convergence on             energy=1.00D-06.
 No special actions if energy rises.
 SCF Done:  E(RHF) =  -661.280670763     A.U. after   16 cycles
            NFock= 16  Conv=0.81D-08     -V/T= 2.0037
 ExpMin= 1.61D-01 ExpMax= 5.48D+03 ExpMxC= 8.25D+02 IAcc=3 IRadAn=         5 AccDes= 0.00D+00
 HarFok:  IExCor=  205 AccDes= 0.00D+00 IRadAn=         5 IDoV=-2 UseB2=F ITyADJ=14
 ICtDFT= 12500011 ScaDFX=  1.000000  1.000000  1.000000  1.000000
 Range of M.O.s used for correlation:    15   236
 NBasis=   236 NAE=    52 NBE=    52 NFC=    14 NFV=     0
 NROrb=    222 NOA=    38 NOB=    38 NVA=   184 NVB=   184
 Fully direct method using O(ONN) memory.
 JobTyp=1 Pass  1:  I=  15 to  52 NPSUse=  4 ParTrn=T ParDer=T DoDerP=T.
 Spin components of T(2) and E(2):
     alpha-alpha T2 =       0.9196296405D-01 E2=     -0.2717467004D+00
     alpha-beta  T2 =       0.4997358316D+00 E2=     -0.1493795367D+01
     beta-beta   T2 =       0.9196296405D-01 E2=     -0.2717467004D+00
 ANorm=    0.1297559925D+01
 E2 =    -0.2037288768D+01 EUMP2 =    -0.66331795953103D+03
          IDoAtm=111111111111111111111111111
          Differentiating once with respect to electric field.
                with respect to dipole field.
          Differentiating once with respect to nuclear coordinates.
 Keep R1 ints in memory in canonical form, NReq=397723379.
          There are     1 degrees of freedom in the 1st order CPHF.  IDoFFX=0 NUNeed=     1.
 LinEq1:  Iter=  0 NonCon=     1 RMS=4.61D-03 Max=1.11D-01 NDo=     1
 AX will form     1 AO Fock derivatives at one time.
 LinEq1:  Iter=  1 NonCon=     1 RMS=1.56D-03 Max=3.02D-02 NDo=     1
 LinEq1:  Iter=  2 NonCon=     1 RMS=6.40D-04 Max=1.79D-02 NDo=     1
 LinEq1:  Iter=  3 NonCon=     1 RMS=2.94D-04 Max=9.07D-03 NDo=     1
 LinEq1:  Iter=  4 NonCon=     1 RMS=9.03D-05 Max=2.08D-03 NDo=     1
 LinEq1:  Iter=  5 NonCon=     1 RMS=3.75D-05 Max=1.89D-03 NDo=     1
 LinEq1:  Iter=  6 NonCon=     1 RMS=1.54D-05 Max=5.85D-04 NDo=     1
 LinEq1:  Iter=  7 NonCon=     1 RMS=5.94D-06 Max=1.02D-04 NDo=     1
 LinEq1:  Iter=  8 NonCon=     1 RMS=2.38D-06 Max=6.12D-05 NDo=     1
 LinEq1:  Iter=  9 NonCon=     1 RMS=8.91D-07 Max=2.55D-05 NDo=     1
 LinEq1:  Iter= 10 NonCon=     1 RMS=4.37D-07 Max=1.50D-05 NDo=     1
 LinEq1:  Iter= 11 NonCon=     1 RMS=1.55D-07 Max=5.74D-06 NDo=     1
 LinEq1:  Iter= 12 NonCon=     1 RMS=5.43D-08 Max=7.67D-07 NDo=     1
 LinEq1:  Iter= 13 NonCon=     1 RMS=1.72D-08 Max=3.56D-07 NDo=     1
 LinEq1:  Iter= 14 NonCon=     1 RMS=5.45D-09 Max=1.49D-07 NDo=     1
 LinEq1:  Iter= 15 NonCon=     1 RMS=2.01D-09 Max=4.81D-08 NDo=     1
 LinEq1:  Iter= 16 NonCon=     1 RMS=7.50D-10 Max=1.25D-08 NDo=     1
 LinEq1:  Iter= 17 NonCon=     1 RMS=2.51D-10 Max=3.65D-09 NDo=     1
 LinEq1:  Iter= 18 NonCon=     1 RMS=8.67D-11 Max=1.02D-09 NDo=     1
 LinEq1:  Iter= 19 NonCon=     0 RMS=2.91D-11 Max=3.79D-10 NDo=     1
 Linear equations converged to 1.000D-10 1.000D-09 after    19 iterations.
 End of Minotr F.D. properties file   721 does not exist.
 End of Minotr F.D. properties file   722 does not exist.
 End of Minotr F.D. properties file   788 does not exist.

 **********************************************************************

            Population analysis using the SCF Density.

 **********************************************************************

 Alpha  occ. eigenvalues --  -20.59865 -20.59420 -15.85309 -15.63291 -15.56880
 Alpha  occ. eigenvalues --  -11.35838 -11.30471 -11.30122 -11.30048 -11.27722
 Alpha  occ. eigenvalues --  -11.24613 -11.23867 -11.23418 -11.22854  -1.58513
 Alpha  occ. eigenvalues --   -1.38014  -1.28516  -1.22780  -1.13264  -1.08380
 Alpha  occ. eigenvalues --   -1.01808  -1.00653  -0.93577  -0.88984  -0.84923
 Alpha  occ. eigenvalues --   -0.81548  -0.78059  -0.76926  -0.74324  -0.71140
 Alpha  occ. eigenvalues --   -0.70355  -0.69800  -0.67399  -0.64359  -0.63300
 Alpha  occ. eigenvalues --   -0.61571  -0.60415  -0.57408  -0.56448  -0.54890
 Alpha  occ. eigenvalues --   -0.53565  -0.50735  -0.49319  -0.48496  -0.47778
 Alpha  occ. eigenvalues --   -0.47684  -0.46139  -0.45701  -0.44028  -0.42108
 Alpha  occ. eigenvalues --   -0.40019  -0.33811
 Alpha virt. eigenvalues --    0.07311   0.11771   0.18228   0.21390   0.23400
 Alpha virt. eigenvalues --    0.24207   0.26295   0.27766   0.28569   0.28883
 Alpha virt. eigenvalues --    0.29951   0.31064   0.31866   0.32259   0.33343
 Alpha virt. eigenvalues --    0.33777   0.34200   0.35469   0.37588   0.38615
 Alpha virt. eigenvalues --    0.40651   0.41755   0.44451   0.45273   0.45719
 Alpha virt. eigenvalues --    0.46045   0.49703   0.53181   0.57597   0.58965
 Alpha virt. eigenvalues --    0.63274   0.69138   0.69309   0.72195   0.74029
 Alpha virt. eigenvalues --    0.74950   0.75689   0.75851   0.77749   0.79336
 Alpha virt. eigenvalues --    0.80516   0.83650   0.85022   0.85331   0.88010
 Alpha virt. eigenvalues --    0.89053   0.90177   0.90846   0.91819   0.93886
 Alpha virt. eigenvalues --    0.95238   0.97201   0.98820   1.00317   1.01951
 Alpha virt. eigenvalues --    1.02760   1.05121   1.06439   1.07012   1.08660
 Alpha virt. eigenvalues --    1.09552   1.10468   1.11270   1.11929   1.13266
 Alpha virt. eigenvalues --    1.13807   1.14220   1.15391   1.16358   1.17259
 Alpha virt. eigenvalues --    1.17962   1.19962   1.21203   1.22301   1.23060
 Alpha virt. eigenvalues --    1.23704   1.24306   1.25688   1.27083   1.27464
 Alpha virt. eigenvalues --    1.29489   1.31138   1.32918   1.35917   1.39760
 Alpha virt. eigenvalues --    1.42971   1.45932   1.47208   1.49156   1.52497
 Alpha virt. eigenvalues --    1.54432   1.55375   1.60601   1.61449   1.65971
 Alpha virt. eigenvalues --    1.68657   1.70289   1.72830   1.73475   1.77111
 Alpha virt. eigenvalues --    1.77655   1.79949   1.84357   1.89167   1.92634
 Alpha virt. eigenvalues --    1.93719   1.96117   1.97496   1.99008   2.00914
 Alpha virt. eigenvalues --    2.02979   2.03855   2.05974   2.08773   2.11901
 Alpha virt. eigenvalues --    2.12784   2.13889   2.17765   2.18822   2.19441
 Alpha virt. eigenvalues --    2.20610   2.22088   2.24099   2.25050   2.26445
 Alpha virt. eigenvalues --    2.29169   2.32311   2.33579   2.35478   2.35905
 Alpha virt. eigenvalues --    2.38543   2.39825   2.41599   2.43134   2.46378
 Alpha virt. eigenvalues --    2.48578   2.50396   2.50918   2.56815   2.57147
 Alpha virt. eigenvalues --    2.60831   2.62829   2.66052   2.68498   2.68793
 Alpha virt. eigenvalues --    2.69732   2.70249   2.74709   2.77206   2.80881
 Alpha virt. eigenvalues --    2.84749   2.86892   2.90018   2.91457   2.95259
 Alpha virt. eigenvalues --    2.97681   2.98410   3.02105   3.03461   3.05722
 Alpha virt. eigenvalues --    3.06918   3.12623   3.19328   3.22670   3.27221
 Alpha virt. eigenvalues --    3.30493   3.33520   3.37149   3.43478   3.59662
 Alpha virt. eigenvalues --    4.09939   4.23222   4.32139   4.36344   4.43134
 Alpha virt. eigenvalues --    4.52733   4.59711   4.60095   4.70832   4.77503
 Alpha virt. eigenvalues --    4.96277   4.99236   5.02699   5.09946
          Condensed to atoms (all electrons):
               1          2          3          4          5          6
     1  O    8.299449   0.313243  -0.089704  -0.079226   0.003492  -0.000013
     2  N    0.313243   5.683364   0.309015   0.265005  -0.045942   0.000864
     3  O   -0.089704   0.309015   8.330464  -0.087313   0.007858   0.000460
     4  C   -0.079226   0.265005  -0.087313   5.244006   0.567012  -0.047465
     5  C    0.003492  -0.045942   0.007858   0.567012   4.672164   0.307079
     6  N   -0.000013   0.000864   0.000460  -0.047465   0.307079   7.189794
     7  C    0.000003  -0.000096   0.000002   0.004075  -0.030227   0.199181
     8  H   -0.000000   0.000002  -0.000000  -0.000172   0.002277  -0.050436
     9  C   -0.000000  -0.000003   0.000000   0.000458   0.001756  -0.056314
    10  C   -0.000000   0.000000  -0.000000  -0.000018  -0.000066   0.003333
    11  C   -0.000000  -0.000000  -0.000000  -0.000015   0.000015  -0.000152
    12  C   -0.000000   0.000002  -0.000000  -0.000083  -0.000128   0.003537
    13  C   -0.000020  -0.000026  -0.000003  -0.010824   0.000503  -0.042767
    14  H   -0.000003  -0.000055   0.000000   0.003010   0.004927  -0.005479
    15  N    0.000166   0.001656  -0.000013  -0.061402  -0.003774   0.001865
    16  C    0.003557  -0.027103   0.001942   0.318571  -0.041201  -0.001368
    17  H    0.000126  -0.004107   0.011910  -0.027765   0.377900  -0.034268
    18  H    0.000000  -0.000034   0.000008   0.000862  -0.023921   0.328219
    19  H    0.000000   0.000000   0.000000  -0.000753   0.000634   0.000695
    20  H    0.000000  -0.000000   0.000000  -0.000026   0.000036  -0.001810
    21  H   -0.000000  -0.000000   0.000000   0.000000   0.000001  -0.000059
    22  H   -0.000000   0.000000  -0.000000  -0.000000  -0.000002  -0.000098
    23  H    0.000000  -0.000000   0.000000   0.000025  -0.000000  -0.000024
    24  H    0.000000   0.000000   0.000000   0.000000  -0.000000   0.000004
    25  H    0.000000  -0.000000   0.000000   0.000019  -0.000001  -0.000069
    26  H    0.000000  -0.000000   0.000000   0.000006  -0.000001  -0.000066
    27  H    0.005246  -0.000230  -0.000001  -0.065980   0.002149   0.000047
               7          8          9         10         11         12
     1  O    0.000003  -0.000000  -0.000000  -0.000000  -0.000000  -0.000000
     2  N   -0.000096   0.000002  -0.000003   0.000000  -0.000000   0.000002
     3  O    0.000002  -0.000000   0.000000  -0.000000  -0.000000  -0.000000
     4  C    0.004075  -0.000172   0.000458  -0.000018  -0.000015  -0.000083
     5  C   -0.030227   0.002277   0.001756  -0.000066   0.000015  -0.000128
     6  N    0.199181  -0.050436  -0.056314   0.003333  -0.000152   0.003537
     7  C    5.002206   0.417008   0.340247  -0.049278  -0.007691  -0.063695
     8  H    0.417008   0.548600  -0.060895   0.001467  -0.000343  -0.002882
     9  C    0.340247  -0.060895   5.182266   0.317932  -0.053000  -0.006291
    10  C   -0.049278   0.001467   0.317932   5.126451   0.332807  -0.060158
    11  C   -0.007691  -0.000343  -0.053000   0.332807   5.123814   0.330655
    12  C   -0.063695  -0.002882  -0.006291  -0.060158   0.330655   5.136555
    13  C    0.332718  -0.040672  -0.050107  -0.001749  -0.047944   0.368189
    14  H   -0.040362  -0.000955   0.003892  -0.000393   0.003956  -0.040729
    15  N   -0.058389   0.004075  -0.012864   0.001465  -0.007723  -0.074118
    16  C   -0.002380   0.000025  -0.000893  -0.000024   0.000003   0.002529
    17  H    0.001482  -0.000018  -0.000067   0.000001   0.000000   0.000001
    18  H   -0.028025  -0.002496   0.000877  -0.000121   0.000011  -0.000131
    19  H   -0.035007   0.004120   0.385776  -0.032557  -0.002274   0.000635
    20  H   -0.041630  -0.001852   0.397319  -0.037417   0.004143  -0.000359
    21  H    0.004040  -0.000079  -0.035857   0.400151  -0.035873   0.004216
    22  H   -0.004195   0.003514  -0.045692   0.396001  -0.045603  -0.001244
    23  H    0.000420   0.000033  -0.002002  -0.040105   0.396735  -0.036674
    24  H   -0.000142  -0.000098   0.004394  -0.038462   0.400274  -0.037863
    25  H    0.004957  -0.000002  -0.000368   0.004099  -0.033953   0.395538
    26  H   -0.004441   0.001620   0.001034  -0.002411  -0.042259   0.394659
    27  H   -0.000405   0.000009  -0.000059   0.000005   0.000005  -0.000019
              13         14         15         16         17         18
     1  O   -0.000020  -0.000003   0.000166   0.003557   0.000126   0.000000
     2  N   -0.000026  -0.000055   0.001656  -0.027103  -0.004107  -0.000034
     3  O   -0.000003   0.000000  -0.000013   0.001942   0.011910   0.000008
     4  C   -0.010824   0.003010  -0.061402   0.318571  -0.027765   0.000862
     5  C    0.000503   0.004927  -0.003774  -0.041201   0.377900  -0.023921
     6  N   -0.042767  -0.005479   0.001865  -0.001368  -0.034268   0.328219
     7  C    0.332718  -0.040362  -0.058389  -0.002380   0.001482  -0.028025
     8  H   -0.040672  -0.000955   0.004075   0.000025  -0.000018  -0.002496
     9  C   -0.050107   0.003892  -0.012864  -0.000893  -0.000067   0.000877
    10  C   -0.001749  -0.000393   0.001465  -0.000024   0.000001  -0.000121
    11  C   -0.047944   0.003956  -0.007723   0.000003   0.000000   0.000011
    12  C    0.368189  -0.040729  -0.074118   0.002529   0.000001  -0.000131
    13  C    5.024507   0.402008   0.239643  -0.069976  -0.000040   0.003544
    14  H    0.402008   0.519662  -0.035881  -0.004867   0.000066   0.000009
    15  N    0.239643  -0.035881   6.934817   0.587771  -0.000061  -0.000117
    16  C   -0.069976  -0.004867   0.587771   4.700264   0.001662  -0.000213
    17  H   -0.000040   0.000066  -0.000061   0.001662   0.387456  -0.001801
    18  H    0.003544   0.000009  -0.000117  -0.000213  -0.001801   0.322620
    19  H   -0.006319   0.000064   0.006967   0.002534   0.000011  -0.000126
    20  H    0.003857  -0.000049   0.000077  -0.000030  -0.000001   0.002924
    21  H   -0.000377   0.000009  -0.000029   0.000002  -0.000000  -0.000000
    22  H    0.000324  -0.000044   0.000002  -0.000001   0.000000   0.000002
    23  H   -0.005841   0.000008   0.006746   0.000061   0.000000   0.000000
    24  H    0.004144  -0.000058   0.000044   0.000005   0.000000  -0.000000
    25  H   -0.034476  -0.002668   0.000742  -0.000060  -0.000000   0.000002
    26  H   -0.044762  -0.000910   0.004186  -0.000057   0.000000  -0.000001
    27  H    0.004884  -0.000175  -0.039679   0.402249  -0.000059   0.000002
              19         20         21         22         23         24
     1  O    0.000000   0.000000  -0.000000  -0.000000   0.000000   0.000000
     2  N    0.000000  -0.000000  -0.000000   0.000000  -0.000000   0.000000
     3  O    0.000000   0.000000   0.000000  -0.000000   0.000000   0.000000
     4  C   -0.000753  -0.000026   0.000000  -0.000000   0.000025   0.000000
     5  C    0.000634   0.000036   0.000001  -0.000002  -0.000000  -0.000000
     6  N    0.000695  -0.001810  -0.000059  -0.000098  -0.000024   0.000004
     7  C   -0.035007  -0.041630   0.004040  -0.004195   0.000420  -0.000142
     8  H    0.004120  -0.001852  -0.000079   0.003514   0.000033  -0.000098
     9  C    0.385776   0.397319  -0.035857  -0.045692  -0.002002   0.004394
    10  C   -0.032557  -0.037417   0.400151   0.396001  -0.040105  -0.038462
    11  C   -0.002274   0.004143  -0.035873  -0.045603   0.396735   0.400274
    12  C    0.000635  -0.000359   0.004216  -0.001244  -0.036674  -0.037863
    13  C   -0.006319   0.003857  -0.000377   0.000324  -0.005841   0.004144
    14  H    0.000064  -0.000049   0.000009  -0.000044   0.000008  -0.000058
    15  N    0.006967   0.000077  -0.000029   0.000002   0.006746   0.000044
    16  C    0.002534  -0.000030   0.000002  -0.000001   0.000061   0.000005
    17  H    0.000011  -0.000001  -0.000000   0.000000   0.000000   0.000000
    18  H   -0.000126   0.002924  -0.000000   0.000002   0.000000  -0.000000
    19  H    0.507275  -0.024061  -0.002591   0.003758   0.001640  -0.000069
    20  H   -0.024061   0.550499  -0.002616  -0.002970  -0.000049  -0.000090
    21  H   -0.002591  -0.002616   0.526311  -0.024711  -0.002818  -0.002060
    22  H    0.003758  -0.002970  -0.024711   0.568761   0.004062  -0.003595
    23  H    0.001640  -0.000049  -0.002818   0.004062   0.509777  -0.024994
    24  H   -0.000069  -0.000090  -0.002060  -0.003595  -0.024994   0.541025
    25  H   -0.000027   0.000011  -0.000086  -0.000082  -0.002098  -0.002373
    26  H    0.000023  -0.000035  -0.000074   0.002466   0.003822  -0.002771
    27  H    0.000076  -0.000000  -0.000000   0.000000  -0.000021  -0.000000
              25         26         27
     1  O    0.000000   0.000000   0.005246
     2  N   -0.000000  -0.000000  -0.000230
     3  O    0.000000   0.000000  -0.000001
     4  C    0.000019   0.000006  -0.065980
     5  C   -0.000001  -0.000001   0.002149
     6  N   -0.000069  -0.000066   0.000047
     7  C    0.004957  -0.004441  -0.000405
     8  H   -0.000002   0.001620   0.000009
     9  C   -0.000368   0.001034  -0.000059
    10  C    0.004099  -0.002411   0.000005
    11  C   -0.033953  -0.042259   0.000005
    12  C    0.395538   0.394659  -0.000019
    13  C   -0.034476  -0.044762   0.004884
    14  H   -0.002668  -0.000910  -0.000175
    15  N    0.000742   0.004186  -0.039679
    16  C   -0.000060  -0.000057   0.402249
    17  H   -0.000000   0.000000  -0.000059
    18  H    0.000002  -0.000001   0.000002
    19  H   -0.000027   0.000023   0.000076
    20  H    0.000011  -0.000035  -0.000000
    21  H   -0.000086  -0.000074  -0.000000
    22  H   -0.000082   0.002466   0.000000
    23  H   -0.002098   0.003822  -0.000021
    24  H   -0.002373  -0.002771  -0.000000
    25  H    0.510244  -0.023099  -0.000010
    26  H   -0.023099   0.560599   0.000001
    27  H   -0.000010   0.000001   0.452467
 Mulliken charges:
               1
     1  O   -0.456314
     2  N    0.504445
     3  O   -0.484625
     4  C   -0.022006
     5  C    0.197462
     6  N   -0.794692
     7  C    0.059624
     8  H    0.178153
     9  C   -0.311541
    10  C   -0.320952
    11  C   -0.315586
    12  C   -0.312141
    13  C   -0.028418
    14  H    0.195020
    15  N   -0.496172
    16  C    0.126999
    17  H    0.287574
    18  H    0.397906
    19  H    0.189575
    20  H    0.154132
    21  H    0.172499
    22  H    0.149348
    23  H    0.191297
    24  H    0.162685
    25  H    0.183760
    26  H    0.152470
    27  H    0.239499
 Sum of Mulliken charges =  -0.00000
 Mulliken charges with hydrogens summed into heavy atoms:
               1
     1  O   -0.456314
     2  N    0.504445
     3  O   -0.484625
     4  C   -0.022006
     5  C    0.485036
     6  N   -0.396786
     7  C    0.237776
     9  C    0.032166
    10  C    0.000895
    11  C    0.038395
    12  C    0.024089
    13  C    0.166602
    15  N   -0.496172
    16  C    0.366498
 Electronic spatial extent (au):  <R**2>=           3124.3133
 Charge=             -0.0000 electrons
 Dipole moment (field-independent basis, Debye):
    X=              5.3387    Y=              4.4776    Z=              0.4635  Tot=              6.9833
 Quadrupole moment (field-independent basis, Debye-Ang):
   XX=           -105.4054   YY=            -80.2960   ZZ=            -82.2489
   XY=             -1.8955   XZ=              1.0559   YZ=             -0.0430
 Traceless Quadrupole moment (field-independent basis, Debye-Ang):
   XX=            -16.0887   YY=              9.0208   ZZ=              7.0679
   XY=             -1.8955   XZ=              1.0559   YZ=             -0.0430
 Octapole moment (field-independent basis, Debye-Ang**2):
  XXX=            100.8857  YYY=             36.8841  ZZZ=             -5.5192  XYY=             -1.3294
  XXY=             11.7756  XXZ=             -1.1995  XZZ=             -8.4105  YZZ=             -2.9174
  YYZ=              0.3702  XYZ=             -1.5469
 Hexadecapole moment (field-independent basis, Debye-Ang**3):
 XXXX=          -3555.9529 YYYY=           -620.6260 ZZZZ=           -298.5210 XXXY=            -42.9471
 XXXZ=             32.8432 YYYX=            -21.9832 YYYZ=             10.4908 ZZZX=             24.6047
 ZZZY=              9.0327 XXYY=           -656.8251 XXZZ=           -543.0228 YYZZ=           -164.6694
 XXYZ=              2.3522 YYXZ=             11.3588 ZZXY=              2.0328
 N-N= 9.175404033223D+02 E-N=-3.381088077133D+03  KE= 6.588550326862D+02
 Calling FoFJK, ICntrl=  10002127 FMM=F ISym2X=0 I1Cent= 0 IOpClX= 0 NMat=1 NMatS=1 NMatT=0.
 -------------------------------------------------------------------
 Center     Atomic                   Forces (Hartrees/Bohr)
 Number     Number              X              Y              Z
 -------------------------------------------------------------------
      1        8           0.002513892   -0.019267069   -0.003247067
      2        7           0.038944855    0.014068624   -0.001844589
      3        8          -0.005254670    0.015690916    0.003732321
      4        6          -0.002633935    0.009283480    0.009793764
      5        6           0.002176086   -0.014577221   -0.005585232
      6        7           0.014505532   -0.014580429   -0.005848553
      7        6          -0.003321169    0.007171865    0.002671941
      8        1          -0.009848985   -0.001830864   -0.007701811
      9        6          -0.003901786    0.000009908   -0.002085119
     10        6           0.002860510   -0.000837801    0.000939578
     11        6          -0.001060492   -0.004605909   -0.002452743
     12        6           0.000924126   -0.008505345   -0.002879800
     13        6           0.008247527   -0.001441697    0.004957792
     14        1           0.000819776    0.004415120   -0.009820225
     15        7           0.000491898    0.000927058    0.000921587
     16        6          -0.021233934    0.006936228    0.003815035
     17        1           0.006767001   -0.005901692   -0.006785293
     18        1          -0.017357149   -0.001857207    0.006549371
     19        1           0.003090519    0.005887927    0.007660572
     20        1          -0.003279548   -0.007339550    0.002593372
     21        1          -0.004388976    0.002386152    0.009598792
     22        1          -0.003972845   -0.003979522   -0.007431349
     23        1           0.003963581    0.006122080    0.009313059
     24        1          -0.009378346    0.002622927   -0.002160600
     25        1          -0.000839712    0.010610144   -0.002409344
     26        1          -0.004773258   -0.004816231   -0.004406701
     27        1           0.005939503    0.003408107    0.002111243
 -------------------------------------------------------------------
 Cartesian Forces:  Max     0.038944855 RMS     0.008397159

 GradGradGradGradGradGradGradGradGradGradGradGradGradGradGradGradGradGrad
 Berny optimization.
 FormGI is forming the generalized inverse of G from B-inverse, IUseBI=4.
 Internal  Forces:  Max     0.037560670 RMS     0.006853491
 Search for a local minimum.
 Step number   1 out of a maximum of   20
 All quantities printed in internal units (Hartrees-Bohrs-Radians)
 Mixed Optimization -- RFO/linear search
 Second derivative matrix not updated -- first step.
 ITU=  0
     Eigenvalues ---    0.00231   0.00768   0.01052   0.01152   0.01199
     Eigenvalues ---    0.01494   0.01532   0.01614   0.01985   0.02020
     Eigenvalues ---    0.02082   0.02686   0.03701   0.04509   0.04708
     Eigenvalues ---    0.04839   0.05082   0.05141   0.05302   0.05941
     Eigenvalues ---    0.06317   0.07374   0.07710   0.07772   0.07966
     Eigenvalues ---    0.07995   0.08048   0.08059   0.10466   0.11786
     Eigenvalues ---    0.12317   0.13563   0.15366   0.15988   0.15999
     Eigenvalues ---    0.16589   0.20239   0.23111   0.24981   0.25000
     Eigenvalues ---    0.25000   0.25315   0.26036   0.26645   0.27979
     Eigenvalues ---    0.28084   0.28463   0.29638   0.30455   0.31448
     Eigenvalues ---    0.32042   0.32237   0.32288   0.32380   0.32388
     Eigenvalues ---    0.32404   0.32515   0.32523   0.32579   0.33321
     Eigenvalues ---    0.33391   0.33597   0.35362   0.43880   0.44218
     Eigenvalues ---    0.48313   0.65957   0.90433   0.911611000.00000
     Eigenvalues --- 1000.000001000.000001000.000001000.000001000.00000
     Eigenvalues --- 1000.000001000.000001000.000001000.000001000.00000
     Eigenvalues --- 1000.000001000.000001000.000001000.000001000.00000
     Eigenvalues --- 1000.000001000.000001000.000001000.000001000.00000
     Eigenvalues --- 1000.000001000.000001000.000001000.000001000.00000
     Eigenvalues --- 1000.000001000.000001000.000001000.000001000.00000
     Eigenvalues --- 1000.000001000.000001000.000001000.000001000.00000
     Eigenvalues --- 1000.000001000.000001000.000001000.000001000.00000
     Eigenvalues --- 1000.000001000.000001000.000001000.000001000.00000
     Eigenvalues --- 1000.000001000.000001000.000001000.000001000.00000
     Eigenvalues --- 1000.000001000.000001000.000001000.000001000.00000
     Eigenvalues --- 1000.000001000.000001000.000001000.000001000.00000
     Eigenvalues --- 1000.000001000.000001000.000001000.000001000.00000
     Eigenvalues --- 1000.000001000.000001000.000001000.000001000.00000
     Eigenvalues --- 1000.000001000.000001000.000001000.000001000.00000
     Eigenvalues --- 1000.000001000.000001000.000001000.000001000.00000
     Eigenvalues --- 1000.000001000.000001000.000001000.000001000.00000
     Eigenvalues --- 1000.000001000.000001000.000001000.000001000.00000
     Eigenvalues --- 1000.00000
 RFO step:  Lambda=-2.36277921D-02 EMin= 2.30910947D-03
 Linear search not attempted -- first point.
 Iteration  1 RMS(Cart)=  0.05427134 RMS(Int)=  0.00102334
 Iteration  2 RMS(Cart)=  0.00109327 RMS(Int)=  0.00023344
 Iteration  3 RMS(Cart)=  0.00000072 RMS(Int)=  0.00023344
 Iteration  1 RMS(Cart)=  0.00002397 RMS(Int)=  0.00002066
 Iteration  2 RMS(Cart)=  0.00001152 RMS(Int)=  0.00002280
 Iteration  3 RMS(Cart)=  0.00000628 RMS(Int)=  0.00002533
 Iteration  4 RMS(Cart)=  0.00000413 RMS(Int)=  0.00002714
 Iteration  5 RMS(Cart)=  0.00000319 RMS(Int)=  0.00002846
 Iteration  6 RMS(Cart)=  0.00000266 RMS(Int)=  0.00002950
 Iteration  7 RMS(Cart)=  0.00000229 RMS(Int)=  0.00003035
 Iteration  8 RMS(Cart)=  0.00000198 RMS(Int)=  0.00003108
 Iteration  9 RMS(Cart)=  0.00000171 RMS(Int)=  0.00003170
 Iteration 10 RMS(Cart)=  0.00000148 RMS(Int)=  0.00003224
 Iteration 11 RMS(Cart)=  0.00000128 RMS(Int)=  0.00003271
 Iteration 12 RMS(Cart)=  0.00000111 RMS(Int)=  0.00003312
 Iteration 13 RMS(Cart)=  0.00000095 RMS(Int)=  0.00003347
 Variable       Old X    -DE/DX   Delta X   Delta X   Delta X     New X
                                 (Linear)    (Quad)   (Total)
    R1        2.32403   0.01795   0.00000   0.01919   0.01919   2.34321
    R2        2.32734   0.01579   0.00000   0.01701   0.01701   2.34436
    R3        2.88691  -0.03756   0.00000  -0.11737  -0.11737   2.76954
    R4        2.64498  -0.03509   0.00000  -0.07585  -0.07563   2.56935
    R5        2.80785  -0.02096   0.00000  -0.05864  -0.05838   2.74947
    R6        2.59216  -0.02462   0.00000  -0.04888  -0.04885   2.54331
    R7        2.08371  -0.01022   0.00000  -0.02859  -0.02859   2.05512
    R8        2.82722  -0.02007   0.00000  -0.05773  -0.05788   2.76935
    R9        1.93298  -0.00687   0.00000  -0.01486  -0.01486   1.91812
   R10        2.11865  -0.01182   0.00000  -0.03497  -0.03497   2.08368
   R11        2.92772  -0.01299   0.00000  -0.04461  -0.04461   2.88310
   R12        2.90306  -0.00501   0.00000  -0.01093  -0.01095   2.89211
   R13        2.91137  -0.00474   0.00000  -0.01461  -0.01465   2.89672
   R14        2.09911  -0.00993   0.00000  -0.02848  -0.02848   2.07063
   R15        2.09897  -0.00802   0.00000  -0.02300  -0.02300   2.07597
   R16        2.90416  -0.00181   0.00000  -0.00689  -0.00694   2.89722
   R17        2.10140  -0.01057   0.00000  -0.03041  -0.03041   2.07099
   R18        2.10320  -0.00903   0.00000  -0.02605  -0.02605   2.07715
   R19        2.91752  -0.00900   0.00000  -0.02818  -0.02818   2.88934
   R20        2.10412  -0.01168   0.00000  -0.03375  -0.03375   2.07037
   R21        2.10110  -0.00995   0.00000  -0.02862  -0.02862   2.07248
   R22        2.93530  -0.01055   0.00000  -0.03648  -0.03644   2.89887
   R23        2.10154  -0.01074   0.00000  -0.03092  -0.03092   2.07062
   R24        2.09798  -0.00788   0.00000  -0.02255  -0.02255   2.07543
   R25        2.10768  -0.00909   0.00000  -0.02641  -0.02641   2.08127
   R26        2.76744  -0.00502   0.00000  -0.00997  -0.01026   2.75718
   R27        2.44179  -0.00520   0.00000  -0.00618  -0.00616   2.43563
   R28        2.08015  -0.00623   0.00000  -0.01733  -0.01733   2.06282
    A1        2.15852   0.01101   0.00000   0.04037   0.04021   2.19873
    A2        2.05379  -0.00788   0.00000  -0.02864  -0.02881   2.02498
    A3        2.07076  -0.00312   0.00000  -0.01126  -0.01142   2.05934
    A4        2.03301  -0.00742   0.00000  -0.02438  -0.02470   2.00831
    A5        2.03374  -0.00307   0.00000  -0.00842  -0.00877   2.02498
    A6        2.21571   0.01044   0.00000   0.03164   0.03183   2.24754
    A7        2.20690   0.00480   0.00000   0.00813   0.00829   2.21519
    A8        2.06178  -0.00293   0.00000  -0.00673  -0.00689   2.05490
    A9        2.01369  -0.00184   0.00000  -0.00067  -0.00084   2.01285
   A10        2.24005  -0.00337   0.00000   0.00000  -0.00000   2.24005
   A11        2.12196  -0.01328   0.00000  -0.08001  -0.08046   2.04150
   A12        1.88202   0.01689   0.00000   0.08712   0.08726   1.96928
   A13        1.83585  -0.00125   0.00000  -0.01423  -0.01397   1.82188
   A14        2.00385  -0.00068   0.00000  -0.00805  -0.00822   1.99563
   A15        1.97469   0.00002   0.00000  -0.00885  -0.00930   1.96540
   A16        1.85081   0.00247   0.00000   0.02489   0.02474   1.87555
   A17        1.84762   0.00093   0.00000   0.01846   0.01819   1.86581
   A18        1.93636  -0.00112   0.00000  -0.00724  -0.00696   1.92940
   A19        1.91098   0.00005   0.00000  -0.00588  -0.00601   1.90497
   A20        1.92231  -0.00069   0.00000  -0.01246  -0.01243   1.90988
   A21        1.92289  -0.00162   0.00000  -0.00690  -0.00688   1.91601
   A22        1.91916  -0.00042   0.00000   0.00552   0.00545   1.92462
   A23        1.90395   0.00312   0.00000   0.02516   0.02518   1.92913
   A24        1.88432  -0.00041   0.00000  -0.00500  -0.00525   1.87907
   A25        1.94055  -0.00101   0.00000   0.00478   0.00466   1.94521
   A26        1.91895  -0.00064   0.00000  -0.00653  -0.00653   1.91241
   A27        1.90494   0.00034   0.00000  -0.00283  -0.00288   1.90205
   A28        1.91612   0.00085   0.00000   0.00725   0.00729   1.92340
   A29        1.89847   0.00173   0.00000   0.01134   0.01138   1.90985
   A30        1.88378  -0.00124   0.00000  -0.01447  -0.01456   1.86922
   A31        1.94444   0.00057   0.00000   0.00532   0.00544   1.94988
   A32        1.90240   0.00067   0.00000   0.00582   0.00579   1.90819
   A33        1.91756   0.00037   0.00000   0.00526   0.00522   1.92278
   A34        1.90651  -0.00110   0.00000  -0.01409  -0.01413   1.89237
   A35        1.91547  -0.00046   0.00000  -0.00003  -0.00011   1.91536
   A36        1.87610  -0.00008   0.00000  -0.00267  -0.00271   1.87339
   A37        1.94821  -0.00276   0.00000  -0.01733  -0.01735   1.93087
   A38        1.90593   0.00257   0.00000   0.01717   0.01704   1.92297
   A39        1.91057   0.00127   0.00000   0.01296   0.01292   1.92350
   A40        1.90611   0.00002   0.00000  -0.00361  -0.00348   1.90263
   A41        1.91124  -0.00021   0.00000  -0.00490  -0.00483   1.90641
   A42        1.88051  -0.00083   0.00000  -0.00382  -0.00401   1.87650
   A43        1.84740   0.00420   0.00000   0.02161   0.02163   1.86903
   A44        1.93837  -0.00414   0.00000  -0.03043  -0.03083   1.90754
   A45        1.98250   0.00084   0.00000   0.01129   0.01153   1.99403
   A46        1.87983   0.00227   0.00000   0.03095   0.03124   1.91106
   A47        1.89216  -0.00361   0.00000  -0.02761  -0.02762   1.86454
   A48        1.91895   0.00064   0.00000  -0.00349  -0.00341   1.91554
   A49        2.08172  -0.00641   0.00000  -0.01390  -0.01430   2.06742
   A50        2.24869  -0.00481   0.00000  -0.01821  -0.01823   2.23046
   A51        1.97986   0.00566   0.00000   0.02693   0.02648   2.00635
   A52        2.05458  -0.00082   0.00000  -0.00829  -0.00873   2.04584
    D1       -3.03526  -0.00074   0.00000  -0.02997  -0.02939  -3.06466
    D2        0.14413   0.00032   0.00000   0.00000  -0.00000   0.14413
    D3        0.12224  -0.00176   0.00000  -0.06235  -0.06206   0.06018
    D4       -2.98155  -0.00070   0.00000  -0.03238  -0.03266  -3.01422
    D5        3.08170   0.00037   0.00000   0.01141   0.01151   3.09321
    D6       -0.01440  -0.00061   0.00000  -0.00905  -0.00908  -0.02348
    D7       -0.10222  -0.00122   0.00000  -0.02334  -0.02363  -0.12586
    D8        3.08486  -0.00220   0.00000  -0.04380  -0.04422   3.04064
    D9       -2.68724  -0.00201   0.00000  -0.04385  -0.04429  -2.73153
   D10        0.44310   0.00044   0.00000   0.00345   0.00325   0.44636
   D11        0.49670  -0.00033   0.00000  -0.00875  -0.00854   0.48816
   D12       -2.65615   0.00212   0.00000   0.03855   0.03900  -2.61714
   D13       -0.15659   0.00016   0.00000   0.03090   0.03120  -0.12539
   D14        2.65051   0.00402   0.00000   0.07469   0.07355   2.72406
   D15        2.94060   0.00108   0.00000   0.05072   0.05121   2.99181
   D16       -0.53548   0.00494   0.00000   0.09451   0.09357  -0.44192
   D17       -2.46242  -0.00076   0.00000  -0.02300  -0.02269  -2.48511
   D18        1.79328  -0.00260   0.00000  -0.03993  -0.03952   1.75375
   D19       -0.45378  -0.00039   0.00000  -0.01385  -0.01386  -0.46764
   D20        0.97736   0.00001   0.00000  -0.03800  -0.03865   0.93871
   D21       -1.05013  -0.00184   0.00000  -0.05493  -0.05548  -1.10561
   D22        2.98600   0.00038   0.00000  -0.02885  -0.02982   2.95618
   D23        2.93815   0.00280   0.00000   0.03231   0.03228   2.97043
   D24       -1.23264   0.00188   0.00000   0.02749   0.02747  -1.20517
   D25        0.84420  -0.00007   0.00000   0.00926   0.00931   0.85350
   D26        0.91927   0.00310   0.00000   0.03793   0.03791   0.95718
   D27        3.03166   0.00218   0.00000   0.03311   0.03310   3.06476
   D28       -1.17469   0.00023   0.00000   0.01488   0.01494  -1.15975
   D29       -1.07900   0.00119   0.00000   0.00601   0.00599  -1.07301
   D30        1.03339   0.00027   0.00000   0.00120   0.00119   1.03458
   D31        3.11023  -0.00168   0.00000  -0.01703  -0.01698   3.09325
   D32       -2.89979  -0.00099   0.00000  -0.01340  -0.01314  -2.91293
   D33       -0.86435   0.00200   0.00000   0.02019   0.02007  -0.84428
   D34        1.30939   0.00021   0.00000   0.00000  -0.00001   1.30938
   D35       -0.89820  -0.00192   0.00000  -0.02390  -0.02386  -0.92206
   D36        1.13724   0.00107   0.00000   0.00968   0.00936   1.14659
   D37       -2.97221  -0.00072   0.00000  -0.01050  -0.01072  -2.98294
   D38        1.10206   0.00095   0.00000   0.01202   0.01211   1.11417
   D39        3.13750   0.00394   0.00000   0.04561   0.04533  -3.10036
   D40       -0.97195   0.00215   0.00000   0.02542   0.02525  -0.94671
   D41        0.95665   0.00060   0.00000   0.00000   0.00001   0.95666
   D42        3.08236   0.00056   0.00000   0.00790   0.00786   3.09022
   D43       -1.13766  -0.00113   0.00000  -0.01523  -0.01520  -1.15286
   D44       -1.15764   0.00169   0.00000   0.01568   0.01575  -1.14189
   D45        0.96806   0.00165   0.00000   0.02358   0.02360   0.99167
   D46        3.03123  -0.00004   0.00000   0.00045   0.00055   3.03178
   D47        3.06217   0.00056   0.00000   0.00346   0.00343   3.06560
   D48       -1.09531   0.00053   0.00000   0.01136   0.01128  -1.08403
   D49        0.96786  -0.00117   0.00000  -0.01177  -0.01178   0.95608
   D50       -0.92192  -0.00080   0.00000   0.00000   0.00001  -0.92192
   D51        1.18317  -0.00137   0.00000  -0.01036  -0.01036   1.17281
   D52       -3.04847  -0.00086   0.00000  -0.00714  -0.00716  -3.05563
   D53       -3.04928   0.00011   0.00000   0.00013   0.00015  -3.04913
   D54       -0.94418  -0.00046   0.00000  -0.01023  -0.01022  -0.95440
   D55        1.10737   0.00005   0.00000  -0.00701  -0.00702   1.10035
   D56        1.17622   0.00011   0.00000   0.00679   0.00682   1.18304
   D57       -3.00187  -0.00046   0.00000  -0.00357  -0.00355  -3.00542
   D58       -0.95032   0.00005   0.00000  -0.00035  -0.00035  -0.95068
   D59        0.98773  -0.00073   0.00000  -0.01172  -0.01173   0.97601
   D60        3.09708  -0.00075   0.00000  -0.01588  -0.01600   3.08107
   D61       -1.13120   0.00048   0.00000  -0.00299  -0.00294  -1.13414
   D62       -1.11495  -0.00121   0.00000  -0.01306  -0.01304  -1.12799
   D63        0.99439  -0.00123   0.00000  -0.01722  -0.01731   0.97708
   D64        3.04930   0.00000   0.00000  -0.00433  -0.00425   3.04505
   D65        3.11549  -0.00019   0.00000  -0.00153  -0.00152   3.11397
   D66       -1.05836  -0.00021   0.00000  -0.00569  -0.00579  -1.06415
   D67        0.99655   0.00102   0.00000   0.00720   0.00727   1.00382
   D68       -1.05218   0.00014   0.00000   0.00077   0.00083  -1.05134
   D69       -3.12678   0.00162   0.00000   0.00941   0.00907  -3.11771
   D70        1.08069   0.00157   0.00000   0.01148   0.01146   1.09215
   D71        3.12177  -0.00132   0.00000  -0.00719  -0.00706   3.11470
   D72        1.04716   0.00016   0.00000   0.00146   0.00118   1.04834
   D73       -1.02855   0.00011   0.00000   0.00353   0.00356  -1.02499
   D74        1.06637  -0.00021   0.00000   0.00239   0.00255   1.06892
   D75       -1.00823   0.00127   0.00000   0.01103   0.01079  -0.99744
   D76       -3.08395   0.00122   0.00000   0.01310   0.01317  -3.07077
   D77       -1.17217   0.00347   0.00000   0.00000  -0.00001  -1.17218
   D78        3.06285   0.00013   0.00000  -0.01537  -0.01528   3.04757
   D79        1.01200  -0.00087   0.00000  -0.03458  -0.03485   0.97715
   D80        0.12473   0.00195   0.00000   0.01747   0.01719   0.14191
   D81       -3.00520  -0.00061   0.00000  -0.03174  -0.03148  -3.03668
         Item               Value     Threshold  Converged?
 Maximum Force            0.037561     0.000450     NO 
 RMS     Force            0.006946     0.000300     NO 
 Maximum Displacement     0.280082     0.001800     NO 
 RMS     Displacement     0.054402     0.001200     NO 
 Predicted change in Energy=-1.326370D-02
 GradGradGradGradGradGradGradGradGradGradGradGradGradGradGradGradGradGrad

                          Input orientation:                          
 ---------------------------------------------------------------------
 Center     Atomic      Atomic             Coordinates (Angstroms)
 Number     Number       Type             X           Y           Z
 ---------------------------------------------------------------------
      1          8           0       -3.479020   -1.428332   -0.214204
      2          7           0       -3.130021   -0.252875   -0.029706
      3          8           0       -3.887107    0.709266    0.170654
      4          6           0       -1.685875   -0.003174   -0.030888
      5          6           0       -1.321627    1.272727    0.265797
      6          7           0       -0.068412    1.749458    0.382068
      7          6           0        1.193235    1.004126    0.363444
      8          1           0        1.824631    1.515644    1.108762
      9          6           0        1.931368    1.050523   -0.970978
     10          6           0        3.331144    0.451837   -0.792335
     11          6           0        3.265421   -0.960712   -0.199955
     12          6           0        2.437478   -0.997483    1.084924
     13          6           0        1.029272   -0.442077    0.836579
     14          1           0        0.457972   -0.454382    1.778098
     15          7           0        0.393496   -1.322827   -0.137511
     16          6           0       -0.845117   -1.121057   -0.431345
     17          1           0       -2.113219    1.994460    0.453386
     18          1           0        0.060491    2.745680    0.236456
     19          1           0        1.367884    0.481874   -1.719144
     20          1           0        1.998533    2.089066   -1.322747
     21          1           0        3.848619    0.433483   -1.758217
     22          1           0        3.915237    1.101283   -0.125061
     23          1           0        2.805436   -1.638189   -0.927806
     24          1           0        4.276949   -1.334166    0.000331
     25          1           0        2.355666   -2.026462    1.452515
     26          1           0        2.927177   -0.404373    1.868898
     27          1           0       -1.328620   -1.850325   -1.084013
 ---------------------------------------------------------------------
                    Distance matrix (angstroms):
                    1          2          3          4          5
     1  O    0.000000
     2  N    1.239975   0.000000
     3  O    2.209972   1.240580   0.000000
     4  C    2.297836   1.465575   2.322415   0.000000
     5  C    3.490053   2.384340   2.628351   1.359641   0.000000
     6  N    4.699589   3.681352   3.963474   2.420421   1.345860
     7  C    5.299104   4.519421   5.092542   3.075618   2.531050
     8  H    6.208538   5.382597   5.844163   3.991148   3.266273
     9  C    5.999144   5.310603   5.939228   3.883103   3.487257
    10  C    7.088554   6.544072   7.286752   5.094832   4.841671
    11  C    6.760647   6.436746   7.354239   5.045868   5.123103
    12  C    6.072752   5.726596   6.614322   4.385856   4.467180
    13  C    4.733027   4.252760   5.093115   2.883948   2.965311
    14  H    4.518601   4.022743   4.776784   2.841144   2.904640
    15  N    3.874712   3.683965   4.748466   2.465084   3.137070
    16  C    2.660642   2.477063   3.600859   1.454958   2.538360
    17  H    3.745210   2.513520   2.208697   2.099450   1.087523
    18  H    5.491231   4.386519   4.442392   3.267640   2.020075
    19  H    5.422750   4.860577   5.589094   3.522914   3.434954
    20  H    6.603374   5.784351   6.226946   4.429586   3.770059
    21  H    7.716516   7.222206   7.977346   5.814203   5.615372
    22  H    7.815493   7.174852   7.817781   5.709742   5.254227
    23  H    6.328322   6.160790   7.176858   4.863086   5.189487
    24  H    7.759507   7.485539   8.417626   6.109646   6.181457
    25  H    6.097481   5.952761   6.935387   4.756914   5.080889
    26  H    6.813748   6.349591   7.110463   5.005037   4.840964
    27  H    2.357725   2.628394   3.830346   2.156077   3.402278
                    6          7          8          9         10
     6  N    0.000000
     7  C    1.465475   0.000000
     8  H    2.041167   1.102638   0.000000
     9  C    2.513635   1.525672   2.133787   0.000000
    10  C    3.823613   2.492289   2.648667   1.532877   0.000000
    11  C    4.335690   2.910663   3.149754   2.533622   1.533143
    12  C    3.784069   2.464775   2.586882   2.945711   2.534416
    13  C    2.492852   1.530439   2.130575   2.511751   2.958218
    14  H    2.661370   2.160811   2.489331   3.463099   3.960237
    15  N    3.149961   2.511026   3.414420   2.948306   3.493995
    16  C    3.082980   3.050077   4.056066   3.565927   4.477216
    17  H    2.060667   3.452751   4.020627   4.390730   5.794186
    18  H    1.015026   2.081405   2.320796   2.798505   4.125203
    19  H    2.843380   2.154165   3.045382   1.095732   2.171236
    20  H    2.700739   2.160750   2.504255   1.098555   2.176628
    21  H    4.653572   3.446468   3.672488   2.162484   1.095922
    22  H    4.067772   2.767196   2.462651   2.157287   1.099181
    23  H    4.631514   3.353856   3.880238   2.827549   2.159382
    24  H    5.341967   3.886998   3.919681   3.483093   2.170869
    25  H    4.612979   3.423709   3.598149   3.939694   3.483227
    26  H    3.977839   2.693848   2.340914   3.342642   2.824614
    27  H    4.086069   4.074651   5.106956   4.365229   5.205615
                   11         12         13         14         15
    11  C    0.000000
    12  C    1.528972   0.000000
    13  C    2.518680   1.534014   0.000000
    14  H    3.471431   2.166540   1.101360   0.000000
    15  N    2.895337   2.403759   1.459035   2.104261   0.000000
    16  C    4.120166   3.617979   2.362621   2.650308   1.288880
    17  H    6.171682   5.482647   3.994846   3.789817   4.199664
    18  H    4.919285   4.514559   3.385333   3.574221   4.099207
    19  H    2.826594   3.345942   2.738625   3.732991   2.589970
    20  H    3.488096   3.939079   3.465378   4.296243   3.952461
    21  H    2.170733   3.481729   3.930431   4.978988   4.201093
    22  H    2.163260   2.837720   3.411086   4.242027   4.275409
    23  H    1.095595   2.144057   2.774617   3.772785   2.557630
    24  H    1.096709   2.161793   3.470236   4.303378   3.885914
    25  H    2.166595   1.095725   2.156149   2.485696   2.621716
    26  H    2.168888   1.098271   2.160821   2.471380   3.359877
    27  H    4.762162   4.428897   3.351342   3.651335   2.034651
                   16         17         18         19         20
    16  C    0.000000
    17  H    3.478115   0.000000
    18  H    4.027126   2.310066   0.000000
    19  H    3.020793   4.373315   3.264731   0.000000
    20  H    4.380164   4.479967   2.572598   1.771416   0.000000
    21  H    5.119408   6.547621   4.865684   2.481514   2.520596
    22  H    5.262468   6.121654   4.206400   3.068188   2.466560
    23  H    3.720273   6.268732   5.301749   2.680940   3.833993
    24  H    5.144639   7.219367   5.871917   3.836307   4.319749
    25  H    3.822787   6.094014   5.433228   4.162558   4.976665
    26  H    4.476042   5.758790   4.561314   4.011343   4.155264
    27  H    1.091597   4.214447   4.979612   3.621281   5.161952
                   21         22         23         24         25
    21  H    0.000000
    22  H    1.765671   0.000000
    23  H    2.463664   3.062804   0.000000
    24  H    2.529929   2.465354   1.766131   0.000000
    25  H    4.311501   3.834553   2.453360   2.505881   0.000000
    26  H    3.834974   2.686845   3.059195   2.485547   1.769511
    27  H    5.698608   6.093408   4.142442   5.732768   4.476491
                   26         27
    26  H    0.000000
    27  H    5.377943   0.000000
 Symmetry turned off by external request.
 Stoichiometry    C9H13N3O2
 Framework group  C1[X(C9H13N3O2)]
 Deg. of freedom    75
 Full point group                 C1      NOp   1
 Rotational constants (GHZ):           1.6906227           0.4212367           0.3719788
 Standard basis: 6-31G(d) (6D, 7F)
   236 basis functions,   444 primitive gaussians,   236 cartesian basis functions
    52 alpha electrons       52 beta electrons
       nuclear repulsion energy       932.0953184677 Hartrees.
 NAtoms=   27 NActive=   27 NUniq=   27 SFac= 1.00D+00 NAtFMM=   60 NAOKFM=F Big=F
 Integral buffers will be    131072 words long.
 Raffenetti 1 integral format.
 Two-electron integral symmetry is turned off.
 One-electron integrals computed using PRISM.
 NBasis=   236 RedAO= T EigKep=  1.01D-03  NBF=   236
 NBsUse=   236 1.00D-06 EigRej= -1.00D+00 NBFU=   236
 Initial guess from the checkpoint file:  "/home/alexey/tmp/Gau-1375168.chk"
 B after Tr=     0.053770    0.005465   -0.000300
         Rot=    0.999998   -0.001186    0.000735    0.001184 Ang=  -0.21 deg.
 ExpMin= 1.61D-01 ExpMax= 5.48D+03 ExpMxC= 8.25D+02 IAcc=3 IRadAn=         5 AccDes= 0.00D+00
 Harris functional with IExCor=  205 and IRadAn=       5 diagonalized for initial guess.
 HarFok:  IExCor=  205 AccDes= 0.00D+00 IRadAn=         5 IDoV= 1 UseB2=F ITyADJ=14
 ICtDFT=  3500011 ScaDFX=  1.000000  1.000000  1.000000  1.000000
 FoFCou: FMM=F IPFlag=           0 FMFlag=      100000 FMFlg1=           0
         NFxFlg=           0 DoJE=T BraDBF=F KetDBF=T FulRan=T
         wScrn=  0.000000 ICntrl=       500 IOpCl=  0 I1Cent=   200000004 NGrid=           0
         NMat0=    1 NMatS0=      1 NMatT0=    0 NMatD0=    1 NMtDS0=    0 NMtDT0=    0
 Symmetry not used in FoFCou.
 Keep R1 ints in memory in canonical form, NReq=397720213.
 Requested convergence on RMS density matrix=1.00D-08 within 128 cycles.
 Requested convergence on MAX density matrix=1.00D-06.
 Requested convergence on             energy=1.00D-06.
 No special actions if energy rises.
 SCF Done:  E(RHF) =  -661.297901341     A.U. after   15 cycles
            NFock= 15  Conv=0.39D-08     -V/T= 2.0024
 ExpMin= 1.61D-01 ExpMax= 5.48D+03 ExpMxC= 8.25D+02 IAcc=3 IRadAn=         5 AccDes= 0.00D+00
 HarFok:  IExCor=  205 AccDes= 0.00D+00 IRadAn=         5 IDoV=-2 UseB2=F ITyADJ=14
 ICtDFT= 12500011 ScaDFX=  1.000000  1.000000  1.000000  1.000000
 Range of M.O.s used for correlation:    15   236
 NBasis=   236 NAE=    52 NBE=    52 NFC=    14 NFV=     0
 NROrb=    222 NOA=    38 NOB=    38 NVA=   184 NVB=   184
 Fully direct method using O(ONN) memory.
 JobTyp=1 Pass  1:  I=  15 to  52 NPSUse=  4 ParTrn=T ParDer=T DoDerP=T.
 Spin components of T(2) and E(2):
     alpha-alpha T2 =       0.9123838739D-01 E2=     -0.2723154203D+00
     alpha-beta  T2 =       0.4913218693D+00 E2=     -0.1488073868D+01
     beta-beta   T2 =       0.9123838739D-01 E2=     -0.2723154203D+00
 ANorm=    0.1293753703D+01
 E2 =    -0.2032704709D+01 EUMP2 =    -0.66333060604990D+03
          IDoAtm=111111111111111111111111111
          Differentiating once with respect to electric field.
                with respect to dipole field.
          Differentiating once with respect to nuclear coordinates.
 Keep R1 ints in memory in canonical form, NReq=397723379.
          There are     1 degrees of freedom in the 1st order CPHF.  IDoFFX=0 NUNeed=     1.
 LinEq1:  Iter=  0 NonCon=     1 RMS=4.57D-03 Max=1.05D-01 NDo=     1
 AX will form     1 AO Fock derivatives at one time.
 LinEq1:  Iter=  1 NonCon=     1 RMS=1.53D-03 Max=2.68D-02 NDo=     1
 LinEq1:  Iter=  2 NonCon=     1 RMS=6.41D-04 Max=1.78D-02 NDo=     1
 LinEq1:  Iter=  3 NonCon=     1 RMS=2.80D-04 Max=8.15D-03 NDo=     1
 LinEq1:  Iter=  4 NonCon=     1 RMS=8.70D-05 Max=1.93D-03 NDo=     1
 LinEq1:  Iter=  5 NonCon=     1 RMS=3.64D-05 Max=1.79D-03 NDo=     1
 LinEq1:  Iter=  6 NonCon=     1 RMS=1.41D-05 Max=5.36D-04 NDo=     1
[...]
    27  H    4.724115   4.418598   3.356651   3.656484   2.029362
                   16         17         18         19         20
    16  C    0.000000
    17  H    3.463929   0.000000
    18  H    4.088395   2.235907   0.000000
    19  H    2.990770   4.303395   3.511748   0.000000
    20  H    4.375247   4.449306   2.881832   1.768544   0.000000
    21  H    5.096650   6.511290   5.086417   2.499202   2.521040
    22  H    5.248820   6.100630   4.313244   3.070236   2.461469
    23  H    3.694999   6.235028   5.421151   2.704178   3.842912
    24  H    5.133839   7.200935   5.936703   3.849617   4.317133
    25  H    3.821447   6.088353   5.369801   4.171479   4.985068
    26  H    4.495251   5.781382   4.485418   4.036029   4.182360
    27  H    1.089675   4.215432   5.079536   3.583726   5.148314
                   21         22         23         24         25
    21  H    0.000000
    22  H    1.758865   0.000000
    23  H    2.469450   3.062292   0.000000
    24  H    2.517354   2.459922   1.764583   0.000000
    25  H    4.312004   3.839558   2.444063   2.519674   0.000000
    26  H    3.846757   2.704444   3.060426   2.491723   1.767997
    27  H    5.653271   6.060692   4.090518   5.694791   4.454219
                   26         27
    26  H    0.000000
    27  H    5.378475   0.000000
 Symmetry turned off by external request.
 Stoichiometry    C9H13N3O2
 Framework group  C1[X(C9H13N3O2)]
 Deg. of freedom    75
 Full point group                 C1      NOp   1
 Rotational constants (GHZ):           1.6800353           0.4193455           0.3721395

 **********************************************************************

            Population analysis using the SCF Density.

 **********************************************************************

 Alpha  occ. eigenvalues --  -20.59236 -20.58904 -15.84722 -15.64136 -15.56111
 Alpha  occ. eigenvalues --  -11.35018 -11.29622 -11.29559 -11.28628 -11.27134
 Alpha  occ. eigenvalues --  -11.23729 -11.23208 -11.22692 -11.22089  -1.57116
 Alpha  occ. eigenvalues --   -1.36709  -1.30977  -1.23064  -1.14703  -1.09818
 Alpha  occ. eigenvalues --   -1.02805  -1.01307  -0.94481  -0.89684  -0.85566
 Alpha  occ. eigenvalues --   -0.82448  -0.78609  -0.77411  -0.75202  -0.72020
 Alpha  occ. eigenvalues --   -0.69771  -0.69438  -0.67820  -0.64892  -0.63777
 Alpha  occ. eigenvalues --   -0.62368  -0.60282  -0.57700  -0.57001  -0.55077
 Alpha  occ. eigenvalues --   -0.54582  -0.50761  -0.50108  -0.48656  -0.48102
 Alpha  occ. eigenvalues --   -0.47372  -0.46146  -0.46044  -0.43678  -0.41696
 Alpha  occ. eigenvalues --   -0.39847  -0.33829
 Alpha virt. eigenvalues --    0.07465   0.11799   0.17307   0.21848   0.24113
 Alpha virt. eigenvalues --    0.25665   0.27134   0.28694   0.29044   0.29635
 Alpha virt. eigenvalues --    0.30683   0.31797   0.32036   0.32767   0.33950
 Alpha virt. eigenvalues --    0.34386   0.35850   0.37313   0.38581   0.40292
 Alpha virt. eigenvalues --    0.41386   0.42443   0.45025   0.46117   0.46730
 Alpha virt. eigenvalues --    0.47077   0.49000   0.53995   0.57579   0.59406
 Alpha virt. eigenvalues --    0.63913   0.69543   0.69908   0.72861   0.74243
 Alpha virt. eigenvalues --    0.74867   0.75781   0.76677   0.78660   0.79442
 Alpha virt. eigenvalues --    0.81386   0.84692   0.85718   0.85806   0.88530
 Alpha virt. eigenvalues --    0.89423   0.91052   0.92112   0.92853   0.94527
 Alpha virt. eigenvalues --    0.95643   0.98040   0.99639   1.01675   1.02472
 Alpha virt. eigenvalues --    1.03152   1.05873   1.06969   1.07902   1.09014
 Alpha virt. eigenvalues --    1.10284   1.11423   1.11855   1.12443   1.13916
 Alpha virt. eigenvalues --    1.14766   1.14990   1.15832   1.16903   1.18726
 Alpha virt. eigenvalues --    1.19136   1.21338   1.22577   1.23915   1.24538
 Alpha virt. eigenvalues --    1.24827   1.26040   1.26910   1.27485   1.29558
 Alpha virt. eigenvalues --    1.30007   1.33127   1.36070   1.37182   1.40861
 Alpha virt. eigenvalues --    1.41854   1.46494   1.48742   1.51697   1.54291
 Alpha virt. eigenvalues --    1.56374   1.58781   1.59555   1.63465   1.65627
 Alpha virt. eigenvalues --    1.68031   1.68628   1.72991   1.75226   1.77368
 Alpha virt. eigenvalues --    1.81578   1.84599   1.87682   1.90654   1.93494
 Alpha virt. eigenvalues --    1.95813   1.96956   1.99718   2.01571   2.02522
 Alpha virt. eigenvalues --    2.05103   2.05604   2.08496   2.09560   2.12395
 Alpha virt. eigenvalues --    2.13265   2.15297   2.18823   2.20013   2.22451
 Alpha virt. eigenvalues --    2.22636   2.24491   2.25492   2.28215   2.29549
 Alpha virt. eigenvalues --    2.31995   2.33724   2.34701   2.36399   2.38466
 Alpha virt. eigenvalues --    2.40483   2.41928   2.43865   2.45136   2.47364
 Alpha virt. eigenvalues --    2.50720   2.51947   2.53114   2.55572   2.61503
 Alpha virt. eigenvalues --    2.62310   2.65192   2.67626   2.70318   2.70496
 Alpha virt. eigenvalues --    2.72271   2.72648   2.76983   2.78441   2.83804
 Alpha virt. eigenvalues --    2.88565   2.88949   2.92944   2.93135   2.96057
 Alpha virt. eigenvalues --    2.99439   3.01343   3.04314   3.05724   3.07676
 Alpha virt. eigenvalues --    3.09414   3.15048   3.21211   3.25217   3.27458
 Alpha virt. eigenvalues --    3.33447   3.37783   3.38784   3.52162   3.65799
 Alpha virt. eigenvalues --    4.13675   4.28071   4.34718   4.38919   4.46295
 Alpha virt. eigenvalues --    4.56307   4.61872   4.62353   4.73465   4.79739
 Alpha virt. eigenvalues --    4.99415   5.00898   5.05023   5.11166
          Condensed to atoms (all electrons):
               1          2          3          4          5          6
     1  O    8.316124   0.306952  -0.082541  -0.085464   0.004639  -0.000016
     2  N    0.306952   5.722365   0.301243   0.264170  -0.053642   0.000970
     3  O   -0.082541   0.301243   8.353624  -0.092648   0.003637   0.000784
     4  C   -0.085464   0.264170  -0.092648   5.225607   0.560334  -0.047279
     5  C    0.004639  -0.053642   0.003637   0.560334   4.709990   0.317421
     6  N   -0.000016   0.000970   0.000784  -0.047279   0.317421   7.195592
     7  C    0.000004  -0.000140   0.000002   0.004629  -0.030204   0.169265
     8  H   -0.000000   0.000002  -0.000000  -0.000261   0.003095  -0.050673
     9  C   -0.000000  -0.000004  -0.000000   0.000855   0.000626  -0.061664
    10  C    0.000000   0.000000   0.000000  -0.000038  -0.000052   0.003748
    11  C   -0.000000  -0.000000  -0.000000  -0.000028   0.000025  -0.000190
    12  C   -0.000000   0.000002  -0.000000  -0.000127  -0.000176   0.003873
    13  C   -0.000025  -0.000039  -0.000004  -0.011557  -0.000584  -0.047692
    14  H   -0.000004  -0.000105   0.000001   0.002645   0.006077  -0.006958
    15  N    0.000382   0.002362  -0.000016  -0.063524  -0.006397   0.001597
    16  C    0.000833  -0.027270   0.002547   0.328492  -0.050328  -0.001855
    17  H    0.000220  -0.007232   0.017393  -0.023152   0.374512  -0.034179
    18  H    0.000001  -0.000050   0.000012   0.001506  -0.031445   0.338677
    19  H    0.000001  -0.000004   0.000000  -0.001226   0.001233  -0.000352
    20  H    0.000000  -0.000000   0.000000  -0.000079   0.000153  -0.000429
    21  H   -0.000000   0.000000   0.000000   0.000001   0.000001  -0.000077
    22  H   -0.000000   0.000000  -0.000000  -0.000000  -0.000003  -0.000117
    23  H    0.000000  -0.000000   0.000000   0.000041  -0.000000  -0.000031
    24  H    0.000000   0.000000   0.000000   0.000000  -0.000000   0.000006
    25  H    0.000000  -0.000000   0.000000   0.000024   0.000000  -0.000090
    26  H    0.000000  -0.000000   0.000000   0.000006  -0.000002  -0.000060
    27  H    0.006130  -0.000881   0.000018  -0.063388   0.002214   0.000017
               7          8          9         10         11         12
     1  O    0.000004  -0.000000  -0.000000   0.000000  -0.000000  -0.000000
     2  N   -0.000140   0.000002  -0.000004   0.000000  -0.000000   0.000002
     3  O    0.000002  -0.000000  -0.000000   0.000000  -0.000000  -0.000000
     4  C    0.004629  -0.000261   0.000855  -0.000038  -0.000028  -0.000127
     5  C   -0.030204   0.003095   0.000626  -0.000052   0.000025  -0.000176
     6  N    0.169265  -0.050673  -0.061664   0.003748  -0.000190   0.003873
     7  C    5.017570   0.418411   0.350536  -0.054673  -0.009029  -0.061068
     8  H    0.418411   0.538084  -0.055041   0.000777  -0.000325  -0.002230
     9  C    0.350536  -0.055041   5.158242   0.324773  -0.050416  -0.005342
    10  C   -0.054673   0.000777   0.324773   5.119304   0.337001  -0.060989
    11  C   -0.009029  -0.000325  -0.050416   0.337001   5.119930   0.335973
    12  C   -0.061068  -0.002230  -0.005342  -0.060989   0.335973   5.118629
    13  C    0.338593  -0.037934  -0.060241  -0.000285  -0.050691   0.371993
    14  H   -0.046592  -0.000745   0.004422  -0.000405   0.004195  -0.036321
    15  N   -0.057958   0.003900  -0.014616   0.001561  -0.013057  -0.082066
    16  C   -0.001775   0.000009  -0.001271  -0.000029   0.000029   0.002609
    17  H    0.001616  -0.000045  -0.000070   0.000001   0.000000   0.000000
    18  H   -0.021215  -0.004472   0.001327  -0.000083   0.000004  -0.000114
    19  H   -0.036859   0.004362   0.390222  -0.032069  -0.002212   0.000689
    20  H   -0.042414  -0.002077   0.399486  -0.035300   0.003931  -0.000415
    21  H    0.004599  -0.000076  -0.036357   0.402433  -0.034895   0.004348
    22  H   -0.004848   0.003559  -0.046955   0.397752  -0.045402  -0.001021
    23  H    0.000577   0.000035  -0.001958  -0.039019   0.399179  -0.037866
    24  H   -0.000130  -0.000102   0.004388  -0.038436   0.402340  -0.038691
    25  H    0.005152  -0.000025  -0.000423   0.004190  -0.033400   0.398273
    26  H   -0.003905   0.001686   0.000968  -0.002232  -0.041481   0.396726
    27  H   -0.000407   0.000009  -0.000058   0.000007   0.000012  -0.000036
              13         14         15         16         17         18
     1  O   -0.000025  -0.000004   0.000382   0.000833   0.000220   0.000001
     2  N   -0.000039  -0.000105   0.002362  -0.027270  -0.007232  -0.000050
     3  O   -0.000004   0.000001  -0.000016   0.002547   0.017393   0.000012
     4  C   -0.011557   0.002645  -0.063524   0.328492  -0.023152   0.001506
     5  C   -0.000584   0.006077  -0.006397  -0.050328   0.374512  -0.031445
     6  N   -0.047692  -0.006958   0.001597  -0.001855  -0.034179   0.338677
     7  C    0.338593  -0.046592  -0.057958  -0.001775   0.001616  -0.021215
     8  H   -0.037934  -0.000745   0.003900   0.000009  -0.000045  -0.004472
     9  C   -0.060241   0.004422  -0.014616  -0.001271  -0.000070   0.001327
    10  C   -0.000285  -0.000405   0.001561  -0.000029   0.000001  -0.000083
    11  C   -0.050691   0.004195  -0.013057   0.000029   0.000000   0.000004
    12  C    0.371993  -0.036321  -0.082066   0.002609   0.000000  -0.000114
    13  C    5.040242   0.403081   0.244785  -0.071084  -0.000008   0.002971
    14  H    0.403081   0.526768  -0.037365  -0.004543   0.000093  -0.000108
    15  N    0.244785  -0.037365   6.965140   0.585183  -0.000080  -0.000132
    16  C   -0.071084  -0.004543   0.585183   4.709976   0.002012  -0.000197
    17  H   -0.000008   0.000093  -0.000080   0.002012   0.376489  -0.002817
    18  H    0.002971  -0.000108  -0.000132  -0.000197  -0.002817   0.310601
    19  H   -0.007548   0.000106   0.007696   0.003002   0.000016  -0.000149
    20  H    0.004340  -0.000066   0.000126  -0.000036   0.000002   0.000807
    21  H   -0.000433   0.000010  -0.000041   0.000004  -0.000000   0.000001
    22  H    0.000045  -0.000055   0.000019  -0.000002   0.000000   0.000001
    23  H   -0.007523   0.000003   0.008590   0.000106   0.000000   0.000000
    24  H    0.004700  -0.000057   0.000135   0.000007   0.000000  -0.000000
    25  H   -0.035561  -0.002817   0.000410  -0.000022  -0.000000   0.000002
    26  H   -0.047409  -0.001046   0.004899  -0.000061   0.000000  -0.000000
    27  H    0.005059  -0.000174  -0.040317   0.403665  -0.000079   0.000001
              19         20         21         22         23         24
     1  O    0.000001   0.000000  -0.000000  -0.000000   0.000000   0.000000
     2  N   -0.000004  -0.000000   0.000000   0.000000  -0.000000   0.000000
     3  O    0.000000   0.000000   0.000000  -0.000000   0.000000   0.000000
     4  C   -0.001226  -0.000079   0.000001  -0.000000   0.000041   0.000000
     5  C    0.001233   0.000153   0.000001  -0.000003  -0.000000  -0.000000
     6  N   -0.000352  -0.000429  -0.000077  -0.000117  -0.000031   0.000006
     7  C   -0.036859  -0.042414   0.004599  -0.004848   0.000577  -0.000130
     8  H    0.004362  -0.002077  -0.000076   0.003559   0.000035  -0.000102
     9  C    0.390222   0.399486  -0.036357  -0.046955  -0.001958   0.004388
    10  C   -0.032069  -0.035300   0.402433   0.397752  -0.039019  -0.038436
    11  C   -0.002212   0.003931  -0.034895  -0.045402   0.399179   0.402340
    12  C    0.000689  -0.000415   0.004348  -0.001021  -0.037866  -0.038691
    13  C   -0.007548   0.004340  -0.000433   0.000045  -0.007523   0.004700
    14  H    0.000106  -0.000066   0.000010  -0.000055   0.000003  -0.000057
    15  N    0.007696   0.000126  -0.000041   0.000019   0.008590   0.000135
    16  C    0.003002  -0.000036   0.000004  -0.000002   0.000106   0.000007
    17  H    0.000016   0.000002  -0.000000   0.000000   0.000000   0.000000
    18  H   -0.000149   0.000807   0.000001   0.000001   0.000000  -0.000000
    19  H    0.504951  -0.024737  -0.002787   0.003959   0.001514  -0.000066
    20  H   -0.024737   0.541157  -0.002692  -0.002990  -0.000045  -0.000083
    21  H   -0.002787  -0.002692   0.524026  -0.027403  -0.002898  -0.002242
    22  H    0.003959  -0.002990  -0.027403   0.571320   0.004137  -0.003656
    23  H    0.001514  -0.000045  -0.002898   0.004137   0.498960  -0.025450
    24  H   -0.000066  -0.000083  -0.002242  -0.003656  -0.025450   0.538124
    25  H   -0.000029   0.000012  -0.000087  -0.000080  -0.002318  -0.002291
    26  H    0.000019  -0.000030  -0.000081   0.002380   0.004067  -0.003035
    27  H    0.000083   0.000000  -0.000000   0.000000  -0.000035  -0.000000
              25         26         27
     1  O    0.000000   0.000000   0.006130
     2  N   -0.000000  -0.000000  -0.000881
     3  O    0.000000   0.000000   0.000018
     4  C    0.000024   0.000006  -0.063388
     5  C    0.000000  -0.000002   0.002214
     6  N   -0.000090  -0.000060   0.000017
     7  C    0.005152  -0.003905  -0.000407
     8  H   -0.000025   0.001686   0.000009
     9  C   -0.000423   0.000968  -0.000058
    10  C    0.004190  -0.002232   0.000007
    11  C   -0.033400  -0.041481   0.000012
    12  C    0.398273   0.396726  -0.000036
    13  C   -0.035561  -0.047409   0.005059
    14  H   -0.002817  -0.001046  -0.000174
    15  N    0.000410   0.004899  -0.040317
    16  C   -0.000022  -0.000061   0.403665
    17  H   -0.000000   0.000000  -0.000079
    18  H    0.000002  -0.000000   0.000001
    19  H   -0.000029   0.000019   0.000083
    20  H    0.000012  -0.000030   0.000000
    21  H   -0.000087  -0.000081  -0.000000
    22  H   -0.000080   0.002380   0.000000
    23  H   -0.002318   0.004067  -0.000035
    24  H   -0.002291  -0.003035  -0.000000
    25  H    0.506110  -0.024080  -0.000013
    26  H   -0.024080   0.562323   0.000001
    27  H   -0.000013   0.000001   0.439247
 Mulliken charges:
               1
     1  O   -0.467237
     2  N    0.491300
     3  O   -0.504053
     4  C    0.000462
     5  C    0.188875
     6  N   -0.780289
     7  C    0.060262
     8  H    0.180079
     9  C   -0.301429
    10  C   -0.327937
    11  C   -0.321491
    12  C   -0.306653
    13  C   -0.037189
    14  H    0.189960
    15  N   -0.511220
    16  C    0.119999
    17  H    0.295306
    18  H    0.404872
    19  H    0.190186
    20  H    0.161380
    21  H    0.174646
    22  H    0.149361
    23  H    0.199937
    24  H    0.164540
    25  H    0.187063
    26  H    0.150345
    27  H    0.248926
 Sum of Mulliken charges =  -0.00000
 Mulliken charges with hydrogens summed into heavy atoms:
               1
     1  O   -0.467237
     2  N    0.491300
     3  O   -0.504053
     4  C    0.000462
     5  C    0.484181
     6  N   -0.375417
     7  C    0.240341
     9  C    0.050137
    10  C   -0.003930
    11  C    0.042985
    12  C    0.030755
    13  C    0.152771
    15  N   -0.511220
    16  C    0.368924
 Electronic spatial extent (au):  <R**2>=           3005.3448
 Charge=              0.0000 electrons
 Dipole moment (field-independent basis, Debye):
    X=              5.4155    Y=              4.7961    Z=              1.2813  Tot=              7.3466
 Quadrupole moment (field-independent basis, Debye-Ang):
   XX=           -106.1397   YY=            -79.2242   ZZ=            -81.5019
   XY=             -1.7661   XZ=             -0.1323   YZ=              1.8553
 Traceless Quadrupole moment (field-independent basis, Debye-Ang):
   XX=            -17.1844   YY=              9.7310   ZZ=              7.4534
   XY=             -1.7661   XZ=             -0.1323   YZ=              1.8553
 Octapole moment (field-independent basis, Debye-Ang**2):
  XXX=             92.3920  YYY=             36.2778  ZZZ=             -1.4779  XYY=             -4.5803
  XXY=              9.5319  XXZ=              4.9303  XZZ=             -9.7600  YZZ=             -0.3928
  YYZ=              7.9985  XYZ=              0.2534
 Hexadecapole moment (field-independent basis, Debye-Ang**3):
 XXXX=          -3382.0454 YYYY=           -601.0603 ZZZZ=           -303.7994 XXXY=            -20.9053
 XXXZ=            -13.5261 YYYX=             -8.9619 YYYZ=             24.9971 ZZZX=              1.8380
 ZZZY=              7.0771 XXYY=           -627.7644 XXZZ=           -523.8025 YYZZ=           -157.3280
 XXYZ=             -4.2938 YYXZ=              1.6725 ZZXY=              4.6912
 N-N= 9.312341097787D+02 E-N=-3.409184583770D+03  KE= 6.596287760338D+02
 Unable to Open any file for archive entry.
 1\1\GINC-LOTUS\FOpt\RMP2-FC\6-31G(d)\C9H13N3O2\ALEXEY\01-Jul-2023\0\\#
 MP2/6-31G* SCF=Tight Opt=(ModRedun, MaxCycle=20 ) NoSymm\\MolName:\\0,
 1\O,-3.5067265506,-1.3904071438,-0.3711707515\N,-3.1210828679,-0.23227
 68465,-0.1185757284\O,-3.8954321526,0.7286693705,0.0556752604\C,-1.686
 6109792,-0.0237693765,-0.0097865657\C,-1.3014046767,1.2607019208,0.275
 2359933\N,-0.0571679033,1.7502059363,0.3863418123\C,1.2056402959,1.024
 006938,0.3593587158\H,1.8533579494,1.5529014868,1.0748267422\C,1.90915
 72463,1.0351408357,-0.9964588919\C,3.3075182791,0.4284605437,-0.832411
 8258\C,3.259481479,-0.9676699485,-0.205888858\C,2.4644815879,-0.978332
 3247,1.1015662009\C,1.0547576555,-0.4246003471,0.8651185865\H,0.478206
 0416,-0.4033331459,1.8035339295\N,0.4082670265,-1.3179375382,-0.091154
 4811\C,-0.8390792703,-1.1381037901,-0.3865567438\H,-2.0962150372,1.987
 5659545,0.4188020147\H,0.001726497,2.7353925058,0.6154631609\H,1.31489
 14379,0.4577024092,-1.7126470964\H,1.9751361365,2.0630849722,-1.374163
 2775\H,3.8114815339,0.3903909193,-1.8049446889\H,3.9073184474,1.094732
 5299,-0.1961171996\H,2.7817729889,-1.664402366,-0.9017780778\H,4.27863
 36889,-1.3312375075,-0.0287590862\H,2.379003206,-2.0002815844,1.485355
 1629\H,2.9744412832,-0.380531167,1.8696409819\H,-1.300563343,-1.893083
 2368,-1.0225052886\\Version=ES64L-G16RevC.02\HF=-661.3003578\MP2=-663.
 3346494\RMSD=7.714e-09\RMSF=8.907e-06\Dipole=1.9791246,1.6918791,0.471
 2586\PG=C01 [X(C9H13N3O2)]\\@
 The archive entry for this job was punched.


 There are more things in heaven and earth, Horatio,
 than are dreamt of in your philosophy.
                   -- Hamlet, Act I, Scene 5
 Job cpu time:       0 days  1 hours 14 minutes 17.4 seconds.
 Elapsed time:       0 days  0 hours 22 minutes  1.0 seconds.
 File lengths (MBytes):  RWF=     36 Int=      0 D2E=      0 Chk=      7 Scr=      1
 Normal termination of Gaussian 16 at Sat Jul  1 19:54:06 2023.
