 Entering Gaussian System, Link 0=g16
 Initial command:
 /home/alexey/programs//g16/l1.exe "/home/alexey/tmp/Gau-1377763.inp" -scrdir="/home/alexey/tmp/"
 Entering Link 1 = /home/alexey/programs//g16/l1.exe PID=   1377765.
  
 Copyright (c) 1988-2021, Gaussian, Inc.  All Rights Reserved.
  
 This is part of the Gaussian(R) 16 program.  It is based on
 the Gaussian(R) 09 system (copyright 2009, Gaussian, Inc.),
 the Gaussian(R) 03 system (copyright 2003, Gaussian, Inc.),
 the Gaussian(R) 98 system (copyright 1998, Gaussian, Inc.),
 the Gaussian(R) 94 system (copyright 1995, Gaussian, Inc.),
 the Gaussian 92(TM) system (copyright 1992, Gaussian, Inc.),
 the Gaussian 90(TM) system (copyright 1990, Gaussian, Inc.),
 the Gaussian 88(TM) system (copyright 1988, Gaussian, Inc.),
 the Gaussian 86(TM) system (copyright 1986, Carnegie Mellon
 University), and the Gaussian 82(TM) system (copyright 1983,
 Carnegie Mellon University). Gaussian is a federally registered
 trademark of Gaussian, Inc.
  
 This software contains proprietary and confidential information,
 including trade secrets, belonging to Gaussian, Inc.
  
 This software is provided under written license and may be
 used, copied, transmitted, or stored only in accord with that
 written license.
  
 The following legend is applicable only to US Government
 contracts under FAR:
  
                    RESTRICTED RIGHTS LEGEND
  
 Use, reproduction and disclosure by the US Government is
 subject to restrictions as set forth in subparagraphs (a)
 and (c) of the Commercial Computer Software - Restricted
 Rights clause in FAR 52.227-19.
  
 Gaussian, Inc.
 340 Quinnipiac St., Bldg. 40, Wallingford CT 06492
  
  
 ---------------------------------------------------------------
 Warning -- This program may not be used in any manner that
 competes with the business of Gaussian, Inc. or will provide
 assistance to any competitor of Gaussian, Inc.  The licensee
 of this program is prohibited from giving any competitor of
 Gaussian, Inc. access to this program.  By using this program,
 the user acknowledges that Gaussian, Inc. is engaged in the
 business of creating and licensing software in the field of
 computational chemistry and represents and warrants to the
 licensee that it is not a competitor of Gaussian, Inc. and that
 it will not use this program in any manner prohibited above.
 ---------------------------------------------------------------
  

 Cite this work as:
 Gaussian 16, Revision C.02,
 M. J. Frisch, G. W. Trucks, H. B. Schlegel, G. E. Scuseria, 
 M. A. Robb, J. R. Cheeseman, G. Scalmani, V. Barone, 
 G. A. Petersson, H. Nakatsuji, X. Li, M. Caricato, A. V. Marenich, 
 J. Bloino, B. G. Janesko, R. Gomperts, B. Mennucci, H. P. Hratchian, 
 J. V. Ortiz, A. F. Izmaylov, J. L. Sonnenberg, D. Williams-Young, 
 F. Ding, F. Lipparini, F. Egidi, J. Goings, B. Peng, A. Petrone, 
 T. Henderson, D. Ranasinghe, V. G. Zakrzewski, J. Gao, N. Rega, 
 G. Zheng, W. Liang, M. Hada, M. Ehara, K. Toyota, R. Fukuda, 
 J. Hasegawa, M. Ishida, T. Nakajima, Y. Honda, O. Kitao, H. Nakai, 
 T. Vreven, K. Throssell, J. A. Montgomery, Jr., J. E. Peralta, 
 F. Ogliaro, M. J. Bearpark, J. J. Heyd, E. N. Brothers, K. N. Kudin, 
 V. N. Staroverov, T. A. Keith, R. Kobayashi, J. Normand, 
 K. Raghavachari, A. P. Rendell, J. C. Burant, S. S. Iyengar, 
 J. Tomasi, M. Cossi, J. M. Millam, M. Klene, C. Adamo, R. Cammi, 
 J. W. Ochterski, R. L. Martin, K. Morokuma, O. Farkas, 
 J. B. Foresman, and D. J. Fox, Gaussian, Inc., Wallingford CT, 2019.
 
 ******************************************
 Gaussian 16:  ES64L-G16RevC.02  7-Dec-2021
                 1-Jul-2023 
 ******************************************
 %mem=8GB
 %NPROCS=4
 Will use up to    4 processors via shared memory.
 %NoSave
 ---------------------------------------------------------
 #MP2/6-31G* SCF=Tight Opt=(ModRedun, MaxCycle=20 ) NoSymm
 ---------------------------------------------------------
 1/6=20,18=120,19=15,38=1/1,3;
 2/9=110,12=2,15=1,17=6,18=5,40=1/2;
 3/5=1,6=6,7=1,11=9,25=1,30=1,71=1/1,2,3;
 4//1;
 5/5=2,32=2,38=5/2;
 8/6=4,10=2/1;
 9/15=2,16=-3/6;
 10/5=1,31=1/2;
 6/7=2,8=2,9=2,10=2/1;
 7/12=2,30=1/1,2,3,16;
 1/6=20,18=20,19=15/3(2);
 2/9=110,15=1/2;
 99//99;
 2/9=110,15=1/2;
 3/5=1,6=6,7=1,11=9,25=1,30=1,71=1/1,2,3;
 4/5=5,16=3,69=1/1;
 5/5=2,32=2,38=5/2;
 8/6=4,10=2/1;
 9/15=2,16=-3/6;
 10/5=1,31=1/2;
 7/12=2,30=1/1,2,3,16;
 1/6=20,18=20,19=15/3(-8);
 2/9=110,15=1/2;
 6/7=2,8=2,9=2,10=2/1;
 99/9=10/99;
 --------
 MolName:
 --------
 Symbolic Z-matrix:
 Charge =  0 Multiplicity = 1
 8                    0    -3.62693  -1.43587  -0.21855 
 7                    0    -3.26615  -0.27169  -0.05474 
 8                    0    -4.04542   0.67143   0.08718 
 6                    0    -1.76511   0.01065  -0.04466 
 6                    0    -1.37951   1.31954   0.26823 
 7                    0    -0.08463   1.73655   0.41377 
 6                    0     1.20719   0.99628   0.36803 
 1                    0     1.87252   1.49918   1.11656 
 6                    0     1.95858   1.04632  -0.985 
 6                    0     3.37161   0.45961  -0.80432 
 6                    0     3.31242  -0.95542  -0.20676 
 6                    0     2.47287  -0.9872    1.08901 
 6                    0     1.03455  -0.45099   0.85094 
 1                    0     0.48996  -0.48972   1.82332 
 7                    0     0.37273  -1.3214   -0.12571 
 6                    0    -0.87111  -1.12009  -0.42339 
 1                    0    -2.16211   2.07067   0.46623 
 1                    0     0.15084   2.72492   0.29585 
 1                    0     1.40317   0.46844  -1.75401 
 1                    0     2.04113   2.09602  -1.33839 
 1                    0     3.89951   0.43336  -1.78266 
 1                    0     3.9539    1.11427  -0.11806 
 1                    0     2.85993  -1.64565  -0.95413 
 1                    0     4.3416   -1.31956   0.0039 
 1                    0     2.41634  -2.0331    1.46261 
 1                    0     2.9725   -0.37547   1.86911 
 1                    0    -1.37036  -1.87707  -1.04736 
 
 The following ModRedundant input section has been read:
 A       5       6       7 F                                                   
 D       1       2       4      16 F                                           
 D       7      13      15      16 F                                           
 D       7       9      10      11 F                                           
 D       9      10      11      12 F                                           
 D       6       7      13      15 F                                           
 

 GradGradGradGradGradGradGradGradGradGradGradGradGradGradGradGradGradGrad
 Berny optimization.
 Initialization pass.
                           ----------------------------
                           !    Initial Parameters    !
                           ! (Angstroms and Degrees)  !
 --------------------------                            --------------------------
 ! Name  Definition              Value          Derivative Info.                !
 --------------------------------------------------------------------------------
 ! R1    R(1,2)                  1.2298         estimate D2E/DX2                !
 ! R2    R(2,3)                  1.2316         estimate D2E/DX2                !
 ! R3    R(2,4)                  1.5274         estimate D2E/DX2                !
 ! R4    R(4,5)                  1.3999         estimate D2E/DX2                !
 ! R5    R(4,16)                 1.4904         estimate D2E/DX2                !
 ! R6    R(5,6)                  1.3681         estimate D2E/DX2                !
 ! R7    R(5,17)                 1.1027         estimate D2E/DX2                !
 ! R8    R(6,7)                  1.4896         estimate D2E/DX2                !
 ! R9    R(6,18)                 1.0229         estimate D2E/DX2                !
 ! R10   R(7,8)                  1.1207         estimate D2E/DX2                !
 ! R11   R(7,9)                  1.5485         estimate D2E/DX2                !
 ! R12   R(7,13)                 1.5354         estimate D2E/DX2                !
 ! R13   R(9,10)                 1.5406         estimate D2E/DX2                !
 ! R14   R(9,19)                 1.1108         estimate D2E/DX2                !
 ! R15   R(9,20)                 1.1107         estimate D2E/DX2                !
 ! R16   R(10,11)                1.5372         estimate D2E/DX2                !
 ! R17   R(10,21)                1.112          estimate D2E/DX2                !
 ! R18   R(10,22)                1.1129         estimate D2E/DX2                !
 ! R19   R(11,12)                1.5443         estimate D2E/DX2                !
 ! R20   R(11,23)                1.1134         estimate D2E/DX2                !
 ! R21   R(11,24)                1.1118         estimate D2E/DX2                !
 ! R22   R(12,13)                1.5534         estimate D2E/DX2                !
 ! R23   R(12,25)                1.1121         estimate D2E/DX2                !
 ! R24   R(12,26)                1.1101         estimate D2E/DX2                !
 ! R25   R(13,14)                1.1152         estimate D2E/DX2                !
 ! R26   R(13,15)                1.4661         estimate D2E/DX2                !
 ! R27   R(15,16)                1.2947         estimate D2E/DX2                !
 ! R28   R(16,27)                1.1007         estimate D2E/DX2                !
 ! A1    A(1,2,3)              123.6864         estimate D2E/DX2                !
 ! A2    A(1,2,4)              117.6574         estimate D2E/DX2                !
 ! A3    A(3,2,4)              118.6522         estimate D2E/DX2                !
 ! A4    A(2,4,5)              116.4231         estimate D2E/DX2                !
 ! A5    A(2,4,16)             116.5881         estimate D2E/DX2                !
 ! A6    A(5,4,16)             126.9364         estimate D2E/DX2                !
 ! A7    A(4,5,6)              124.7121         estimate D2E/DX2                !
 ! A8    A(4,5,17)             118.7862         estimate D2E/DX2                !
 ! A9    A(6,5,17)             116.4235         estimate D2E/DX2                !
 ! A10   A(5,6,7)              131.7632         Frozen                          !
 ! A11   A(5,6,18)             120.0096         estimate D2E/DX2                !
 ! A12   A(7,6,18)             106.0826         estimate D2E/DX2                !
 ! A13   A(6,7,8)              105.7445         estimate D2E/DX2                !
 ! A14   A(6,7,9)              115.5685         estimate D2E/DX2                !
 ! A15   A(6,7,13)             111.1774         estimate D2E/DX2                !
 ! A16   A(8,7,9)              106.3224         estimate D2E/DX2                !
 ! A17   A(8,7,13)             106.2402         estimate D2E/DX2                !
 ! A18   A(9,7,13)             111.0897         estimate D2E/DX2                !
 ! A19   A(7,9,10)             109.2855         estimate D2E/DX2                !
 ! A20   A(7,9,19)             110.2119         estimate D2E/DX2                !
 ! A21   A(7,9,20)             110.159          estimate D2E/DX2                !
 ! A22   A(10,9,19)            109.9792         estimate D2E/DX2                !
 ! A23   A(10,9,20)            109.2123         estimate D2E/DX2                !
 ! A24   A(19,9,20)            107.9736         estimate D2E/DX2                !
 ! A25   A(9,10,11)            111.1518         estimate D2E/DX2                !
 ! A26   A(9,10,21)            109.9516         estimate D2E/DX2                !
 ! A27   A(9,10,22)            109.1582         estimate D2E/DX2                !
 ! A28   A(11,10,21)           109.7896         estimate D2E/DX2                !
 ! A29   A(11,10,22)           108.7799         estimate D2E/DX2                !
 ! A30   A(21,10,22)           107.9398         estimate D2E/DX2                !
 ! A31   A(10,11,12)           111.4725         estimate D2E/DX2                !
 ! A32   A(10,11,23)           108.988          estimate D2E/DX2                !
 ! A33   A(10,11,24)           109.8464         estimate D2E/DX2                !
 ! A34   A(12,11,23)           109.2395         estimate D2E/DX2                !
 ! A35   A(12,11,24)           109.7252         estimate D2E/DX2                !
 ! A36   A(23,11,24)           107.4774         estimate D2E/DX2                !
 ! A37   A(11,12,13)           111.5725         estimate D2E/DX2                !
 ! A38   A(11,12,25)           109.2006         estimate D2E/DX2                !
 ! A39   A(11,12,26)           109.4876         estimate D2E/DX2                !
 ! A40   A(13,12,25)           109.2126         estimate D2E/DX2                !
 ! A41   A(13,12,26)           109.5246         estimate D2E/DX2                !
 ! A42   A(25,12,26)           107.7617         estimate D2E/DX2                !
 ! A43   A(7,13,12)            105.6322         estimate D2E/DX2                !
 ! A44   A(7,13,14)            111.2158         estimate D2E/DX2                !
 ! A45   A(7,13,15)            113.6307         estimate D2E/DX2                !
 ! A46   A(12,13,14)           107.8516         estimate D2E/DX2                !
 ! A47   A(12,13,15)           108.3692         estimate D2E/DX2                !
 ! A48   A(14,13,15)           109.8642         estimate D2E/DX2                !
 ! A49   A(13,15,16)           119.6387         estimate D2E/DX2                !
 ! A50   A(4,16,15)            129.4805         estimate D2E/DX2                !
 ! A51   A(4,16,27)            113.1874         estimate D2E/DX2                !
 ! A52   A(15,16,27)           117.3321         estimate D2E/DX2                !
 ! D1    D(1,2,4,5)           -174.1903         estimate D2E/DX2                !
 ! D2    D(1,2,4,16)             8.2577         Frozen                          !
 ! D3    D(3,2,4,5)              6.505          estimate D2E/DX2                !
 ! D4    D(3,2,4,16)          -171.047          estimate D2E/DX2                !
 ! D5    D(2,4,5,6)            175.3877         estimate D2E/DX2                !
 ! D6    D(2,4,5,17)            -1.2762         estimate D2E/DX2                !
 ! D7    D(16,4,5,6)            -7.3513         estimate D2E/DX2                !
 ! D8    D(16,4,5,17)          175.9848         estimate D2E/DX2                !
 ! D9    D(2,4,16,15)         -156.3676         estimate D2E/DX2                !
 ! D10   D(2,4,16,27)           23.6754         estimate D2E/DX2                !
 ! D11   D(5,4,16,15)           26.3753         estimate D2E/DX2                !
 ! D12   D(5,4,16,27)         -153.5817         estimate D2E/DX2                !
 ! D13   D(4,5,6,7)             -3.6276         estimate D2E/DX2                !
 ! D14   D(4,5,6,18)           157.2172         estimate D2E/DX2                !
 ! D15   D(17,5,6,7)           173.1075         estimate D2E/DX2                !
 ! D16   D(17,5,6,18)          -26.0477         estimate D2E/DX2                !
 ! D17   D(5,6,7,8)           -145.1292         estimate D2E/DX2                !
 ! D18   D(5,6,7,9)             97.5751         estimate D2E/DX2                !
 ! D19   D(5,6,7,13)           -30.2419         estimate D2E/DX2                !
 ! D20   D(18,6,7,8)            52.0711         estimate D2E/DX2                !
 ! D21   D(18,6,7,9)           -65.2246         estimate D2E/DX2                !
 ! D22   D(18,6,7,13)          166.9584         estimate D2E/DX2                !
 ! D23   D(6,7,9,10)           170.0005         estimate D2E/DX2                !
 ! D24   D(6,7,9,19)           -69.0307         estimate D2E/DX2                !
 ! D25   D(6,7,9,20)            50.011          estimate D2E/DX2                !
 ! D26   D(8,7,9,10)            53.0289         estimate D2E/DX2                !
 ! D27   D(8,7,9,19)           173.9977         estimate D2E/DX2                !
 ! D28   D(8,7,9,20)           -66.9606         estimate D2E/DX2                !
 ! D29   D(13,7,9,10)          -62.1389         estimate D2E/DX2                !
 ! D30   D(13,7,9,19)           58.8299         estimate D2E/DX2                !
 ! D31   D(13,7,9,20)          177.8716         estimate D2E/DX2                !
 ! D32   D(6,7,13,12)         -166.3178         estimate D2E/DX2                !
 ! D33   D(6,7,13,14)          -49.5683         estimate D2E/DX2                !
 ! D34   D(6,7,13,15)           75.0218         Frozen                          !
 ! D35   D(8,7,13,12)          -51.7389         estimate D2E/DX2                !
 ! D36   D(8,7,13,14)           65.0106         estimate D2E/DX2                !
 ! D37   D(8,7,13,15)         -170.3994         estimate D2E/DX2                !
 ! D38   D(9,7,13,12)           63.4799         estimate D2E/DX2                !
 ! D39   D(9,7,13,14)         -179.7706         estimate D2E/DX2                !
 ! D40   D(9,7,13,15)          -55.1806         estimate D2E/DX2                !
 ! D41   D(7,9,10,11)           54.8117         Frozen                          !
 ! D42   D(7,9,10,21)          176.5915         estimate D2E/DX2                !
 ! D43   D(7,9,10,22)          -65.1782         estimate D2E/DX2                !
 ! D44   D(19,9,10,11)         -66.2986         estimate D2E/DX2                !
 ! D45   D(19,9,10,21)          55.4813         estimate D2E/DX2                !
 ! D46   D(19,9,10,22)         173.7115         estimate D2E/DX2                !
 ! D47   D(20,9,10,11)         175.3813         estimate D2E/DX2                !
 ! D48   D(20,9,10,21)         -62.8388         estimate D2E/DX2                !
 ! D49   D(20,9,10,22)          55.3914         estimate D2E/DX2                !
 ! D50   D(9,10,11,12)         -52.8219         Frozen                          !
 ! D51   D(9,10,11,23)          67.83           estimate D2E/DX2                !
 ! D52   D(9,10,11,24)        -174.6626         estimate D2E/DX2                !
 ! D53   D(21,10,11,12)       -174.6961         estimate D2E/DX2                !
 ! D54   D(21,10,11,23)        -54.0442         estimate D2E/DX2                !
 ! D55   D(21,10,11,24)         63.4632         estimate D2E/DX2                !
 ! D56   D(22,10,11,12)         67.3923         estimate D2E/DX2                !
 ! D57   D(22,10,11,23)       -171.9558         estimate D2E/DX2                !
 ! D58   D(22,10,11,24)        -54.4484         estimate D2E/DX2                !
 ! D59   D(10,11,12,13)         56.6089         estimate D2E/DX2                !
 ! D60   D(10,11,12,25)        177.4322         estimate D2E/DX2                !
 ! D61   D(10,11,12,26)        -64.7997         estimate D2E/DX2                !
 ! D62   D(23,11,12,13)        -63.8956         estimate D2E/DX2                !
 ! D63   D(23,11,12,25)         56.9278         estimate D2E/DX2                !
 ! D64   D(23,11,12,26)        174.6959         estimate D2E/DX2                !
 ! D65   D(24,11,12,13)        178.5197         estimate D2E/DX2                !
 ! D66   D(24,11,12,25)        -60.657          estimate D2E/DX2                !
 ! D67   D(24,11,12,26)         57.1112         estimate D2E/DX2                !
 ! D68   D(11,12,13,7)         -60.3163         estimate D2E/DX2                !
 ! D69   D(11,12,13,14)       -179.3225         estimate D2E/DX2                !
 ! D70   D(11,12,13,15)         61.7903         estimate D2E/DX2                !
 ! D71   D(25,12,13,7)         178.8674         estimate D2E/DX2                !
 ! D72   D(25,12,13,14)         59.8612         estimate D2E/DX2                !
 ! D73   D(25,12,13,15)        -59.026          estimate D2E/DX2                !
 ! D74   D(26,12,13,7)          61.0708         estimate D2E/DX2                !
 ! D75   D(26,12,13,14)        -57.9353         estimate D2E/DX2                !
 ! D76   D(26,12,13,15)       -176.8225         estimate D2E/DX2                !
 ! D77   D(7,13,15,16)         -67.1605         Frozen                          !
 ! D78   D(12,13,15,16)        175.7617         estimate D2E/DX2                !
 ! D79   D(14,13,15,16)         58.154          estimate D2E/DX2                !
 ! D80   D(13,15,16,4)           8.5742         estimate D2E/DX2                !
 ! D81   D(13,15,16,27)       -171.4703         estimate D2E/DX2                !
 --------------------------------------------------------------------------------
 Trust Radius=3.00D-01 FncErr=1.00D-07 GrdErr=1.00D-07 EigMax=2.50D+02 EigMin=1.00D-04
 Number of steps in this run=     20 maximum allowed number of steps=    162.
 GradGradGradGradGradGradGradGradGradGradGradGradGradGradGradGradGradGrad

                          Input orientation:                          
 ---------------------------------------------------------------------
 Center     Atomic      Atomic             Coordinates (Angstroms)
 Number     Number       Type             X           Y           Z
 ---------------------------------------------------------------------
      1          8           0       -3.626930   -1.435870   -0.218550
      2          7           0       -3.266150   -0.271690   -0.054740
      3          8           0       -4.045420    0.671430    0.087180
      4          6           0       -1.765110    0.010650   -0.044660
      5          6           0       -1.379510    1.319540    0.268230
      6          7           0       -0.084630    1.736550    0.413770
      7          6           0        1.207190    0.996280    0.368030
      8          1           0        1.872520    1.499180    1.116560
      9          6           0        1.958580    1.046320   -0.985000
     10          6           0        3.371610    0.459610   -0.804320
     11          6           0        3.312420   -0.955420   -0.206760
     12          6           0        2.472870   -0.987200    1.089010
     13          6           0        1.034550   -0.450990    0.850940
     14          1           0        0.489960   -0.489720    1.823320
     15          7           0        0.372730   -1.321400   -0.125710
     16          6           0       -0.871110   -1.120090   -0.423390
     17          1           0       -2.162110    2.070670    0.466230
     18          1           0        0.150840    2.724920    0.295850
     19          1           0        1.403170    0.468440   -1.754010
     20          1           0        2.041130    2.096020   -1.338390
     21          1           0        3.899510    0.433360   -1.782660
     22          1           0        3.953900    1.114270   -0.118060
     23          1           0        2.859930   -1.645650   -0.954130
     24          1           0        4.341600   -1.319560    0.003900
     25          1           0        2.416340   -2.033100    1.462610
     26          1           0        2.972500   -0.375470    1.869110
     27          1           0       -1.370360   -1.877070   -1.047360
 ---------------------------------------------------------------------
                    Distance matrix (angstroms):
                    1          2          3          4          5
     1  O    0.000000
     2  N    1.229761   0.000000
     3  O    2.170096   1.231616   0.000000
     4  C    2.364113   1.527396   2.377777   0.000000
     5  C    3.588891   2.489123   2.749528   1.399922   0.000000
     6  N    4.797079   3.791385   4.114486   2.452122   1.368135
     7  C    5.443174   4.668753   5.270134   3.158536   2.608730
     8  H    6.375028   5.560023   6.063564   4.098354   3.365655
     9  C    6.160084   5.468120   6.110493   3.977778   3.576042
    10  C    7.274306   6.719861   7.473418   5.211961   4.946007
    11  C    6.955972   6.615752   7.541276   5.171158   5.235959
    12  C    6.254485   5.895462   6.800207   4.499043   4.564599
    13  C    4.882949   4.398684   5.258256   2.975451   3.049920
    14  H    4.691824   4.205117   4.993208   2.970700   3.030948
    15  N    4.002375   3.787925   4.851468   2.520176   3.193759
    16  C    2.781406   2.567470   3.680553   1.490384   2.586233
    17  H    3.861404   2.641394   2.376638   2.159236   1.102662
    18  H    5.643432   4.558334   4.676426   3.339771   2.077938
    19  H    5.593384   5.023730   5.754852   3.628973   3.543605
    20  H    6.771646   5.951557   6.411536   4.528793   3.858099
    21  H    7.911243   7.404694   8.165469   5.940307   5.732322
    22  H    7.998893   7.352144   8.014197   5.824984   5.351319
    23  H    6.531802   6.342360   7.357788   4.996145   5.315954
    24  H    7.972483   7.679800   8.620504   6.250098   6.306014
    25  H    6.301119   6.139675   7.138672   4.892167   5.203385
    26  H    7.002517   6.529374   7.315906   5.124115   4.937192
    27  H    2.444114   2.675175   3.864968   2.173642   3.456758
                    6          7          8          9         10
     6  N    0.000000
     7  C    1.489594   0.000000
     8  H    2.093011   1.120656   0.000000
     9  C    2.570541   1.548477   2.151521   0.000000
    10  C    3.880710   2.519352   2.649105   1.540626   0.000000
    11  C    4.378551   2.927714   3.138399   2.538800   1.537170
    12  C    3.796784   2.460884   2.557981   2.949782   2.546702
    13  C    2.495799   1.535447   2.139138   2.542920   3.005150
    14  H    2.696899   2.200110   2.523233   3.521779   4.013680
    15  N    3.138674   2.512318   3.427576   2.976474   3.553279
    16  C    3.078925   3.069967   4.093840   3.607753   4.543262
    17  H    2.104830   3.537816   4.126472   4.487254   5.901853
    18  H    1.022852   2.027136   2.267198   2.779604   4.088443
    19  H    2.919062   2.195467   3.085917   1.110766   2.185577
    20  H    2.778154   2.194710   2.532080   1.110662   2.175602
    21  H    4.732439   3.491552   3.694609   2.186136   1.111988
    22  H    4.120655   2.791885   2.450425   2.176581   1.112921
    23  H    4.688375   3.385181   3.892646   2.839029   2.171723
    24  H    5.394378   3.914107   3.908921   3.500585   2.181638
    25  H    4.643832   3.440537   3.590612   3.960198   3.502159
    26  H    3.990575   2.692816   2.300130   3.345962   2.829112
    27  H    4.104419   4.111354   5.157314   4.430794   5.292015
                   11         12         13         14         15
    11  C    0.000000
    12  C    1.544304   0.000000
    13  C    2.561615   1.553371   0.000000
    14  H    3.507760   2.172241   1.115169   0.000000
    15  N    2.963492   2.449045   1.466105   2.122299   0.000000
    16  C    4.192370   3.672494   2.388127   2.701404   1.294711
    17  H    6.291313   5.587617   4.089671   3.928201   4.275739
    18  H    4.877818   4.449805   3.342974   3.575203   4.074267
    19  H    2.840175   3.368369   2.786933   3.814356   2.629961
    20  H    3.494002   3.947774   3.506227   4.369049   3.991605
    21  H    2.181019   3.507104   3.990729   5.047792   4.273505
    22  H    2.168636   2.840184   3.451319   4.282595   4.330973
    23  H    1.113430   2.181237   2.831519   3.829773   2.641511
    24  H    1.111839   2.186339   3.522566   4.339822   3.970986
    25  H    2.179713   1.112061   2.187820   2.494609   2.684328
    26  H    2.182000   1.110135   2.190439   2.485589   3.410703
    27  H    4.846078   4.486241   3.379473   3.691386   2.048553
                   16         17         18         19         20
    16  C    0.000000
    17  H    3.555145   0.000000
    18  H    4.042993   2.409732   0.000000
    19  H    3.076740   4.495312   3.295749   0.000000
    20  H    4.434155   4.574333   2.576713   1.796872   0.000000
    21  H    5.198042   6.669447   4.860450   2.496751   2.532862
    22  H    5.326003   6.217851   4.150757   3.098331   2.472191
    23  H    3.805070   6.406976   5.291833   2.689114   3.849439
    24  H    5.233996   7.348854   5.831425   3.862844   4.331292
    25  H    3.898450   6.228636   5.397460   4.198912   5.003600
    26  H    4.536888   5.857977   4.477648   4.037571   4.154969
    27  H    1.100731   4.301450   5.029570   3.700438   5.244846
                   21         22         23         24         25
    21  H    0.000000
    22  H    1.799303   0.000000
    23  H    2.467685   3.084306   0.000000
    24  H    2.541647   2.467532   1.794297   0.000000
    25  H    4.337626   3.842987   2.487473   2.518650   0.000000
    26  H    3.853437   2.670452   3.097856   2.498950   1.795075
    27  H    5.800886   6.177334   4.237641   5.834591   4.545700
                   26         27
    26  H    0.000000
    27  H    5.442521   0.000000
 Symmetry turned off by external request.
 Stoichiometry    C9H13N3O2
 Framework group  C1[X(C9H13N3O2)]
 Deg. of freedom    75
 Full point group                 C1      NOp   1
 Rotational constants (GHZ):           1.6806063           0.3985738           0.3545707
 Standard basis: 6-31G(d) (6D, 7F)
   236 basis functions,   444 primitive gaussians,   236 cartesian basis functions
    52 alpha electrons       52 beta electrons
       nuclear repulsion energy       917.2025049953 Hartrees.
 NAtoms=   27 NActive=   27 NUniq=   27 SFac= 1.00D+00 NAtFMM=   60 NAOKFM=F Big=F
 Integral buffers will be    131072 words long.
 Raffenetti 1 integral format.
 Two-electron integral symmetry is turned off.
 One-electron integrals computed using PRISM.
 NBasis=   236 RedAO= T EigKep=  1.28D-03  NBF=   236
 NBsUse=   236 1.00D-06 EigRej= -1.00D+00 NBFU=   236
 ExpMin= 1.61D-01 ExpMax= 5.48D+03 ExpMxC= 8.25D+02 IAcc=3 IRadAn=         5 AccDes= 0.00D+00
 Harris functional with IExCor=  205 and IRadAn=       5 diagonalized for initial guess.
 HarFok:  IExCor=  205 AccDes= 0.00D+00 IRadAn=         5 IDoV= 1 UseB2=F ITyADJ=14
 ICtDFT=  3500011 ScaDFX=  1.000000  1.000000  1.000000  1.000000
 FoFCou: FMM=F IPFlag=           0 FMFlag=      100000 FMFlg1=           0
         NFxFlg=           0 DoJE=T BraDBF=F KetDBF=T FulRan=T
         wScrn=  0.000000 ICntrl=       500 IOpCl=  0 I1Cent=   200000004 NGrid=           0
         NMat0=    1 NMatS0=      1 NMatT0=    0 NMatD0=    1 NMtDS0=    0 NMtDT0=    0
 Symmetry not used in FoFCou.
 Keep R1 ints in memory in canonical form, NReq=397720213.
 Requested convergence on RMS density matrix=1.00D-08 within 128 cycles.
 Requested convergence on MAX density matrix=1.00D-06.
 Requested convergence on             energy=1.00D-06.
 No special actions if energy rises.
 SCF Done:  E(RHF) =  -661.280698275     A.U. after   16 cycles
            NFock= 16  Conv=0.77D-08     -V/T= 2.0037
 ExpMin= 1.61D-01 ExpMax= 5.48D+03 ExpMxC= 8.25D+02 IAcc=3 IRadAn=         5 AccDes= 0.00D+00
 HarFok:  IExCor=  205 AccDes= 0.00D+00 IRadAn=         5 IDoV=-2 UseB2=F ITyADJ=14
 ICtDFT= 12500011 ScaDFX=  1.000000  1.000000  1.000000  1.000000
 Range of M.O.s used for correlation:    15   236
 NBasis=   236 NAE=    52 NBE=    52 NFC=    14 NFV=     0
 NROrb=    222 NOA=    38 NOB=    38 NVA=   184 NVB=   184
 Fully direct method using O(ONN) memory.
 JobTyp=1 Pass  1:  I=  15 to  52 NPSUse=  4 ParTrn=T ParDer=T DoDerP=T.
 Spin components of T(2) and E(2):
     alpha-alpha T2 =       0.9200831671D-01 E2=     -0.2718168467D+00
     alpha-beta  T2 =       0.4996706859D+00 E2=     -0.1493783077D+01
     beta-beta   T2 =       0.9200831671D-01 E2=     -0.2718168467D+00
 ANorm=    0.1297569774D+01
 E2 =    -0.2037416770D+01 EUMP2 =    -0.66331811504487D+03
          IDoAtm=111111111111111111111111111
          Differentiating once with respect to electric field.
                with respect to dipole field.
          Differentiating once with respect to nuclear coordinates.
 Keep R1 ints in memory in canonical form, NReq=397723379.
          There are     1 degrees of freedom in the 1st order CPHF.  IDoFFX=0 NUNeed=     1.
 LinEq1:  Iter=  0 NonCon=     1 RMS=4.62D-03 Max=1.12D-01 NDo=     1
 AX will form     1 AO Fock derivatives at one time.
 LinEq1:  Iter=  1 NonCon=     1 RMS=1.56D-03 Max=2.84D-02 NDo=     1
 LinEq1:  Iter=  2 NonCon=     1 RMS=6.42D-04 Max=1.80D-02 NDo=     1
 LinEq1:  Iter=  3 NonCon=     1 RMS=2.94D-04 Max=9.17D-03 NDo=     1
 LinEq1:  Iter=  4 NonCon=     1 RMS=9.04D-05 Max=2.14D-03 NDo=     1
 LinEq1:  Iter=  5 NonCon=     1 RMS=3.76D-05 Max=1.88D-03 NDo=     1
 LinEq1:  Iter=  6 NonCon=     1 RMS=1.55D-05 Max=5.85D-04 NDo=     1
 LinEq1:  Iter=  7 NonCon=     1 RMS=5.93D-06 Max=1.00D-04 NDo=     1
 LinEq1:  Iter=  8 NonCon=     1 RMS=2.34D-06 Max=5.68D-05 NDo=     1
 LinEq1:  Iter=  9 NonCon=     1 RMS=8.64D-07 Max=2.45D-05 NDo=     1
 LinEq1:  Iter= 10 NonCon=     1 RMS=4.24D-07 Max=1.49D-05 NDo=     1
 LinEq1:  Iter= 11 NonCon=     1 RMS=1.53D-07 Max=5.73D-06 NDo=     1
 LinEq1:  Iter= 12 NonCon=     1 RMS=5.39D-08 Max=7.89D-07 NDo=     1
 LinEq1:  Iter= 13 NonCon=     1 RMS=1.70D-08 Max=2.92D-07 NDo=     1
 LinEq1:  Iter= 14 NonCon=     1 RMS=5.42D-09 Max=1.29D-07 NDo=     1
 LinEq1:  Iter= 15 NonCon=     1 RMS=2.05D-09 Max=4.79D-08 NDo=     1
 LinEq1:  Iter= 16 NonCon=     1 RMS=7.98D-10 Max=1.41D-08 NDo=     1
 LinEq1:  Iter= 17 NonCon=     1 RMS=2.66D-10 Max=3.99D-09 NDo=     1
 LinEq1:  Iter= 18 NonCon=     1 RMS=9.22D-11 Max=1.14D-09 NDo=     1
 LinEq1:  Iter= 19 NonCon=     0 RMS=2.99D-11 Max=3.91D-10 NDo=     1
 Linear equations converged to 1.000D-10 1.000D-09 after    19 iterations.
 End of Minotr F.D. properties file   721 does not exist.
 End of Minotr F.D. properties file   722 does not exist.
 End of Minotr F.D. properties file   788 does not exist.

 **********************************************************************

            Population analysis using the SCF Density.

 **********************************************************************

 Alpha  occ. eigenvalues --  -20.59745 -20.59326 -15.85209 -15.63407 -15.56795
 Alpha  occ. eigenvalues --  -11.35961 -11.30506 -11.30195 -11.29982 -11.27603
 Alpha  occ. eigenvalues --  -11.24681 -11.23920 -11.23349 -11.22854  -1.58417
 Alpha  occ. eigenvalues --   -1.37924  -1.28810  -1.22569  -1.13320  -1.08342
 Alpha  occ. eigenvalues --   -1.01829  -1.00726  -0.93623  -0.88897  -0.84974
 Alpha  occ. eigenvalues --   -0.81516  -0.77932  -0.77065  -0.74293  -0.71009
 Alpha  occ. eigenvalues --   -0.70270  -0.69727  -0.67423  -0.64425  -0.63148
 Alpha  occ. eigenvalues --   -0.61886  -0.60253  -0.57504  -0.56540  -0.54870
 Alpha  occ. eigenvalues --   -0.53650  -0.50703  -0.49479  -0.48440  -0.47789
 Alpha  occ. eigenvalues --   -0.47670  -0.46162  -0.45673  -0.43966  -0.42066
 Alpha  occ. eigenvalues --   -0.39817  -0.33678
 Alpha virt. eigenvalues --    0.07462   0.11802   0.18035   0.21381   0.23385
 Alpha virt. eigenvalues --    0.24366   0.26246   0.27851   0.28511   0.28831
 Alpha virt. eigenvalues --    0.29852   0.31122   0.31791   0.32323   0.33325
 Alpha virt. eigenvalues --    0.33780   0.34354   0.35498   0.37520   0.38462
 Alpha virt. eigenvalues --    0.40553   0.41767   0.44482   0.45250   0.45404
 Alpha virt. eigenvalues --    0.46100   0.49715   0.53153   0.57553   0.59073
 Alpha virt. eigenvalues --    0.63366   0.68885   0.69326   0.72208   0.73985
 Alpha virt. eigenvalues --    0.74865   0.75726   0.75874   0.77813   0.79116
 Alpha virt. eigenvalues --    0.80584   0.83578   0.85057   0.85463   0.87901
 Alpha virt. eigenvalues --    0.89073   0.90156   0.90674   0.91954   0.93949
 Alpha virt. eigenvalues --    0.95052   0.97184   0.98906   1.00576   1.01955
 Alpha virt. eigenvalues --    1.02711   1.04991   1.06559   1.06945   1.08676
 Alpha virt. eigenvalues --    1.09607   1.10454   1.11456   1.12039   1.13216
 Alpha virt. eigenvalues --    1.13902   1.14041   1.15424   1.16344   1.17276
 Alpha virt. eigenvalues --    1.18000   1.20036   1.21242   1.22302   1.22824
 Alpha virt. eigenvalues --    1.23654   1.24214   1.25624   1.27008   1.27675
 Alpha virt. eigenvalues --    1.29208   1.31447   1.33404   1.36217   1.39539
 Alpha virt. eigenvalues --    1.42408   1.46790   1.47449   1.49664   1.53096
 Alpha virt. eigenvalues --    1.55379   1.55479   1.60158   1.61445   1.65974
 Alpha virt. eigenvalues --    1.68606   1.70331   1.72465   1.73476   1.76594
 Alpha virt. eigenvalues --    1.78229   1.80138   1.84324   1.88925   1.92510
 Alpha virt. eigenvalues --    1.93615   1.96122   1.97486   1.99118   2.00348
 Alpha virt. eigenvalues --    2.03001   2.03763   2.05915   2.09182   2.11917
 Alpha virt. eigenvalues --    2.13223   2.13435   2.17660   2.18928   2.19182
 Alpha virt. eigenvalues --    2.21269   2.22020   2.24156   2.25189   2.26207
 Alpha virt. eigenvalues --    2.29250   2.32146   2.33170   2.35767   2.36396
 Alpha virt. eigenvalues --    2.38693   2.39893   2.41533   2.43430   2.46110
 Alpha virt. eigenvalues --    2.48933   2.50285   2.50401   2.56619   2.57309
 Alpha virt. eigenvalues --    2.60537   2.62932   2.65699   2.68545   2.68949
 Alpha virt. eigenvalues --    2.69682   2.70002   2.74840   2.77144   2.81113
 Alpha virt. eigenvalues --    2.84045   2.86422   2.89919   2.91124   2.95196
 Alpha virt. eigenvalues --    2.97327   2.98545   3.02575   3.03911   3.05585
 Alpha virt. eigenvalues --    3.07344   3.12902   3.18841   3.22764   3.27087
 Alpha virt. eigenvalues --    3.31011   3.34721   3.37511   3.43065   3.60334
 Alpha virt. eigenvalues --    4.10028   4.23377   4.31820   4.36363   4.43058
 Alpha virt. eigenvalues --    4.52335   4.59481   4.60300   4.70852   4.77813
 Alpha virt. eigenvalues --    4.96566   4.99222   5.03163   5.09967
          Condensed to atoms (all electrons):
               1          2          3          4          5          6
     1  O    8.300750   0.313099  -0.089504  -0.079343   0.003542  -0.000013
     2  N    0.313099   5.680943   0.308966   0.266164  -0.046417   0.000835
     3  O   -0.089504   0.308966   8.332329  -0.087761   0.008476   0.000472
     4  C   -0.079343   0.266164  -0.087761   5.247823   0.568582  -0.050724
     5  C    0.003542  -0.046417   0.008476   0.568582   4.666210   0.309601
     6  N   -0.000013   0.000835   0.000472  -0.050724   0.309601   7.193005
     7  C    0.000002  -0.000085   0.000002   0.004165  -0.026277   0.195354
     8  H   -0.000000   0.000002  -0.000000  -0.000196   0.002259  -0.048694
     9  C   -0.000000  -0.000003   0.000000   0.000508   0.001453  -0.055459
    10  C   -0.000000   0.000000  -0.000000  -0.000021  -0.000053   0.003332
    11  C   -0.000000  -0.000000  -0.000000  -0.000013   0.000015  -0.000164
    12  C   -0.000000   0.000001  -0.000000  -0.000146  -0.000117   0.003835
    13  C   -0.000018  -0.000022  -0.000002  -0.009632   0.000334  -0.050241
    14  H   -0.000002  -0.000054   0.000000   0.002869   0.004561  -0.005942
    15  N    0.000205   0.001584  -0.000012  -0.060849  -0.003527   0.001927
    16  C    0.003190  -0.026166   0.001944   0.317994  -0.041063  -0.001003
    17  H    0.000119  -0.003969   0.011886  -0.025529   0.375661  -0.032749
    18  H    0.000000  -0.000038   0.000008   0.001240  -0.025771   0.328640
    19  H    0.000000  -0.000000   0.000000  -0.000776   0.000685   0.000494
    20  H    0.000000  -0.000000   0.000000  -0.000027   0.000011  -0.001428
    21  H   -0.000000  -0.000000   0.000000   0.000000   0.000001  -0.000059
    22  H   -0.000000   0.000000  -0.000000  -0.000000  -0.000002  -0.000096
    23  H    0.000000  -0.000000   0.000000   0.000025  -0.000001  -0.000025
    24  H    0.000000   0.000000   0.000000   0.000000  -0.000000   0.000005
    25  H    0.000000  -0.000000   0.000000   0.000020  -0.000001  -0.000078
    26  H    0.000000  -0.000000   0.000000   0.000006  -0.000001  -0.000072
    27  H    0.005518  -0.000288   0.000008  -0.066344   0.002120   0.000040
               7          8          9         10         11         12
     1  O    0.000002  -0.000000  -0.000000  -0.000000  -0.000000  -0.000000
     2  N   -0.000085   0.000002  -0.000003   0.000000  -0.000000   0.000001
     3  O    0.000002  -0.000000   0.000000  -0.000000  -0.000000  -0.000000
     4  C    0.004165  -0.000196   0.000508  -0.000021  -0.000013  -0.000146
     5  C   -0.026277   0.002259   0.001453  -0.000053   0.000015  -0.000117
     6  N    0.195354  -0.048694  -0.055459   0.003332  -0.000164   0.003835
     7  C    5.006911   0.416062   0.342260  -0.049491  -0.007752  -0.065630
     8  H    0.416062   0.543748  -0.059525   0.001519  -0.000291  -0.002678
     9  C    0.342260  -0.059525   5.177921   0.317814  -0.053225  -0.006000
    10  C   -0.049491   0.001519   0.317814   5.127859   0.332560  -0.060074
    11  C   -0.007752  -0.000291  -0.053225   0.332560   5.124342   0.330681
    12  C   -0.065630  -0.002678  -0.006000  -0.060074   0.330681   5.138416
    13  C    0.331371  -0.039636  -0.051119  -0.001716  -0.047713   0.368088
    14  H   -0.039774  -0.000876   0.003764  -0.000385   0.003951  -0.040775
    15  N   -0.057487   0.003961  -0.012945   0.001452  -0.007757  -0.074166
    16  C   -0.002283   0.000018  -0.000922  -0.000026   0.000004   0.002486
    17  H    0.001262  -0.000018  -0.000058   0.000001   0.000000   0.000001
    18  H   -0.029946  -0.003231   0.000700  -0.000121   0.000012  -0.000154
    19  H   -0.034960   0.004031   0.386530  -0.032584  -0.002239   0.000614
    20  H   -0.041695  -0.001865   0.396991  -0.037224   0.004128  -0.000370
    21  H    0.004053  -0.000085  -0.035761   0.400135  -0.035740   0.004192
    22  H   -0.004286   0.003496  -0.045671   0.395878  -0.045676  -0.001185
    23  H    0.000453   0.000034  -0.002013  -0.040050   0.396588  -0.036491
    24  H   -0.000138  -0.000098   0.004398  -0.038550   0.400390  -0.037880
    25  H    0.005059  -0.000013  -0.000372   0.004090  -0.033840   0.395112
    26  H   -0.004497   0.001567   0.001059  -0.002369  -0.042510   0.394804
    27  H   -0.000391   0.000008  -0.000060   0.000005   0.000005  -0.000020
              13         14         15         16         17         18
     1  O   -0.000018  -0.000002   0.000205   0.003190   0.000119   0.000000
     2  N   -0.000022  -0.000054   0.001584  -0.026166  -0.003969  -0.000038
     3  O   -0.000002   0.000000  -0.000012   0.001944   0.011886   0.000008
     4  C   -0.009632   0.002869  -0.060849   0.317994  -0.025529   0.001240
     5  C    0.000334   0.004561  -0.003527  -0.041063   0.375661  -0.025771
     6  N   -0.050241  -0.005942   0.001927  -0.001003  -0.032749   0.328640
     7  C    0.331371  -0.039774  -0.057487  -0.002283   0.001262  -0.029946
     8  H   -0.039636  -0.000876   0.003961   0.000018  -0.000018  -0.003231
     9  C   -0.051119   0.003764  -0.012945  -0.000922  -0.000058   0.000700
    10  C   -0.001716  -0.000385   0.001452  -0.000026   0.000001  -0.000121
    11  C   -0.047713   0.003951  -0.007757   0.000004   0.000000   0.000012
    12  C    0.368088  -0.040775  -0.074166   0.002486   0.000001  -0.000154
    13  C    5.025071   0.403132   0.240209  -0.069106  -0.000049   0.004194
    14  H    0.403132   0.518178  -0.035616  -0.004733   0.000060   0.000013
    15  N    0.240209  -0.035616   6.940170   0.586247  -0.000053  -0.000127
    16  C   -0.069106  -0.004733   0.586247   4.699512   0.001610  -0.000216
    17  H   -0.000049   0.000060  -0.000053   0.001610   0.381894  -0.002097
    18  H    0.004194   0.000013  -0.000127  -0.000216  -0.002097   0.330571
    19  H   -0.006143   0.000067   0.006937   0.002534   0.000011  -0.000131
    20  H    0.003883  -0.000049   0.000084  -0.000033  -0.000002   0.002712
    21  H   -0.000374   0.000008  -0.000031   0.000002  -0.000000   0.000000
    22  H    0.000305  -0.000043   0.000002  -0.000001   0.000000   0.000002
    23  H   -0.005909   0.000008   0.006798   0.000062   0.000000   0.000000
    24  H    0.004133  -0.000058   0.000045   0.000005   0.000000  -0.000000
    25  H   -0.034475  -0.002619   0.000808  -0.000066  -0.000000   0.000003
    26  H   -0.044975  -0.000900   0.004185  -0.000052   0.000000  -0.000001
    27  H    0.004868  -0.000172  -0.040089   0.402572  -0.000058   0.000002
              19         20         21         22         23         24
     1  O    0.000000   0.000000  -0.000000  -0.000000   0.000000   0.000000
     2  N   -0.000000  -0.000000  -0.000000   0.000000  -0.000000   0.000000
     3  O    0.000000   0.000000   0.000000  -0.000000   0.000000   0.000000
     4  C   -0.000776  -0.000027   0.000000  -0.000000   0.000025   0.000000
     5  C    0.000685   0.000011   0.000001  -0.000002  -0.000001  -0.000000
     6  N    0.000494  -0.001428  -0.000059  -0.000096  -0.000025   0.000005
     7  C   -0.034960  -0.041695   0.004053  -0.004286   0.000453  -0.000138
     8  H    0.004031  -0.001865  -0.000085   0.003496   0.000034  -0.000098
     9  C    0.386530   0.396991  -0.035761  -0.045671  -0.002013   0.004398
    10  C   -0.032584  -0.037224   0.400135   0.395878  -0.040050  -0.038550
    11  C   -0.002239   0.004128  -0.035740  -0.045676   0.396588   0.400390
    12  C    0.000614  -0.000370   0.004192  -0.001185  -0.036491  -0.037880
    13  C   -0.006143   0.003883  -0.000374   0.000305  -0.005909   0.004133
    14  H    0.000067  -0.000049   0.000008  -0.000043   0.000008  -0.000058
    15  N    0.006937   0.000084  -0.000031   0.000002   0.006798   0.000045
    16  C    0.002534  -0.000033   0.000002  -0.000001   0.000062   0.000005
    17  H    0.000011  -0.000002  -0.000000   0.000000   0.000000   0.000000
    18  H   -0.000131   0.002712   0.000000   0.000002   0.000000  -0.000000
    19  H    0.505330  -0.023908  -0.002599   0.003750   0.001645  -0.000070
    20  H   -0.023908   0.549003  -0.002604  -0.002956  -0.000050  -0.000090
    21  H   -0.002599  -0.002604   0.525291  -0.024634  -0.002797  -0.002057
    22  H    0.003750  -0.002956  -0.024634   0.569046   0.004059  -0.003599
    23  H    0.001645  -0.000050  -0.002797   0.004059   0.509244  -0.024981
    24  H   -0.000070  -0.000090  -0.002057  -0.003599  -0.024981   0.541006
    25  H   -0.000027   0.000011  -0.000085  -0.000082  -0.002077  -0.002402
    26  H    0.000022  -0.000035  -0.000073   0.002462   0.003818  -0.002755
    27  H    0.000075   0.000000  -0.000000   0.000000  -0.000022  -0.000000
              25         26         27
     1  O    0.000000   0.000000   0.005518
     2  N   -0.000000  -0.000000  -0.000288
     3  O    0.000000   0.000000   0.000008
     4  C    0.000020   0.000006  -0.066344
     5  C   -0.000001  -0.000001   0.002120
     6  N   -0.000078  -0.000072   0.000040
     7  C    0.005059  -0.004497  -0.000391
     8  H   -0.000013   0.001567   0.000008
     9  C   -0.000372   0.001059  -0.000060
    10  C    0.004090  -0.002369   0.000005
    11  C   -0.033840  -0.042510   0.000005
    12  C    0.395112   0.394804  -0.000020
    13  C   -0.034475  -0.044975   0.004868
    14  H   -0.002619  -0.000900  -0.000172
    15  N    0.000808   0.004185  -0.040089
    16  C   -0.000066  -0.000052   0.402572
    17  H   -0.000000   0.000000  -0.000058
    18  H    0.000003  -0.000001   0.000002
    19  H   -0.000027   0.000022   0.000075
    20  H    0.000011  -0.000035   0.000000
    21  H   -0.000085  -0.000073  -0.000000
    22  H   -0.000082   0.002462   0.000000
    23  H   -0.002077   0.003818  -0.000022
    24  H   -0.002402  -0.002755  -0.000000
    25  H    0.510962  -0.023100  -0.000010
    26  H   -0.023100   0.562068   0.000001
    27  H   -0.000010   0.000001   0.451771
 Mulliken charges:
               1
     1  O   -0.457546
     2  N    0.505447
     3  O   -0.486813
     4  C   -0.028036
     5  C    0.199721
     6  N   -0.790794
     7  C    0.057740
     8  H    0.180505
     9  C   -0.310266
    10  C   -0.321981
    11  C   -0.315755
    12  C   -0.312543
    13  C   -0.024459
    14  H    0.195385
    15  N   -0.501955
    16  C    0.127492
    17  H    0.292077
    18  H    0.393735
    19  H    0.190713
    20  H    0.155514
    21  H    0.173218
    22  H    0.149232
    23  H    0.191682
    24  H    0.162694
    25  H    0.183186
    26  H    0.151348
    27  H    0.240460
 Sum of Mulliken charges =  -0.00000
 Mulliken charges with hydrogens summed into heavy atoms:
               1
     1  O   -0.457546
     2  N    0.505447
     3  O   -0.486813
     4  C   -0.028036
     5  C    0.491798
     6  N   -0.397058
     7  C    0.238244
     9  C    0.035960
    10  C    0.000468
    11  C    0.038621
    12  C    0.021991
    13  C    0.170926
    15  N   -0.501955
    16  C    0.367952
 Electronic spatial extent (au):  <R**2>=           3132.1361
 Charge=             -0.0000 electrons
 Dipole moment (field-independent basis, Debye):
    X=              5.4125    Y=              4.5722    Z=              0.6087  Tot=              7.1113
 Quadrupole moment (field-independent basis, Debye-Ang):
   XX=           -105.6021   YY=            -80.1724   ZZ=            -82.2611
   XY=             -1.8312   XZ=              0.5749   YZ=              0.3104
 Traceless Quadrupole moment (field-independent basis, Debye-Ang):
   XX=            -16.2569   YY=              9.1728   ZZ=              7.0841
   XY=             -1.8312   XZ=              0.5749   YZ=              0.3104
 Octapole moment (field-independent basis, Debye-Ang**2):
  XXX=            103.0488  YYY=             36.4324  ZZZ=             -4.5965  XYY=             -1.6083
  XXY=             11.8785  XXZ=              1.2845  XZZ=             -7.9550  YZZ=             -2.6691
  YYZ=              1.8831  XYZ=             -1.1329
 Hexadecapole moment (field-independent basis, Debye-Ang**3):
 XXXX=          -3577.0922 YYYY=           -616.9428 ZZZZ=           -300.8065 XXXY=            -37.5925
 XXXZ=             12.3528 YYYX=            -18.5590 YYYZ=             13.4706 ZZZX=             14.1896
 ZZZY=              8.1599 XXYY=           -657.4501 XXZZ=           -545.7610 YYZZ=           -163.7946
 XXYZ=              2.2051 YYXZ=              7.5231 ZZXY=              3.1311
 N-N= 9.172025049953D+02 E-N=-3.380424389292D+03  KE= 6.588563629862D+02
 Calling FoFJK, ICntrl=  10002127 FMM=F ISym2X=0 I1Cent= 0 IOpClX= 0 NMat=1 NMatS=1 NMatT=0.
 -------------------------------------------------------------------
 Center     Atomic                   Forces (Hartrees/Bohr)
 Number     Number              X              Y              Z
 -------------------------------------------------------------------
      1        8           0.001878936   -0.019326404   -0.002929938
      2        7           0.040294769    0.013015920   -0.001564353
      3        8          -0.005261474    0.016092933    0.003466031
      4        6          -0.004319889    0.006914983    0.008409370
      5        6           0.005822972   -0.024265936   -0.004777009
      6        7           0.015973858    0.005692008   -0.007487662
      7        6          -0.008913177   -0.001747600    0.003475973
      8        1          -0.010824641   -0.001429998   -0.007530516
      9        6          -0.004114072    0.000662094   -0.002273432
     10        6           0.002796000   -0.000986733    0.001163528
     11        6          -0.001021304   -0.004617633   -0.002297349
     12        6           0.000518239   -0.009614142   -0.002805430
     13        6           0.011615268   -0.004087837    0.003905110
     14        1           0.001059083    0.004736560   -0.010000588
     15        7          -0.001731170    0.001933953    0.002228348
     16        6          -0.020328934    0.008825494    0.003524404
     17        1           0.008275264   -0.006100651   -0.005074210
     18        1          -0.018308254   -0.001030959    0.005392542
     19        1           0.003130044    0.005889293    0.007824782
     20        1          -0.003172456   -0.007362293    0.002639116
     21        1          -0.004313054    0.002468901    0.009651911
     22        1          -0.004003737   -0.003985749   -0.007351133
     23        1           0.004020593    0.006157865    0.009257893
     24        1          -0.009379727    0.002623029   -0.002082374
     25        1          -0.000525299    0.010519397   -0.002403736
     26        1          -0.004791851   -0.004780335   -0.004280025
     27        1           0.005624014    0.003803840    0.001918748
 -------------------------------------------------------------------
 Cartesian Forces:  Max     0.040294769 RMS     0.008742184

 GradGradGradGradGradGradGradGradGradGradGradGradGradGradGradGradGradGrad
 Berny optimization.
 FormGI is forming the generalized inverse of G from B-inverse, IUseBI=4.
 Internal  Forces:  Max     0.038076796 RMS     0.007078642
 Search for a local minimum.
 Step number   1 out of a maximum of   20
 All quantities printed in internal units (Hartrees-Bohrs-Radians)
 Mixed Optimization -- RFO/linear search
 Second derivative matrix not updated -- first step.
 ITU=  0
     Eigenvalues ---    0.00231   0.00779   0.01051   0.01154   0.01215
     Eigenvalues ---    0.01451   0.01534   0.01577   0.01953   0.02029
     Eigenvalues ---    0.02105   0.02705   0.03741   0.04492   0.04702
     Eigenvalues ---    0.04840   0.05107   0.05140   0.05314   0.05975
     Eigenvalues ---    0.06250   0.07384   0.07678   0.07773   0.07938
     Eigenvalues ---    0.07988   0.08050   0.08058   0.10439   0.11769
     Eigenvalues ---    0.12261   0.13516   0.15437   0.15977   0.16000
     Eigenvalues ---    0.16446   0.20162   0.23146   0.24976   0.25000
     Eigenvalues ---    0.25000   0.25332   0.26025   0.26653   0.27982
     Eigenvalues ---    0.28084   0.28456   0.29665   0.30588   0.31497
     Eigenvalues ---    0.32059   0.32240   0.32293   0.32383   0.32390
     Eigenvalues ---    0.32406   0.32519   0.32530   0.32586   0.33335
     Eigenvalues ---    0.33389   0.33601   0.35192   0.43886   0.44231
     Eigenvalues ---    0.48903   0.65323   0.90416   0.911861000.00000
     Eigenvalues --- 1000.000001000.000001000.000001000.000001000.00000
     Eigenvalues --- 1000.000001000.000001000.000001000.000001000.00000
     Eigenvalues --- 1000.000001000.000001000.000001000.000001000.00000
     Eigenvalues --- 1000.000001000.000001000.000001000.000001000.00000
     Eigenvalues --- 1000.000001000.000001000.000001000.000001000.00000
     Eigenvalues --- 1000.000001000.000001000.000001000.000001000.00000
     Eigenvalues --- 1000.000001000.000001000.000001000.000001000.00000
     Eigenvalues --- 1000.000001000.000001000.000001000.000001000.00000
     Eigenvalues --- 1000.000001000.000001000.000001000.000001000.00000
     Eigenvalues --- 1000.000001000.000001000.000001000.000001000.00000
     Eigenvalues --- 1000.000001000.000001000.000001000.000001000.00000
     Eigenvalues --- 1000.000001000.000001000.000001000.000001000.00000
     Eigenvalues --- 1000.000001000.000001000.000001000.000001000.00000
     Eigenvalues --- 1000.000001000.000001000.000001000.000001000.00000
     Eigenvalues --- 1000.000001000.000001000.000001000.000001000.00000
     Eigenvalues --- 1000.000001000.000001000.000001000.000001000.00000
     Eigenvalues --- 1000.000001000.000001000.000001000.000001000.00000
     Eigenvalues --- 1000.000001000.000001000.000001000.000001000.00000
     Eigenvalues --- 1000.00000
 RFO step:  Lambda=-2.36919540D-02 EMin= 2.30530475D-03
 Linear search not attempted -- first point.
 Iteration  1 RMS(Cart)=  0.05411488 RMS(Int)=  0.00113241
 Iteration  2 RMS(Cart)=  0.00121456 RMS(Int)=  0.00031743
 Iteration  3 RMS(Cart)=  0.00000052 RMS(Int)=  0.00031743
 Iteration  1 RMS(Cart)=  0.00002167 RMS(Int)=  0.00001652
 Iteration  2 RMS(Cart)=  0.00001081 RMS(Int)=  0.00001832
 Iteration  3 RMS(Cart)=  0.00000581 RMS(Int)=  0.00002037
 Iteration  4 RMS(Cart)=  0.00000345 RMS(Int)=  0.00002174
 Iteration  5 RMS(Cart)=  0.00000230 RMS(Int)=  0.00002265
 Iteration  6 RMS(Cart)=  0.00000170 RMS(Int)=  0.00002328
 Iteration  7 RMS(Cart)=  0.00000137 RMS(Int)=  0.00002376
 Iteration  8 RMS(Cart)=  0.00000115 RMS(Int)=  0.00002414
 Iteration  9 RMS(Cart)=  0.00000100 RMS(Int)=  0.00002445
 Variable       Old X    -DE/DX   Delta X   Delta X   Delta X     New X
                                 (Linear)    (Quad)   (Total)
    R1        2.32391   0.01813   0.00000   0.01938   0.01938   2.34329
    R2        2.32742   0.01605   0.00000   0.01730   0.01730   2.34472
    R3        2.88636  -0.03808   0.00000  -0.11886  -0.11886   2.76750
    R4        2.64547  -0.03377   0.00000  -0.07236  -0.07213   2.57333
    R5        2.81642  -0.02469   0.00000  -0.06273  -0.06251   2.75391
    R6        2.58540  -0.02324   0.00000  -0.04970  -0.04961   2.53579
    R7        2.08373  -0.01094   0.00000  -0.03059  -0.03059   2.05313
    R8        2.81492  -0.01679   0.00000  -0.05570  -0.05579   2.75914
    R9        1.93291  -0.00583   0.00000  -0.01261  -0.01261   1.92030
   R10        2.11773  -0.01210   0.00000  -0.03572  -0.03572   2.08201
   R11        2.92620  -0.01301   0.00000  -0.04560  -0.04562   2.88058
   R12        2.90157  -0.00258   0.00000  -0.00685  -0.00678   2.89479
   R13        2.91136  -0.00424   0.00000  -0.01368  -0.01374   2.89762
   R14        2.09904  -0.01005   0.00000  -0.02880  -0.02880   2.07025
   R15        2.09885  -0.00803   0.00000  -0.02302  -0.02302   2.07583
   R16        2.90483  -0.00191   0.00000  -0.00587  -0.00592   2.89891
   R17        2.10135  -0.01060   0.00000  -0.03049  -0.03049   2.07086
   R18        2.10312  -0.00897   0.00000  -0.02589  -0.02589   2.07723
   R19        2.91831  -0.00938   0.00000  -0.02840  -0.02838   2.88993
   R20        2.10408  -0.01167   0.00000  -0.03371  -0.03371   2.07037
   R21        2.10107  -0.00994   0.00000  -0.02857  -0.02857   2.07250
   R22        2.93545  -0.01058   0.00000  -0.03582  -0.03576   2.89968
   R23        2.10149  -0.01067   0.00000  -0.03072  -0.03072   2.07077
   R24        2.09785  -0.00780   0.00000  -0.02231  -0.02231   2.07554
   R25        2.10736  -0.00940   0.00000  -0.02731  -0.02731   2.08005
   R26        2.77054  -0.00600   0.00000  -0.01156  -0.01194   2.75860
   R27        2.44665  -0.00796   0.00000  -0.00630  -0.00637   2.44028
   R28        2.08008  -0.00625   0.00000  -0.01739  -0.01739   2.06269
    A1        2.15873   0.01072   0.00000   0.03927   0.03915   2.19789
    A2        2.05351  -0.00678   0.00000  -0.02470  -0.02482   2.02869
    A3        2.07087  -0.00393   0.00000  -0.01426  -0.01438   2.05649
    A4        2.03197  -0.00729   0.00000  -0.02157  -0.02193   2.01003
    A5        2.03485  -0.00320   0.00000  -0.00649  -0.00689   2.02796
    A6        2.21546   0.01042   0.00000   0.02658   0.02675   2.24220
    A7        2.17664   0.01072   0.00000   0.00575   0.00606   2.18270
    A8        2.07321  -0.00461   0.00000   0.00145   0.00121   2.07442
    A9        2.03197  -0.00605   0.00000  -0.00611  -0.00639   2.02559
   A10        2.29970  -0.01313   0.00000   0.00000  -0.00000   2.29970
   A11        2.09456  -0.00976   0.00000  -0.08486  -0.08561   2.00895
   A12        1.85149   0.02286   0.00000   0.09506   0.09512   1.94661
   A13        1.84559  -0.00270   0.00000  -0.01983  -0.01954   1.82605
   A14        2.01705  -0.00266   0.00000  -0.00854  -0.00874   2.00831
   A15        1.94041   0.00454   0.00000  -0.00710  -0.00748   1.93294
   A16        1.85568   0.00343   0.00000   0.02574   0.02557   1.88125
   A17        1.85424   0.00040   0.00000   0.02094   0.02052   1.87476
   A18        1.93888  -0.00281   0.00000  -0.00712  -0.00675   1.93214
   A19        1.90739   0.00048   0.00000  -0.00644  -0.00664   1.90075
   A20        1.92356  -0.00086   0.00000  -0.01396  -0.01392   1.90964
   A21        1.92264  -0.00177   0.00000  -0.00588  -0.00584   1.91680
   A22        1.91950  -0.00036   0.00000   0.00490   0.00485   1.92435
   A23        1.90611   0.00284   0.00000   0.02627   0.02627   1.93238
   A24        1.88449  -0.00030   0.00000  -0.00441  -0.00468   1.87982
   A25        1.93996  -0.00041   0.00000   0.00674   0.00668   1.94664
   A26        1.91902  -0.00089   0.00000  -0.00766  -0.00769   1.91133
   A27        1.90517   0.00022   0.00000  -0.00278  -0.00288   1.90229
   A28        1.91619   0.00059   0.00000   0.00662   0.00666   1.92285
   A29        1.89857   0.00166   0.00000   0.01131   0.01132   1.90988
   A30        1.88391  -0.00116   0.00000  -0.01473  -0.01481   1.86910
   A31        1.94556   0.00086   0.00000   0.00711   0.00718   1.95274
   A32        1.90220   0.00043   0.00000   0.00472   0.00475   1.90695
   A33        1.91718   0.00044   0.00000   0.00539   0.00532   1.92250
   A34        1.90659  -0.00121   0.00000  -0.01512  -0.01517   1.89142
   A35        1.91507  -0.00053   0.00000   0.00012   0.00004   1.91510
   A36        1.87583  -0.00002   0.00000  -0.00268  -0.00272   1.87312
   A37        1.94731  -0.00371   0.00000  -0.01857  -0.01857   1.92874
   A38        1.90591   0.00243   0.00000   0.01690   0.01681   1.92271
   A39        1.91092   0.00181   0.00000   0.01230   0.01221   1.92313
   A40        1.90612   0.00077   0.00000   0.00013   0.00023   1.90635
   A41        1.91156  -0.00019   0.00000  -0.00600  -0.00592   1.90565
   A42        1.88080  -0.00102   0.00000  -0.00425  -0.00441   1.87639
   A43        1.84363   0.00578   0.00000   0.02623   0.02619   1.86982
   A44        1.94108  -0.00502   0.00000  -0.03054  -0.03112   1.90996
   A45        1.98323   0.00070   0.00000   0.00269   0.00309   1.98632
   A46        1.88237   0.00211   0.00000   0.03130   0.03166   1.91403
   A47        1.89140  -0.00472   0.00000  -0.02703  -0.02703   1.86437
   A48        1.91749   0.00136   0.00000   0.00012   0.00001   1.91750
   A49        2.08809  -0.00515   0.00000  -0.01309  -0.01354   2.07454
   A50        2.25986  -0.00541   0.00000  -0.01564  -0.01555   2.24431
   A51        1.97549   0.00549   0.00000   0.02298   0.02258   1.99807
   A52        2.04783  -0.00008   0.00000  -0.00736  -0.00775   2.04008
    D1       -3.04019  -0.00075   0.00000  -0.03368  -0.03322  -3.07341
    D2        0.14412   0.00053   0.00000   0.00000  -0.00000   0.14412
    D3        0.11353  -0.00179   0.00000  -0.06100  -0.06077   0.05277
    D4       -2.98533  -0.00051   0.00000  -0.02732  -0.02755  -3.01288
    D5        3.06109   0.00090   0.00000   0.02870   0.02876   3.08985
    D6       -0.02227  -0.00008   0.00000   0.00565   0.00541  -0.01687
    D7       -0.12830  -0.00098   0.00000  -0.01009  -0.01050  -0.13880
    D8        3.07151  -0.00197   0.00000  -0.03314  -0.03385   3.03767
    D9       -2.72913  -0.00208   0.00000  -0.03727  -0.03778  -2.76691
   D10        0.41321   0.00042   0.00000   0.00428   0.00403   0.41725
   D11        0.46034  -0.00010   0.00000   0.00194   0.00216   0.46250
   D12       -2.68051   0.00240   0.00000   0.04349   0.04398  -2.63653
   D13       -0.06331  -0.00080   0.00000   0.00383   0.00416  -0.05916
   D14        2.74396   0.00324   0.00000   0.06276   0.06105   2.80500
   D15        3.02130   0.00019   0.00000   0.02660   0.02714   3.04843
   D16       -0.45462   0.00423   0.00000   0.08554   0.08403  -0.37059
   D17       -2.53298  -0.00062   0.00000  -0.00876  -0.00833  -2.54131
   D18        1.70301  -0.00155   0.00000  -0.02240  -0.02190   1.68110
   D19       -0.52782   0.00057   0.00000   0.00138   0.00141  -0.52641
   D20        0.90881  -0.00044   0.00000  -0.03763  -0.03864   0.87017
   D21       -1.13838  -0.00136   0.00000  -0.05127  -0.05222  -1.19060
   D22        2.91397   0.00076   0.00000  -0.02748  -0.02891   2.88507
   D23        2.96707   0.00078   0.00000   0.03335   0.03323   3.00030
   D24       -1.20481   0.00009   0.00000   0.02652   0.02645  -1.17836
   D25        0.87286  -0.00192   0.00000   0.00868   0.00868   0.88154
   D26        0.92553   0.00332   0.00000   0.04532   0.04524   0.97077
   D27        3.03683   0.00263   0.00000   0.03849   0.03846   3.07530
   D28       -1.16868   0.00061   0.00000   0.02065   0.02069  -1.14799
   D29       -1.08453   0.00232   0.00000   0.00960   0.00957  -1.07496
   D30        1.02678   0.00163   0.00000   0.00277   0.00279   1.02956
   D31        3.10444  -0.00038   0.00000  -0.01507  -0.01498   3.08946
   D32       -2.90279  -0.00124   0.00000  -0.01455  -0.01435  -2.91714
   D33       -0.86513   0.00204   0.00000   0.02217   0.02194  -0.84319
   D34        1.30938   0.00039   0.00000   0.00000  -0.00001   1.30937
   D35       -0.90301  -0.00195   0.00000  -0.02981  -0.02983  -0.93284
   D36        1.13465   0.00133   0.00000   0.00690   0.00646   1.14111
   D37       -2.97403  -0.00032   0.00000  -0.01527  -0.01549  -2.98952
   D38        1.10793   0.00093   0.00000   0.00888   0.00894   1.11687
   D39       -3.13759   0.00420   0.00000   0.04560   0.04522  -3.09236
   D40       -0.96308   0.00255   0.00000   0.02343   0.02328  -0.93980
   D41        0.95664   0.00086   0.00000   0.00000   0.00001   0.95665
   D42        3.08210   0.00072   0.00000   0.00765   0.00762   3.08972
   D43       -1.13757  -0.00108   0.00000  -0.01644  -0.01641  -1.15398
   D44       -1.15713   0.00185   0.00000   0.01826   0.01833  -1.13880
   D45        0.96833   0.00171   0.00000   0.02591   0.02594   0.99427
   D46        3.03184  -0.00009   0.00000   0.00182   0.00192   3.03375
   D47        3.06098   0.00073   0.00000   0.00495   0.00490   3.06588
   D48       -1.09674   0.00059   0.00000   0.01260   0.01251  -1.08424
   D49        0.96676  -0.00122   0.00000  -0.01149  -0.01152   0.95525
   D50       -0.92192  -0.00083   0.00000   0.00000   0.00001  -0.92191
   D51        1.18386  -0.00150   0.00000  -0.01124  -0.01123   1.17263
   D52       -3.04844  -0.00103   0.00000  -0.00861  -0.00862  -3.05706
   D53       -3.04902   0.00017   0.00000   0.00069   0.00069  -3.04833
   D54       -0.94325  -0.00050   0.00000  -0.01055  -0.01055  -0.95379
   D55        1.10764  -0.00003   0.00000  -0.00792  -0.00794   1.09970
   D56        1.17622   0.00026   0.00000   0.00804   0.00807   1.18429
   D57       -3.00120  -0.00041   0.00000  -0.00320  -0.00317  -3.00436
   D58       -0.95030   0.00006   0.00000  -0.00057  -0.00056  -0.95086
   D59        0.98801  -0.00117   0.00000  -0.01633  -0.01628   0.97173
   D60        3.09678  -0.00095   0.00000  -0.01679  -0.01687   3.07990
   D61       -1.13097   0.00028   0.00000  -0.00494  -0.00487  -1.13584
   D62       -1.11519  -0.00145   0.00000  -0.01674  -0.01668  -1.13187
   D63        0.99358  -0.00124   0.00000  -0.01720  -0.01727   0.97630
   D64        3.04902  -0.00000   0.00000  -0.00536  -0.00527   3.04375
   D65        3.11576  -0.00040   0.00000  -0.00469  -0.00465   3.11110
   D66       -1.05866  -0.00019   0.00000  -0.00515  -0.00524  -1.06391
   D67        0.99678   0.00105   0.00000   0.00670   0.00676   1.00354
   D68       -1.05272  -0.00029   0.00000   0.00596   0.00600  -1.04672
   D69       -3.12977   0.00147   0.00000   0.01214   0.01173  -3.11803
   D70        1.07844   0.00128   0.00000   0.00947   0.00953   1.08798
   D71        3.12183  -0.00147   0.00000  -0.00337  -0.00326   3.11857
   D72        1.04478   0.00029   0.00000   0.00281   0.00248   1.04726
   D73       -1.03020   0.00010   0.00000   0.00014   0.00028  -1.02992
   D74        1.06589  -0.00058   0.00000   0.00518   0.00534   1.07123
   D75       -1.01116   0.00118   0.00000   0.01137   0.01108  -1.00008
   D76       -3.08614   0.00098   0.00000   0.00869   0.00888  -3.07726
   D77       -1.17217   0.00477   0.00000   0.00000  -0.00001  -1.17218
   D78        3.06762   0.00028   0.00000  -0.01636  -0.01643   3.05119
   D79        1.01498  -0.00028   0.00000  -0.03838  -0.03871   0.97627
   D80        0.14965   0.00185   0.00000   0.00735   0.00729   0.15694
   D81       -2.99272  -0.00073   0.00000  -0.03562  -0.03537  -3.02809
         Item               Value     Threshold  Converged?
 Maximum Force            0.038077     0.000450     NO 
 RMS     Force            0.006960     0.000300     NO 
 Maximum Displacement     0.278787     0.001800     NO 
 RMS     Displacement     0.054116     0.001200     NO 
 Predicted change in Energy=-1.324125D-02
 GradGradGradGradGradGradGradGradGradGradGradGradGradGradGradGradGradGrad

                          Input orientation:                          
 ---------------------------------------------------------------------
 Center     Atomic      Atomic             Coordinates (Angstroms)
 Number     Number       Type             X           Y           Z
 ---------------------------------------------------------------------
      1          8           0       -3.490976   -1.418123   -0.267373
      2          7           0       -3.140267   -0.244820   -0.072415
      3          8           0       -3.897892    0.721570    0.105365
      4          6           0       -1.697169    0.001254   -0.031604
      5          6           0       -1.335973    1.280054    0.266006
      6          7           0       -0.073292    1.710503    0.410886
      7          6           0        1.204947    1.006011    0.370806
      8          1           0        1.835601    1.531941    1.105334
      9          6           0        1.922931    1.046680   -0.973235
     10          6           0        3.324708    0.448163   -0.805975
     11          6           0        3.266865   -0.961711   -0.204156
     12          6           0        2.454087   -0.995802    1.090813
     13          6           0        1.044041   -0.438260    0.855348
     14          1           0        0.479761   -0.446753    1.800386
     15          7           0        0.398970   -1.317106   -0.115470
     16          6           0       -0.842908   -1.117812   -0.408003
     17          1           0       -2.114381    2.019302    0.433383
     18          1           0        0.051922    2.715447    0.327035
     19          1           0        1.350432    0.471870   -1.709456
     20          1           0        1.983211    2.083107   -1.332184
     21          1           0        3.830596    0.423744   -1.777765
     22          1           0        3.916819    1.101773   -0.149858
     23          1           0        2.798957   -1.642804   -0.923530
     24          1           0        4.281081   -1.333480   -0.014554
     25          1           0        2.378206   -2.023962    1.462190
     26          1           0        2.952814   -0.400025    1.867117
     27          1           0       -1.323070   -1.856752   -1.052090
 ---------------------------------------------------------------------
                    Distance matrix (angstroms):
                    1          2          3          4          5
     1  O    0.000000
     2  N    1.240018   0.000000
     3  O    2.209706   1.240771   0.000000
     4  C    2.299557   1.464497   2.319655   0.000000
     5  C    3.494093   2.386471   2.627002   1.361750   0.000000
     6  N    4.682831   3.669224   3.962184   2.398814   1.341880
     7  C    5.323100   4.543337   5.117650   3.097377   2.557804
     8  H    6.241764   5.413246   5.876188   4.014485   3.290410
     9  C    5.990315   5.302397   5.928832   3.883903   3.494372
    10  C    7.087077   6.543258   7.285001   5.100845   4.854187
    11  C    6.773531   6.448460   7.366342   5.059517   5.141273
    12  C    6.112839   5.763148   6.653429   4.414393   4.497153
    13  C    4.773574   4.290291   5.131315   2.914462   2.994061
    14  H    4.581041   4.080780   4.837554   2.880263   2.938210
    15  N    3.894221   3.698357   4.761092   2.477681   3.146553
    16  C    2.668750   2.480442   3.602749   1.457308   2.539126
    17  H    3.768549   2.536636   2.229936   2.112533   1.086472
    18  H    5.476481   4.371820   4.430092   3.248812   1.997581
    19  H    5.393599   4.833211   5.558852   3.510632   3.431091
    20  H    6.584766   5.766826   6.205457   4.423891   3.770422
    21  H    7.699297   7.207505   7.960177   5.812380   5.621717
    22  H    7.825542   7.184830   7.828117   5.722061   5.272244
    23  H    6.328055   6.160611   7.176119   4.869661   5.201513
    24  H    7.776629   7.500996   8.434051   6.125461   6.201659
    25  H    6.148636   5.997825   6.983433   4.789739   5.112975
    26  H    6.864036   6.396210   7.161977   5.038700   4.876466
    27  H    2.346911   2.619216   3.823239   2.152563   3.402513
                    6          7          8          9         10
     6  N    0.000000
     7  C    1.460072   0.000000
     8  H    2.039120   1.101752   0.000000
     9  C    2.518205   1.524336   2.136248   0.000000
    10  C    3.823697   2.487849   2.654264   1.533355   0.000000
    11  C    4.321534   2.907579   3.159364   2.535997   1.534039
    12  C    3.764842   2.466985   2.602349   2.951975   2.537877
    13  C    2.462349   1.531859   2.137932   2.514202   2.957563
    14  H    2.624944   2.163358   2.497324   3.464975   3.960771
    15  N    3.109100   2.506579   3.416334   2.940357   3.486103
    16  C    3.043396   3.051373   4.060269   3.557299   4.469863
    17  H    2.064439   3.471112   4.036260   4.384570   5.795531
    18  H    1.016179   2.062415   2.277706   2.824209   4.139495
    19  H    2.838495   2.152664   3.046667   1.095528   2.171314
    20  H    2.721457   2.160093   2.503411   1.098480   2.179347
    21  H    4.656854   3.442299   3.677005   2.162060   1.095854
    22  H    4.075043   2.763062   2.468202   2.157911   1.099224
    23  H    4.612499   3.351476   3.888875   2.828995   2.159253
    24  H    5.329859   3.883854   3.930033   3.484983   2.171462
    25  H    4.589261   3.427593   3.614722   3.945557   3.485949
    26  H    3.966390   2.696465   2.358171   3.349808   2.828984
    27  H    4.053092   4.075649   5.110276   4.355761   5.193751
                   11         12         13         14         15
    11  C    0.000000
    12  C    1.529286   0.000000
    13  C    2.517439   1.534447   0.000000
    14  H    3.471501   2.168619   1.100718   0.000000
    15  N    2.891193   2.404551   1.459786   2.105836   0.000000
    16  C    4.117786   3.623743   2.370322   2.660217   1.291338
    17  H    6.184716   5.513073   4.024090   3.831409   4.213050
    18  H    4.913198   4.486326   3.348027   3.514728   4.071576
    19  H    2.827331   3.348675   2.738692   3.731075   2.578081
    20  H    3.491580   3.946178   3.467655   4.298086   3.943559
    21  H    2.171066   3.484054   3.929533   4.978857   4.191639
    22  H    2.164106   2.842300   3.411011   4.244378   4.269358
    23  H    1.095593   2.143624   2.773997   3.772124   2.553229
    24  H    1.096720   2.161891   3.469377   4.304686   3.883457
    25  H    2.166749   1.095807   2.159330   2.491196   2.627934
    26  H    2.168938   1.098329   2.160683   2.474394   3.360627
    27  H    4.752642   4.427210   3.354647   3.657173   2.033199
                   16         17         18         19         20
    16  C    0.000000
    17  H    3.487988   0.000000
    18  H    4.004357   2.277893   0.000000
    19  H    3.005263   4.357894   3.296523   0.000000
    20  H    4.368860   4.462237   2.623497   1.771673   0.000000
    21  H    5.108256   6.540469   4.894943   2.481571   2.522867
    22  H    5.258156   6.128410   4.215306   3.068464   2.469768
    23  H    3.715449   6.276394   5.301364   2.680997   3.835994
    24  H    5.143596   7.234897   5.864834   3.836754   4.323126
    25  H    3.833316   6.131050   5.400202   4.164713   4.983228
    26  H    4.483179   5.795274   4.526940   4.014935   4.164325
    27  H    1.091529   4.225707   4.969667   3.605860   5.150964
                   21         22         23         24         25
    21  H    0.000000
    22  H    1.765571   0.000000
    23  H    2.462644   3.062823   0.000000
    24  H    2.529760   2.466059   1.765959   0.000000
    25  H    4.312542   3.838782   2.452341   2.505688   0.000000
    26  H    3.838524   2.693119   3.058739   2.485220   1.769552
    27  H    5.682213   6.084681   4.129578   5.723357   4.477613
                   26         27
    26  H    0.000000
    27  H    5.378384   0.000000
 Symmetry turned off by external request.
 Stoichiometry    C9H13N3O2
 Framework group  C1[X(C9H13N3O2)]
 Deg. of freedom    75
 Full point group                 C1      NOp   1
 Rotational constants (GHZ):           1.6956322           0.4189214           0.3712068
 Standard basis: 6-31G(d) (6D, 7F)
   236 basis functions,   444 primitive gaussians,   236 cartesian basis functions
    52 alpha electrons       52 beta electrons
       nuclear repulsion energy       931.6641179428 Hartrees.
 NAtoms=   27 NActive=   27 NUniq=   27 SFac= 1.00D+00 NAtFMM=   60 NAOKFM=F Big=F
 Integral buffers will be    131072 words long.
 Raffenetti 1 integral format.
 Two-electron integral symmetry is turned off.
 One-electron integrals computed using PRISM.
 NBasis=   236 RedAO= T EigKep=  1.03D-03  NBF=   236
 NBsUse=   236 1.00D-06 EigRej= -1.00D+00 NBFU=   236
 Initial guess from the checkpoint file:  "/home/alexey/tmp/Gau-1377765.chk"
 B after Tr=     0.053934    0.004588   -0.000555
         Rot=    0.999998   -0.001410    0.000719    0.000972 Ang=  -0.21 deg.
 ExpMin= 1.61D-01 ExpMax= 5.48D+03 ExpMxC= 8.25D+02 IAcc=3 IRadAn=         5 AccDes= 0.00D+00
 Harris functional with IExCor=  205 and IRadAn=       5 diagonalized for initial guess.
 HarFok:  IExCor=  205 AccDes= 0.00D+00 IRadAn=         5 IDoV= 1 UseB2=F ITyADJ=14
 ICtDFT=  3500011 ScaDFX=  1.000000  1.000000  1.000000  1.000000
 FoFCou: FMM=F IPFlag=           0 FMFlag=      100000 FMFlg1=           0
         NFxFlg=           0 DoJE=T BraDBF=F KetDBF=T FulRan=T
         wScrn=  0.000000 ICntrl=       500 IOpCl=  0 I1Cent=   200000004 NGrid=           0
         NMat0=    1 NMatS0=      1 NMatT0=    0 NMatD0=    1 NMtDS0=    0 NMtDT0=    0
 Symmetry not used in FoFCou.
 Keep R1 ints in memory in canonical form, NReq=397720213.
 Requested convergence on RMS density matrix=1.00D-08 within 128 cycles.
 Requested convergence on MAX density matrix=1.00D-06.
 Requested convergence on             energy=1.00D-06.
 No special actions if energy rises.
 SCF Done:  E(RHF) =  -661.297857401     A.U. after   15 cycles
            NFock= 15  Conv=0.39D-08     -V/T= 2.0024
 ExpMin= 1.61D-01 ExpMax= 5.48D+03 ExpMxC= 8.25D+02 IAcc=3 IRadAn=         5 AccDes= 0.00D+00
 HarFok:  IExCor=  205 AccDes= 0.00D+00 IRadAn=         5 IDoV=-2 UseB2=F ITyADJ=14
 ICtDFT= 12500011 ScaDFX=  1.000000  1.000000  1.000000  1.000000
 Range of M.O.s used for correlation:    15   236
 NBasis=   236 NAE=    52 NBE=    52 NFC=    14 NFV=     0
 NROrb=    222 NOA=    38 NOB=    38 NVA=   184 NVB=   184
 Fully direct method using O(ONN) memory.
 JobTyp=1 Pass  1:  I=  15 to  52 NPSUse=  4 ParTrn=T ParDer=T DoDerP=T.
 Spin components of T(2) and E(2):
     alpha-alpha T2 =       0.9128776204D-01 E2=     -0.2723785706D+00
     alpha-beta  T2 =       0.4913364361D+00 E2=     -0.1488089385D+01
     beta-beta   T2 =       0.9128776204D-01 E2=     -0.2723785706D+00
 ANorm=    0.1293797496D+01
 E2 =    -0.2032846527D+01 EUMP2 =    -0.66333070392779D+03
          IDoAtm=111111111111111111111111111
          Differentiating once with respect to electric field.
                with respect to dipole field.
          Differentiating once with respect to nuclear coordinates.
 Keep R1 ints in memory in canonical form, NReq=397723379.
          There are     1 degrees of freedom in the 1st order CPHF.  IDoFFX=0 NUNeed=     1.
 LinEq1:  Iter=  0 NonCon=     1 RMS=4.58D-03 Max=1.04D-01 NDo=     1
 AX will form     1 AO Fock derivatives at one time.
 LinEq1:  Iter=  1 NonCon=     1 RMS=1.53D-03 Max=2.81D-02 NDo=     1
 LinEq1:  Iter=  2 NonCon=     1 RMS=6.43D-04 Max=1.76D-02 NDo=     1
 LinEq1:  Iter=  3 NonCon=     1 RMS=2.81D-04 Max=8.34D-03 NDo=     1
 LinEq1:  Iter=  4 NonCon=     1 RMS=8.73D-05 Max=1.99D-03 NDo=     1
 LinEq1:  Iter=  5 NonCon=     1 RMS=3.66D-05 Max=1.79D-03 NDo=     1
 LinEq1:  Iter=  6 NonCon=     1 RMS=1.43D-05 Max=5.37D-04 NDo=     1
 LinEq1:  Iter=  7 NonCon=     1 RMS=5.40D-06 Max=9.63D-05 NDo=     1
 LinEq1:  Iter=  8 NonCon=     1 RMS=2.10D-06 Max=4.55D-05 NDo=     1
 LinEq1:  Iter=  9 NonCon=     1 RMS=7.28D-07 Max=2.15D-05 NDo=     1
[...]
    27  H    4.716958   4.417711   3.360193   3.666895   2.027940
                   16         17         18         19         20
    16  C    0.000000
    17  H    3.473344   0.000000
    18  H    4.042676   2.221405   0.000000
    19  H    2.980580   4.317003   3.485545   0.000000
    20  H    4.365922   4.459613   2.873590   1.769084   0.000000
    21  H    5.090083   6.524418   5.071431   2.499455   2.521467
    22  H    5.243949   6.112669   4.304639   3.070392   2.462003
    23  H    3.697679   6.254314   5.395640   2.706647   3.845126
    24  H    5.136449   7.217859   5.917258   3.850926   4.317995
    25  H    3.830000   6.110670   5.349734   4.174600   4.990926
    26  H    4.500355   5.803033   4.477190   4.042519   4.192351
    27  H    1.089929   4.227210   5.034052   3.564970   5.132114
                   21         22         23         24         25
    21  H    0.000000
    22  H    1.758649   0.000000
    23  H    2.468239   3.062017   0.000000
    24  H    2.515928   2.458963   1.764408   0.000000
    25  H    4.312671   3.843420   2.442719   2.520653   0.000000
    26  H    3.850584   2.710933   3.060213   2.490058   1.767939
    27  H    5.636816   6.048707   4.083788   5.689748   4.457462
                   26         27
    26  H    0.000000
    27  H    5.378962   0.000000
 Symmetry turned off by external request.
 Stoichiometry    C9H13N3O2
 Framework group  C1[X(C9H13N3O2)]
 Deg. of freedom    75
 Full point group                 C1      NOp   1
 Rotational constants (GHZ):           1.6881740           0.4168660           0.3711569

 **********************************************************************

            Population analysis using the SCF Density.

 **********************************************************************

 Alpha  occ. eigenvalues --  -20.59170 -20.58811 -15.84655 -15.64086 -15.56139
 Alpha  occ. eigenvalues --  -11.35157 -11.29711 -11.29608 -11.28540 -11.27076
 Alpha  occ. eigenvalues --  -11.23819 -11.23274 -11.22660 -11.22111  -1.57038
 Alpha  occ. eigenvalues --   -1.36631  -1.31144  -1.22893  -1.14755  -1.09782
 Alpha  occ. eigenvalues --   -1.02919  -1.01366  -0.94484  -0.89655  -0.85668
 Alpha  occ. eigenvalues --   -0.82419  -0.78614  -0.77341  -0.75197  -0.71716
 Alpha  occ. eigenvalues --   -0.69709  -0.69403  -0.67912  -0.64971  -0.63707
 Alpha  occ. eigenvalues --   -0.62631  -0.60274  -0.57863  -0.56981  -0.55015
 Alpha  occ. eigenvalues --   -0.54560  -0.50802  -0.50178  -0.48618  -0.48066
 Alpha  occ. eigenvalues --   -0.47331  -0.46157  -0.46086  -0.43620  -0.41703
 Alpha  occ. eigenvalues --   -0.39756  -0.33723
 Alpha virt. eigenvalues --    0.07443   0.11786   0.17322   0.21847   0.24029
 Alpha virt. eigenvalues --    0.25650   0.27129   0.28597   0.29020   0.29614
 Alpha virt. eigenvalues --    0.30577   0.31799   0.31985   0.32775   0.33878
 Alpha virt. eigenvalues --    0.34331   0.35884   0.37410   0.38483   0.40233
 Alpha virt. eigenvalues --    0.41312   0.42529   0.45192   0.46159   0.46342
 Alpha virt. eigenvalues --    0.46998   0.48953   0.53924   0.57577   0.59419
 Alpha virt. eigenvalues --    0.63921   0.69449   0.69733   0.72776   0.74173
 Alpha virt. eigenvalues --    0.74899   0.75692   0.76760   0.78702   0.79311
 Alpha virt. eigenvalues --    0.81364   0.84520   0.85729   0.86082   0.88327
 Alpha virt. eigenvalues --    0.89260   0.91038   0.92022   0.92890   0.94504
 Alpha virt. eigenvalues --    0.95688   0.97992   0.99555   1.01691   1.02451
 Alpha virt. eigenvalues --    1.03110   1.05765   1.06948   1.07698   1.09084
 Alpha virt. eigenvalues --    1.10232   1.11607   1.11790   1.12419   1.13871
 Alpha virt. eigenvalues --    1.14808   1.14929   1.15967   1.16834   1.18728
 Alpha virt. eigenvalues --    1.19130   1.21367   1.22511   1.23712   1.24381
 Alpha virt. eigenvalues --    1.24863   1.26032   1.26843   1.27484   1.29541
 Alpha virt. eigenvalues --    1.30002   1.32970   1.36232   1.37244   1.40727
 Alpha virt. eigenvalues --    1.41612   1.46421   1.48814   1.51877   1.54312
 Alpha virt. eigenvalues --    1.56634   1.59089   1.59515   1.63243   1.66157
 Alpha virt. eigenvalues --    1.68143   1.68493   1.72591   1.75324   1.77299
 Alpha virt. eigenvalues --    1.81668   1.84191   1.87288   1.90433   1.93757
 Alpha virt. eigenvalues --    1.95711   1.96977   1.99539   2.01583   2.01842
 Alpha virt. eigenvalues --    2.05014   2.05678   2.08610   2.10235   2.12412
 Alpha virt. eigenvalues --    2.13274   2.15600   2.19346   2.19860   2.22010
 Alpha virt. eigenvalues --    2.22897   2.24577   2.25472   2.27966   2.29123
 Alpha virt. eigenvalues --    2.31747   2.33642   2.34278   2.36603   2.38525
 Alpha virt. eigenvalues --    2.40915   2.42006   2.43877   2.45154   2.47117
 Alpha virt. eigenvalues --    2.51032   2.51856   2.52903   2.55022   2.61380
 Alpha virt. eigenvalues --    2.62107   2.65541   2.67627   2.69987   2.70503
 Alpha virt. eigenvalues --    2.72168   2.72586   2.77185   2.78442   2.84022
 Alpha virt. eigenvalues --    2.86940   2.88850   2.92692   2.93251   2.96200
 Alpha virt. eigenvalues --    2.99008   3.01663   3.04566   3.05628   3.07836
 Alpha virt. eigenvalues --    3.09498   3.15271   3.20986   3.25349   3.27120
 Alpha virt. eigenvalues --    3.33475   3.37928   3.39873   3.52028   3.66206
 Alpha virt. eigenvalues --    4.13522   4.28343   4.34152   4.38588   4.46186
 Alpha virt. eigenvalues --    4.55935   4.61683   4.62367   4.73416   4.80068
 Alpha virt. eigenvalues --    4.99329   5.00765   5.05300   5.11144
          Condensed to atoms (all electrons):
               1          2          3          4          5          6
     1  O    8.316487   0.307326  -0.082229  -0.085463   0.004630  -0.000017
     2  N    0.307326   5.722271   0.300984   0.263644  -0.052930   0.000971
     3  O   -0.082229   0.300984   8.354554  -0.093613   0.005155   0.000792
     4  C   -0.085463   0.263644  -0.093613   5.231312   0.561861  -0.051000
     5  C    0.004630  -0.052930   0.005155   0.561861   4.698717   0.319146
     6  N   -0.000017   0.000971   0.000792  -0.051000   0.319146   7.206305
     7  C    0.000003  -0.000118   0.000003   0.004785  -0.026534   0.165141
     8  H   -0.000000   0.000002  -0.000000  -0.000281   0.002921  -0.050561
     9  C   -0.000000  -0.000004  -0.000000   0.000900   0.000586  -0.059611
    10  C    0.000000   0.000000   0.000000  -0.000041  -0.000043   0.003745
    11  C   -0.000000  -0.000000  -0.000000  -0.000024   0.000025  -0.000194
    12  C   -0.000000   0.000002  -0.000000  -0.000177  -0.000137   0.004002
    13  C   -0.000023  -0.000041  -0.000003  -0.010603  -0.000834  -0.054186
    14  H   -0.000003  -0.000099   0.000001   0.002635   0.005862  -0.007429
    15  N    0.000382   0.002252  -0.000015  -0.063028  -0.005758   0.001634
    16  C    0.000739  -0.026976   0.002550   0.325891  -0.049844  -0.001966
    17  H    0.000183  -0.006513   0.016378  -0.021374   0.373763  -0.033870
    18  H    0.000001  -0.000056   0.000012   0.001764  -0.033204   0.338431
    19  H    0.000001  -0.000004   0.000000  -0.001180   0.001166  -0.000428
    20  H    0.000000  -0.000000   0.000000  -0.000070   0.000098  -0.000319
    21  H   -0.000000   0.000000  -0.000000   0.000001   0.000001  -0.000076
    22  H   -0.000000   0.000000  -0.000000   0.000000  -0.000003  -0.000115
    23  H    0.000000  -0.000000   0.000000   0.000040  -0.000001  -0.000032
    24  H    0.000000   0.000000   0.000000   0.000000  -0.000000   0.000006
    25  H    0.000000  -0.000000   0.000000   0.000025  -0.000002  -0.000097
    26  H    0.000000  -0.000000   0.000000   0.000007  -0.000002  -0.000067
    27  H    0.006353  -0.000933   0.000024  -0.064392   0.002249   0.000022
               7          8          9         10         11         12
     1  O    0.000003  -0.000000  -0.000000   0.000000  -0.000000  -0.000000
     2  N   -0.000118   0.000002  -0.000004   0.000000  -0.000000   0.000002
     3  O    0.000003  -0.000000  -0.000000   0.000000  -0.000000  -0.000000
     4  C    0.004785  -0.000281   0.000900  -0.000041  -0.000024  -0.000177
     5  C   -0.026534   0.002921   0.000586  -0.000043   0.000025  -0.000137
     6  N    0.165141  -0.050561  -0.059611   0.003745  -0.000194   0.004002
     7  C    5.013619   0.418262   0.351915  -0.055006  -0.009092  -0.061888
     8  H    0.418262   0.535400  -0.054378   0.000878  -0.000269  -0.001782
     9  C    0.351915  -0.054378   5.155440   0.324638  -0.050320  -0.005207
    10  C   -0.055006   0.000878   0.324638   5.120144   0.337047  -0.060452
    11  C   -0.009092  -0.000269  -0.050320   0.337047   5.119836   0.335881
    12  C   -0.061888  -0.001782  -0.005207  -0.060452   0.335881   5.117886
    13  C    0.339978  -0.037507  -0.059648  -0.000496  -0.050542   0.371595
    14  H   -0.045856  -0.000733   0.004299  -0.000398   0.004206  -0.036372
    15  N   -0.057454   0.003896  -0.015225   0.001557  -0.012915  -0.081849
    16  C   -0.001967   0.000030  -0.001485  -0.000018   0.000017   0.002621
    17  H    0.001409  -0.000037  -0.000061   0.000001   0.000000   0.000000
    18  H   -0.022544  -0.004760   0.001115  -0.000085   0.000004  -0.000126
    19  H   -0.036804   0.004318   0.390444  -0.031923  -0.002161   0.000699
    20  H   -0.042610  -0.002199   0.399133  -0.035180   0.003904  -0.000426
    21  H    0.004612  -0.000084  -0.036333   0.402489  -0.034804   0.004305
    22  H   -0.004818   0.003519  -0.046918   0.397558  -0.045438  -0.000932
    23  H    0.000610   0.000032  -0.001956  -0.039057   0.399018  -0.037691
    24  H   -0.000128  -0.000098   0.004378  -0.038532   0.402451  -0.038692
    25  H    0.005147  -0.000040  -0.000414   0.004157  -0.033424   0.397974
    26  H   -0.003756   0.001657   0.000951  -0.002146  -0.041694   0.396945
    27  H   -0.000405   0.000009  -0.000062   0.000007   0.000012  -0.000034
              13         14         15         16         17         18
     1  O   -0.000023  -0.000003   0.000382   0.000739   0.000183   0.000001
     2  N   -0.000041  -0.000099   0.002252  -0.026976  -0.006513  -0.000056
     3  O   -0.000003   0.000001  -0.000015   0.002550   0.016378   0.000012
     4  C   -0.010603   0.002635  -0.063028   0.325891  -0.021374   0.001764
     5  C   -0.000834   0.005862  -0.005758  -0.049844   0.373763  -0.033204
     6  N   -0.054186  -0.007429   0.001634  -0.001966  -0.033870   0.338431
     7  C    0.339978  -0.045856  -0.057454  -0.001967   0.001409  -0.022544
     8  H   -0.037507  -0.000733   0.003896   0.000030  -0.000037  -0.004760
     9  C   -0.059648   0.004299  -0.015225  -0.001485  -0.000061   0.001115
    10  C   -0.000496  -0.000398   0.001557  -0.000018   0.000001  -0.000085
    11  C   -0.050542   0.004206  -0.012915   0.000017   0.000000   0.000004
    12  C    0.371595  -0.036372  -0.081849   0.002621   0.000000  -0.000126
    13  C    5.042190   0.403645   0.242946  -0.070335  -0.000030   0.003527
    14  H    0.403645   0.525094  -0.036975  -0.004245   0.000094  -0.000098
    15  N    0.242946  -0.036975   6.968303   0.584593  -0.000069  -0.000143
    16  C   -0.070335  -0.004245   0.584593   4.712990   0.001995  -0.000206
    17  H   -0.000030   0.000094  -0.000069   0.001995   0.373773  -0.003049
    18  H    0.003527  -0.000098  -0.000143  -0.000206  -0.003049   0.317911
    19  H   -0.007496   0.000102   0.007792   0.003065   0.000016  -0.000145
    20  H    0.004364  -0.000064   0.000132  -0.000040   0.000001   0.000949
    21  H   -0.000417   0.000010  -0.000045   0.000004  -0.000000   0.000001
    22  H   -0.000007  -0.000055   0.000021  -0.000002   0.000000   0.000001
    23  H   -0.007549  -0.000000   0.008560   0.000098   0.000000   0.000000
    24  H    0.004692  -0.000056   0.000140   0.000007   0.000000  -0.000000
    25  H   -0.035321  -0.002710   0.000354  -0.000030  -0.000000   0.000003
    26  H   -0.047659  -0.001081   0.004908  -0.000060   0.000000  -0.000000
    27  H    0.005076  -0.000175  -0.040697   0.404185  -0.000076   0.000001
              19         20         21         22         23         24
     1  O    0.000001   0.000000  -0.000000  -0.000000   0.000000   0.000000
     2  N   -0.000004  -0.000000   0.000000   0.000000  -0.000000   0.000000
     3  O    0.000000   0.000000  -0.000000  -0.000000   0.000000   0.000000
     4  C   -0.001180  -0.000070   0.000001   0.000000   0.000040   0.000000
     5  C    0.001166   0.000098   0.000001  -0.000003  -0.000001  -0.000000
     6  N   -0.000428  -0.000319  -0.000076  -0.000115  -0.000032   0.000006
     7  C   -0.036804  -0.042610   0.004612  -0.004818   0.000610  -0.000128
     8  H    0.004318  -0.002199  -0.000084   0.003519   0.000032  -0.000098
     9  C    0.390444   0.399133  -0.036333  -0.046918  -0.001956   0.004378
    10  C   -0.031923  -0.035180   0.402489   0.397558  -0.039057  -0.038532
    11  C   -0.002161   0.003904  -0.034804  -0.045438   0.399018   0.402451
    12  C    0.000699  -0.000426   0.004305  -0.000932  -0.037691  -0.038692
    13  C   -0.007496   0.004364  -0.000417  -0.000007  -0.007549   0.004692
    14  H    0.000102  -0.000064   0.000010  -0.000055  -0.000000  -0.000056
    15  N    0.007792   0.000132  -0.000045   0.000021   0.008560   0.000140
    16  C    0.003065  -0.000040   0.000004  -0.000002   0.000098   0.000007
    17  H    0.000016   0.000001  -0.000000   0.000000   0.000000   0.000000
    18  H   -0.000145   0.000949   0.000001   0.000001   0.000000  -0.000000
    19  H    0.503336  -0.024758  -0.002812   0.003953   0.001510  -0.000066
    20  H   -0.024758   0.541659  -0.002667  -0.002989  -0.000045  -0.000083
    21  H   -0.002812  -0.002667   0.523243  -0.027372  -0.002898  -0.002238
    22  H    0.003953  -0.002989  -0.027372   0.571282   0.004144  -0.003677
    23  H    0.001510  -0.000045  -0.002898   0.004144   0.499147  -0.025484
    24  H   -0.000066  -0.000083  -0.002238  -0.003677  -0.025484   0.538077
    25  H   -0.000029   0.000013  -0.000086  -0.000080  -0.002338  -0.002268
    26  H    0.000020  -0.000029  -0.000081   0.002373   0.004074  -0.003068
    27  H    0.000084   0.000000  -0.000000   0.000000  -0.000037  -0.000000
              25         26         27
     1  O    0.000000   0.000000   0.006353
     2  N   -0.000000  -0.000000  -0.000933
     3  O    0.000000   0.000000   0.000024
     4  C    0.000025   0.000007  -0.064392
     5  C   -0.000002  -0.000002   0.002249
     6  N   -0.000097  -0.000067   0.000022
     7  C    0.005147  -0.003756  -0.000405
     8  H   -0.000040   0.001657   0.000009
     9  C   -0.000414   0.000951  -0.000062
    10  C    0.004157  -0.002146   0.000007
    11  C   -0.033424  -0.041694   0.000012
    12  C    0.397974   0.396945  -0.000034
    13  C   -0.035321  -0.047659   0.005076
    14  H   -0.002710  -0.001081  -0.000175
    15  N    0.000354   0.004908  -0.040697
    16  C   -0.000030  -0.000060   0.404185
    17  H   -0.000000   0.000000  -0.000076
    18  H    0.000003  -0.000000   0.000001
    19  H   -0.000029   0.000020   0.000084
    20  H    0.000013  -0.000029   0.000000
    21  H   -0.000086  -0.000081  -0.000000
    22  H   -0.000080   0.002373   0.000000
    23  H   -0.002338   0.004074  -0.000037
    24  H   -0.002268  -0.003068  -0.000000
    25  H    0.506809  -0.024145  -0.000013
    26  H   -0.024145   0.563036   0.000001
    27  H   -0.000013   0.000001   0.440439
 Mulliken charges:
               1
     1  O   -0.468371
     2  N    0.490220
     3  O   -0.504592
     4  C   -0.001619
     5  C    0.193114
     6  N   -0.780227
     7  C    0.063495
     8  H    0.181806
     9  C   -0.302176
    10  C   -0.328846
    11  C   -0.321521
    12  C   -0.306145
    13  C   -0.035315
    14  H    0.190403
    15  N   -0.513296
    16  C    0.118391
    17  H    0.297464
    18  H    0.400696
    19  H    0.191301
    20  H    0.161226
    21  H    0.175248
    22  H    0.149556
    23  H    0.199854
    24  H    0.164639
    25  H    0.186516
    26  H    0.149818
    27  H    0.248362
 Sum of Mulliken charges =  -0.00000
 Mulliken charges with hydrogens summed into heavy atoms:
               1
     1  O   -0.468371
     2  N    0.490220
     3  O   -0.504592
     4  C   -0.001619
     5  C    0.490578
     6  N   -0.379531
     7  C    0.245301
     9  C    0.050351
    10  C   -0.004042
    11  C    0.042971
    12  C    0.030189
    13  C    0.155088
    15  N   -0.513296
    16  C    0.366753
 Electronic spatial extent (au):  <R**2>=           3014.3118
 Charge=             -0.0000 electrons
 Dipole moment (field-independent basis, Debye):
    X=              5.4761    Y=              4.8508    Z=              1.2713  Tot=              7.4252
 Quadrupole moment (field-independent basis, Debye-Ang):
   XX=           -106.2773   YY=            -79.2331   ZZ=            -81.5468
   XY=             -1.8820   XZ=             -0.3851   YZ=              1.6891
 Traceless Quadrupole moment (field-independent basis, Debye-Ang):
   XX=            -17.2582   YY=              9.7860   ZZ=              7.4723
   XY=             -1.8820   XZ=             -0.3851   YZ=              1.6891
 Octapole moment (field-independent basis, Debye-Ang**2):
  XXX=             94.5774  YYY=             36.0378  ZZZ=             -1.4953  XYY=             -4.4596
  XXY=             10.0012  XXZ=              5.7824  XZZ=             -9.3737  YZZ=             -0.3280
  YYZ=              7.7831  XYZ=              0.4234
 Hexadecapole moment (field-independent basis, Debye-Ang**3):
 XXXX=          -3403.4063 YYYY=           -597.7953 ZZZZ=           -306.4262 XXXY=            -19.9697
 XXXZ=            -20.7624 YYYX=             -9.1482 YYYZ=             22.9732 ZZZX=             -1.7284
 ZZZY=              6.2743 XXYY=           -628.7317 XXZZ=           -527.0971 YYZZ=           -157.1455
 XXYZ=             -4.8674 YYXZ=             -0.2020 ZZXY=              4.7664
 N-N= 9.308035449559D+02 E-N=-3.408322795255D+03  KE= 6.596271100721D+02
 Unable to Open any file for archive entry.
 1\1\GINC-LOTUS\FOpt\RMP2-FC\6-31G(d)\C9H13N3O2\ALEXEY\01-Jul-2023\0\\#
 MP2/6-31G* SCF=Tight Opt=(ModRedun, MaxCycle=20 ) NoSymm\\MolName:\\0,
 1\O,-3.5126320213,-1.391186593,-0.4001839648\N,-3.1326073433,-0.234337
 0102,-0.1336875983\O,-3.9105178517,0.7240584422,0.0410962757\C,-1.7031
 798852,-0.0187136379,-0.0070043228\C,-1.3209366982,1.2667108407,0.2836
 804723\N,-0.0632999286,1.712820269,0.4057083319\C,1.215379717,1.025844
 7181,0.3605008279\H,1.8560620997,1.5679604405,1.0717990453\C,1.9101306
 352,1.0348473386,-0.9979814995\C,3.3081255928,0.4259394143,-0.83537830
 48\C,3.2618642778,-0.9691588135,-0.2050516128\C,2.4712742751,-0.980829
 117,1.1055739445\C,1.063798082,-0.4205063367,0.8755582124\H,0.48999734
 59,-0.3935131442,1.8149189217\N,0.4100834977,-1.3067039455,-0.08435549
 33\C,-0.8381777335,-1.1236411547,-0.3825693264\H,-2.0997744601,2.00878
 28663,0.430087138\H,0.0023209036,2.7044460521,0.6086639714\H,1.3127518
 738,0.455995331,-1.7100139072\H,1.9764271408,2.0619507524,-1.378198675
 3\H,3.8092227891,0.384782001,-1.8092003208\H,3.9107185961,1.0932618874
 ,-0.2027754854\H,2.7827374335,-1.6670029794,-0.89886639\H,4.2820317822
 ,-1.331449012,-0.0313098964\H,2.386169818,-2.0034139602,1.4878543962\H
 ,2.9857335687,-0.3853614175,1.8726119889\H,-1.2936835069,-1.8775732317
 ,-1.0244767285\\Version=ES64L-G16RevC.02\HF=-661.2993757\MP2=-663.3338
 031\RMSD=6.128e-09\RMSF=2.668e-03\Dipole=2.0065946,1.7061455,0.4666256
 \PG=C01 [X(C9H13N3O2)]\\@
 The archive entry for this job was punched.


 GOOD SENSE ABOUT TRIVIALITIES IS BETTER THAN NONSENSE
 ABOUT THINGS THAT MATTER

                                       -- MAX BEERBOHM
 Job cpu time:       0 days  1 hours  5 minutes 53.8 seconds.
 Elapsed time:       0 days  0 hours 19 minutes 53.5 seconds.
 File lengths (MBytes):  RWF=     36 Int=      0 D2E=      0 Chk=      7 Scr=      1
 Normal termination of Gaussian 16 at Sat Jul  1 20:14:19 2023.
