 Entering Gaussian System, Link 0=g16
 Initial command:
 /home/alexey/programs//g16/l1.exe "/home/alexey/tmp/Gau-1380155.inp" -scrdir="/home/alexey/tmp/"
 Entering Link 1 = /home/alexey/programs//g16/l1.exe PID=   1380157.
  
 Copyright (c) 1988-2021, Gaussian, Inc.  All Rights Reserved.
  
 This is part of the Gaussian(R) 16 program.  It is based on
 the Gaussian(R) 09 system (copyright 2009, Gaussian, Inc.),
 the Gaussian(R) 03 system (copyright 2003, Gaussian, Inc.),
 the Gaussian(R) 98 system (copyright 1998, Gaussian, Inc.),
 the Gaussian(R) 94 system (copyright 1995, Gaussian, Inc.),
 the Gaussian 92(TM) system (copyright 1992, Gaussian, Inc.),
 the Gaussian 90(TM) system (copyright 1990, Gaussian, Inc.),
 the Gaussian 88(TM) system (copyright 1988, Gaussian, Inc.),
 the Gaussian 86(TM) system (copyright 1986, Carnegie Mellon
 University), and the Gaussian 82(TM) system (copyright 1983,
 Carnegie Mellon University). Gaussian is a federally registered
 trademark of Gaussian, Inc.
  
 This software contains proprietary and confidential information,
 including trade secrets, belonging to Gaussian, Inc.
  
 This software is provided under written license and may be
 used, copied, transmitted, or stored only in accord with that
 written license.
  
 The following legend is applicable only to US Government
 contracts under FAR:
  
                    RESTRICTED RIGHTS LEGEND
  
 Use, reproduction and disclosure by the US Government is
 subject to restrictions as set forth in subparagraphs (a)
 and (c) of the Commercial Computer Software - Restricted
 Rights clause in FAR 52.227-19.
  
 Gaussian, Inc.
 340 Quinnipiac St., Bldg. 40, Wallingford CT 06492
  
  
 ---------------------------------------------------------------
 Warning -- This program may not be used in any manner that
 competes with the business of Gaussian, Inc. or will provide
 assistance to any competitor of Gaussian, Inc.  The licensee
 of this program is prohibited from giving any competitor of
 Gaussian, Inc. access to this program.  By using this program,
 the user acknowledges that Gaussian, Inc. is engaged in the
 business of creating and licensing software in the field of
 computational chemistry and represents and warrants to the
 licensee that it is not a competitor of Gaussian, Inc. and that
 it will not use this program in any manner prohibited above.
 ---------------------------------------------------------------
  

 Cite this work as:
 Gaussian 16, Revision C.02,
 M. J. Frisch, G. W. Trucks, H. B. Schlegel, G. E. Scuseria, 
 M. A. Robb, J. R. Cheeseman, G. Scalmani, V. Barone, 
 G. A. Petersson, H. Nakatsuji, X. Li, M. Caricato, A. V. Marenich, 
 J. Bloino, B. G. Janesko, R. Gomperts, B. Mennucci, H. P. Hratchian, 
 J. V. Ortiz, A. F. Izmaylov, J. L. Sonnenberg, D. Williams-Young, 
 F. Ding, F. Lipparini, F. Egidi, J. Goings, B. Peng, A. Petrone, 
 T. Henderson, D. Ranasinghe, V. G. Zakrzewski, J. Gao, N. Rega, 
 G. Zheng, W. Liang, M. Hada, M. Ehara, K. Toyota, R. Fukuda, 
 J. Hasegawa, M. Ishida, T. Nakajima, Y. Honda, O. Kitao, H. Nakai, 
 T. Vreven, K. Throssell, J. A. Montgomery, Jr., J. E. Peralta, 
 F. Ogliaro, M. J. Bearpark, J. J. Heyd, E. N. Brothers, K. N. Kudin, 
 V. N. Staroverov, T. A. Keith, R. Kobayashi, J. Normand, 
 K. Raghavachari, A. P. Rendell, J. C. Burant, S. S. Iyengar, 
 J. Tomasi, M. Cossi, J. M. Millam, M. Klene, C. Adamo, R. Cammi, 
 J. W. Ochterski, R. L. Martin, K. Morokuma, O. Farkas, 
 J. B. Foresman, and D. J. Fox, Gaussian, Inc., Wallingford CT, 2019.
 
 ******************************************
 Gaussian 16:  ES64L-G16RevC.02  7-Dec-2021
                 1-Jul-2023 
 ******************************************
 %mem=8GB
 %NPROCS=4
 Will use up to    4 processors via shared memory.
 %NoSave
 ---------------------------------------------------------
 #MP2/6-31G* SCF=Tight Opt=(ModRedun, MaxCycle=20 ) NoSymm
 ---------------------------------------------------------
 1/6=20,18=120,19=15,38=1/1,3;
 2/9=110,12=2,15=1,17=6,18=5,40=1/2;
 3/5=1,6=6,7=1,11=9,25=1,30=1,71=1/1,2,3;
 4//1;
 5/5=2,32=2,38=5/2;
 8/6=4,10=2/1;
 9/15=2,16=-3/6;
 10/5=1,31=1/2;
 6/7=2,8=2,9=2,10=2/1;
 7/12=2,30=1/1,2,3,16;
 1/6=20,18=20,19=15/3(2);
 2/9=110,15=1/2;
 99//99;
 2/9=110,15=1/2;
 3/5=1,6=6,7=1,11=9,25=1,30=1,71=1/1,2,3;
 4/5=5,16=3,69=1/1;
 5/5=2,32=2,38=5/2;
 8/6=4,10=2/1;
 9/15=2,16=-3/6;
 10/5=1,31=1/2;
 7/12=2,30=1/1,2,3,16;
 1/6=20,18=20,19=15/3(-8);
 2/9=110,15=1/2;
 6/7=2,8=2,9=2,10=2/1;
 99/9=10/99;
 --------
 MolName:
 --------
 Symbolic Z-matrix:
 Charge =  0 Multiplicity = 1
 8                    0    -3.63319  -1.42886  -0.24869 
 7                    0    -3.27473  -0.26487  -0.07921 
 8                    0    -4.05524   0.67847   0.05444 
 6                    0    -1.77464   0.01639  -0.04708 
 6                    0    -1.39278   1.32606   0.26984 
 7                    0    -0.08949   1.69626   0.43119 
 6                    0     1.21763   0.99831   0.37035 
 1                    0     1.88189   1.5094    1.11356 
 6                    0     1.9572    1.04383  -0.98836 
 6                    0     3.37097   0.4576   -0.81252 
 6                    0     3.31365  -0.95482  -0.20781 
 6                    0     2.48082  -0.98149   1.09291 
 6                    0     1.04121  -0.44593   0.86021 
 1                    0     0.50001  -0.48307   1.83442 
 7                    0     0.37557  -1.31993  -0.11382 
 6                    0    -0.87072  -1.11727  -0.41398 
 1                    0    -2.16762   2.08801   0.45695 
 1                    0     0.14859   2.68838   0.35931 
 1                    0     1.39716   0.46223  -1.75114 
 1                    0     2.036     2.09225  -1.34621 
 1                    0     3.89359   0.42627  -1.79352 
 1                    0     3.95729   1.11507  -0.13245 
 1                    0     2.85725  -1.64812  -0.94991 
 1                    0     4.34373  -1.31855  -0.00091 
 1                    0     2.42597  -2.02601   1.47051 
 1                    0     2.98463  -0.36696   1.86804 
 1                    0    -1.36675  -1.87864  -1.0351 
 
 The following ModRedundant input section has been read:
 A       5       6       7 F                                                   
 D       1       2       4      16 F                                           
 D       7      13      15      16 F                                           
 D       7       9      10      11 F                                           
 D       9      10      11      12 F                                           
 D       6       7      13      15 F                                           
 

 GradGradGradGradGradGradGradGradGradGradGradGradGradGradGradGradGradGrad
 Berny optimization.
 Initialization pass.
                           ----------------------------
                           !    Initial Parameters    !
                           ! (Angstroms and Degrees)  !
 --------------------------                            --------------------------
 ! Name  Definition              Value          Derivative Info.                !
 --------------------------------------------------------------------------------
 ! R1    R(1,2)                  1.2297         estimate D2E/DX2                !
 ! R2    R(2,3)                  1.2316         estimate D2E/DX2                !
 ! R3    R(2,4)                  1.5266         estimate D2E/DX2                !
 ! R4    R(4,5)                  1.4005         estimate D2E/DX2                !
 ! R5    R(4,16)                 1.4956         estimate D2E/DX2                !
 ! R6    R(5,6)                  1.3644         estimate D2E/DX2                !
 ! R7    R(5,17)                 1.1027         estimate D2E/DX2                !
 ! R8    R(6,7)                  1.483          estimate D2E/DX2                !
 ! R9    R(6,18)                 1.0228         estimate D2E/DX2                !
 ! R10   R(7,8)                  1.1202         estimate D2E/DX2                !
 ! R11   R(7,9)                  1.5476         estimate D2E/DX2                !
 ! R12   R(7,13)                 1.5352         estimate D2E/DX2                !
 ! R13   R(9,10)                 1.5406         estimate D2E/DX2                !
 ! R14   R(9,19)                 1.1107         estimate D2E/DX2                !
 ! R15   R(9,20)                 1.1106         estimate D2E/DX2                !
 ! R16   R(10,11)                1.5375         estimate D2E/DX2                !
 ! R17   R(10,21)                1.112          estimate D2E/DX2                !
 ! R18   R(10,22)                1.1129         estimate D2E/DX2                !
 ! R19   R(11,12)                1.5447         estimate D2E/DX2                !
 ! R20   R(11,23)                1.1134         estimate D2E/DX2                !
 ! R21   R(11,24)                1.1118         estimate D2E/DX2                !
 ! R22   R(12,13)                1.5535         estimate D2E/DX2                !
 ! R23   R(12,25)                1.112          estimate D2E/DX2                !
 ! R24   R(12,26)                1.1101         estimate D2E/DX2                !
 ! R25   R(13,14)                1.1151         estimate D2E/DX2                !
 ! R26   R(13,15)                1.4682         estimate D2E/DX2                !
 ! R27   R(15,16)                1.2978         estimate D2E/DX2                !
 ! R28   R(16,27)                1.1007         estimate D2E/DX2                !
 ! A1    A(1,2,3)              123.7267         estimate D2E/DX2                !
 ! A2    A(1,2,4)              117.6297         estimate D2E/DX2                !
 ! A3    A(3,2,4)              118.6412         estimate D2E/DX2                !
 ! A4    A(2,4,5)              116.4219         estimate D2E/DX2                !
 ! A5    A(2,4,16)             116.6846         estimate D2E/DX2                !
 ! A6    A(5,4,16)             126.8368         estimate D2E/DX2                !
 ! A7    A(4,5,6)              122.7461         estimate D2E/DX2                !
 ! A8    A(4,5,17)             119.5357         estimate D2E/DX2                !
 ! A9    A(6,5,17)             117.6225         estimate D2E/DX2                !
 ! A10   A(5,6,7)              135.182          Frozen                          !
 ! A11   A(5,6,18)             118.5034         estimate D2E/DX2                !
 ! A12   A(7,6,18)             104.3862         estimate D2E/DX2                !
 ! A13   A(6,7,8)              106.3025         estimate D2E/DX2                !
 ! A14   A(6,7,9)              116.3187         estimate D2E/DX2                !
 ! A15   A(6,7,13)             109.1691         estimate D2E/DX2                !
 ! A16   A(8,7,9)              106.6            estimate D2E/DX2                !
 ! A17   A(8,7,13)             106.5982         estimate D2E/DX2                !
 ! A18   A(9,7,13)             111.2671         estimate D2E/DX2                !
 ! A19   A(7,9,10)             109.0956         estimate D2E/DX2                !
 ! A20   A(7,9,19)             110.277          estimate D2E/DX2                !
 ! A21   A(7,9,20)             110.1545         estimate D2E/DX2                !
 ! A22   A(10,9,19)            109.9891         estimate D2E/DX2                !
 ! A23   A(10,9,20)            109.3226         estimate D2E/DX2                !
 ! A24   A(19,9,20)            107.9868         estimate D2E/DX2                !
 ! A25   A(9,10,11)            111.1157         estimate D2E/DX2                !
 ! A26   A(9,10,21)            109.9584         estimate D2E/DX2                !
 ! A27   A(9,10,22)            109.1731         estimate D2E/DX2                !
 ! A28   A(11,10,21)           109.793          estimate D2E/DX2                !
 ! A29   A(11,10,22)           108.7847         estimate D2E/DX2                !
 ! A30   A(21,10,22)           107.9472         estimate D2E/DX2                !
 ! A31   A(10,11,12)           111.5394         estimate D2E/DX2                !
 ! A32   A(10,11,23)           108.9756         estimate D2E/DX2                !
 ! A33   A(10,11,24)           109.827          estimate D2E/DX2                !
 ! A34   A(12,11,23)           109.237          estimate D2E/DX2                !
 ! A35   A(12,11,24)           109.7038         estimate D2E/DX2                !
 ! A36   A(23,11,24)           107.4633         estimate D2E/DX2                !
 ! A37   A(11,12,13)           111.5633         estimate D2E/DX2                !
 ! A38   A(11,12,25)           109.1918         estimate D2E/DX2                !
 ! A39   A(11,12,26)           109.4944         estimate D2E/DX2                !
 ! A40   A(13,12,25)           109.2059         estimate D2E/DX2                !
 ! A41   A(13,12,26)           109.5309         estimate D2E/DX2                !
 ! A42   A(25,12,26)           107.774          estimate D2E/DX2                !
 ! A43   A(7,13,12)            105.4034         estimate D2E/DX2                !
 ! A44   A(7,13,14)            111.4619         estimate D2E/DX2                !
 ! A45   A(7,13,15)            113.6042         estimate D2E/DX2                !
 ! A46   A(12,13,14)           107.9035         estimate D2E/DX2                !
 ! A47   A(12,13,15)           108.317          estimate D2E/DX2                !
 ! A48   A(14,13,15)           109.8609         estimate D2E/DX2                !
 ! A49   A(13,15,16)           119.7245         estimate D2E/DX2                !
 ! A50   A(4,16,15)            129.9408         estimate D2E/DX2                !
 ! A51   A(4,16,27)            112.9783         estimate D2E/DX2                !
 ! A52   A(15,16,27)           117.0808         estimate D2E/DX2                !
 ! D1    D(1,2,4,5)           -174.2921         estimate D2E/DX2                !
 ! D2    D(1,2,4,16)             8.2579         Frozen                          !
 ! D3    D(3,2,4,5)              6.2526         estimate D2E/DX2                !
 ! D4    D(3,2,4,16)          -171.1974         estimate D2E/DX2                !
 ! D5    D(2,4,5,6)            175.0514         estimate D2E/DX2                !
 ! D6    D(2,4,5,17)            -1.3053         estimate D2E/DX2                !
 ! D7    D(16,4,5,6)            -7.7956         estimate D2E/DX2                !
 ! D8    D(16,4,5,17)          175.8477         estimate D2E/DX2                !
 ! D9    D(2,4,16,15)         -157.1763         estimate D2E/DX2                !
 ! D10   D(2,4,16,27)           22.9523         estimate D2E/DX2                !
 ! D11   D(5,4,16,15)           25.6772         estimate D2E/DX2                !
 ! D12   D(5,4,16,27)         -154.1942         estimate D2E/DX2                !
 ! D13   D(4,5,6,7)             -0.9267         estimate D2E/DX2                !
 ! D14   D(4,5,6,18)           160.4439         estimate D2E/DX2                !
 ! D15   D(17,5,6,7)           175.4958         estimate D2E/DX2                !
 ! D16   D(17,5,6,18)          -23.1336         estimate D2E/DX2                !
 ! D17   D(5,6,7,8)           -147.3403         estimate D2E/DX2                !
 ! D18   D(5,6,7,9)             94.1867         estimate D2E/DX2                !
 ! D19   D(5,6,7,13)           -32.7097         estimate D2E/DX2                !
 ! D20   D(18,6,7,8)            49.5064         estimate D2E/DX2                !
 ! D21   D(18,6,7,9)           -68.9666         estimate D2E/DX2                !
 ! D22   D(18,6,7,13)          164.1371         estimate D2E/DX2                !
 ! D23   D(6,7,9,10)           171.7245         estimate D2E/DX2                !
 ! D24   D(6,7,9,19)           -67.3751         estimate D2E/DX2                !
 ! D25   D(6,7,9,20)            51.7207         estimate D2E/DX2                !
 ! D26   D(8,7,9,10)            53.414          estimate D2E/DX2                !
 ! D27   D(8,7,9,19)           174.3144         estimate D2E/DX2                !
 ! D28   D(8,7,9,20)           -66.5898         estimate D2E/DX2                !
 ! D29   D(13,7,9,10)          -62.4284         estimate D2E/DX2                !
 ! D30   D(13,7,9,19)           58.4721         estimate D2E/DX2                !
 ! D31   D(13,7,9,20)          177.5679         estimate D2E/DX2                !
 ! D32   D(6,7,13,12)         -166.5448         estimate D2E/DX2                !
 ! D33   D(6,7,13,14)          -49.7408         estimate D2E/DX2                !
 ! D34   D(6,7,13,15)           75.0216         Frozen                          !
 ! D35   D(8,7,13,12)          -52.1054         estimate D2E/DX2                !
 ! D36   D(8,7,13,14)           64.6986         estimate D2E/DX2                !
 ! D37   D(8,7,13,15)         -170.539          estimate D2E/DX2                !
 ! D38   D(9,7,13,12)           63.738          estimate D2E/DX2                !
 ! D39   D(9,7,13,14)         -179.458          estimate D2E/DX2                !
 ! D40   D(9,7,13,15)          -54.6956         estimate D2E/DX2                !
 ! D41   D(7,9,10,11)           54.8118         Frozen                          !
 ! D42   D(7,9,10,21)          176.5766         estimate D2E/DX2                !
 ! D43   D(7,9,10,22)          -65.1713         estimate D2E/DX2                !
 ! D44   D(19,9,10,11)         -66.2644         estimate D2E/DX2                !
 ! D45   D(19,9,10,21)          55.5004         estimate D2E/DX2                !
 ! D46   D(19,9,10,22)         173.7525         estimate D2E/DX2                !
 ! D47   D(20,9,10,11)         175.3271         estimate D2E/DX2                !
 ! D48   D(20,9,10,21)         -62.9081         estimate D2E/DX2                !
 ! D49   D(20,9,10,22)          55.3441         estimate D2E/DX2                !
 ! D50   D(9,10,11,12)         -52.8217         Frozen                          !
 ! D51   D(9,10,11,23)          67.8612         estimate D2E/DX2                !
 ! D52   D(9,10,11,24)        -174.6668         estimate D2E/DX2                !
 ! D53   D(21,10,11,12)       -174.6829         estimate D2E/DX2                !
 ! D54   D(21,10,11,23)        -54.0            estimate D2E/DX2                !
 ! D55   D(21,10,11,24)         63.4719         estimate D2E/DX2                !
 ! D56   D(22,10,11,12)         67.3918         estimate D2E/DX2                !
 ! D57   D(22,10,11,23)       -171.9253         estimate D2E/DX2                !
 ! D58   D(22,10,11,24)        -54.4534         estimate D2E/DX2                !
 ! D59   D(10,11,12,13)         56.6165         estimate D2E/DX2                !
 ! D60   D(10,11,12,25)        177.4196         estimate D2E/DX2                !
 ! D61   D(10,11,12,26)        -64.7986         estimate D2E/DX2                !
 ! D62   D(23,11,12,13)        -63.9134         estimate D2E/DX2                !
 ! D63   D(23,11,12,25)         56.8898         estimate D2E/DX2                !
 ! D64   D(23,11,12,26)        174.6716         estimate D2E/DX2                !
 ! D65   D(24,11,12,13)        178.5328         estimate D2E/DX2                !
 ! D66   D(24,11,12,25)        -60.6641         estimate D2E/DX2                !
 ! D67   D(24,11,12,26)         57.1177         estimate D2E/DX2                !
 ! D68   D(11,12,13,7)         -60.2805         estimate D2E/DX2                !
 ! D69   D(11,12,13,14)       -179.4789         estimate D2E/DX2                !
 ! D70   D(11,12,13,15)         61.6377         estimate D2E/DX2                !
 ! D71   D(25,12,13,7)         178.9245         estimate D2E/DX2                !
 ! D72   D(25,12,13,14)         59.7262         estimate D2E/DX2                !
 ! D73   D(25,12,13,15)        -59.1572         estimate D2E/DX2                !
 ! D74   D(26,12,13,7)          61.1133         estimate D2E/DX2                !
 ! D75   D(26,12,13,14)        -58.085          estimate D2E/DX2                !
 ! D76   D(26,12,13,15)       -176.9684         estimate D2E/DX2                !
 ! D77   D(7,13,15,16)         -67.1601         Frozen                          !
 ! D78   D(12,13,15,16)        176.0964         estimate D2E/DX2                !
 ! D79   D(14,13,15,16)         58.4585         estimate D2E/DX2                !
 ! D80   D(13,15,16,4)           8.637          estimate D2E/DX2                !
 ! D81   D(13,15,16,27)       -171.496          estimate D2E/DX2                !
 --------------------------------------------------------------------------------
 Trust Radius=3.00D-01 FncErr=1.00D-07 GrdErr=1.00D-07 EigMax=2.50D+02 EigMin=1.00D-04
 Number of steps in this run=     20 maximum allowed number of steps=    162.
 GradGradGradGradGradGradGradGradGradGradGradGradGradGradGradGradGradGrad

                          Input orientation:                          
 ---------------------------------------------------------------------
 Center     Atomic      Atomic             Coordinates (Angstroms)
 Number     Number       Type             X           Y           Z
 ---------------------------------------------------------------------
      1          8           0       -3.633190   -1.428860   -0.248690
      2          7           0       -3.274730   -0.264870   -0.079210
      3          8           0       -4.055240    0.678470    0.054440
      4          6           0       -1.774640    0.016390   -0.047080
      5          6           0       -1.392780    1.326060    0.269840
      6          7           0       -0.089490    1.696260    0.431190
      7          6           0        1.217630    0.998310    0.370350
      8          1           0        1.881890    1.509400    1.113560
      9          6           0        1.957200    1.043830   -0.988360
     10          6           0        3.370970    0.457600   -0.812520
     11          6           0        3.313650   -0.954820   -0.207810
     12          6           0        2.480820   -0.981490    1.092910
     13          6           0        1.041210   -0.445930    0.860210
     14          1           0        0.500010   -0.483070    1.834420
     15          7           0        0.375570   -1.319930   -0.113820
     16          6           0       -0.870720   -1.117270   -0.413980
     17          1           0       -2.167620    2.088010    0.456950
     18          1           0        0.148590    2.688380    0.359310
     19          1           0        1.397160    0.462230   -1.751140
     20          1           0        2.036000    2.092250   -1.346210
     21          1           0        3.893590    0.426270   -1.793520
     22          1           0        3.957290    1.115070   -0.132450
     23          1           0        2.857250   -1.648120   -0.949910
     24          1           0        4.343730   -1.318550   -0.000910
     25          1           0        2.425970   -2.026010    1.470510
     26          1           0        2.984630   -0.366960    1.868040
     27          1           0       -1.366750   -1.878640   -1.035100
 ---------------------------------------------------------------------
                    Distance matrix (angstroms):
                    1          2          3          4          5
     1  O    0.000000
     2  N    1.229671   0.000000
     3  O    2.170450   1.231645   0.000000
     4  C    2.362965   1.526568   2.376929   0.000000
     5  C    3.588578   2.488901   2.748538   1.400532   0.000000
     6  N    4.773512   3.775221   4.111570   2.427022   1.364422
     7  C    5.459379   4.688179   5.291999   3.176806   2.632824
     8  H    6.395718   5.582245   6.087832   4.116598   3.386582
     9  C    6.157416   5.469218   6.113130   3.983500   3.589580
    10  C    7.275637   6.724956   7.479906   5.220907   4.961758
    11  C    6.963115   6.625656   7.552281   5.182642   5.251766
    12  C    6.275440   5.917243   6.823047   4.517110   4.583340
    13  C    4.903654   4.420705   5.280847   2.994316   3.068027
    14  H    4.724109   4.237718   5.026709   2.993916   3.050167
    15  N    4.012507   3.799874   4.863537   2.532510   3.205545
    16  C    2.784897   2.572532   3.685820   1.495618   2.590370
    17  H    3.874816   2.655034   2.389964   2.167969   1.102703
    18  H    5.623450   4.542368   4.669569   3.317152   2.059063
    19  H    5.580143   5.015035   5.747656   3.628072   3.551665
    20  H    6.763319   5.946861   6.408104   4.529670   3.867195
    21  H    7.904456   7.402793   8.164708   5.945325   5.745675
    22  H    8.006277   7.362689   8.026592   5.836900   5.369321
    23  H    6.531891   6.346076   7.362354   5.004008   5.328817
    24  H    7.981530   7.691379   8.633299   6.262479   6.322564
    25  H    6.326583   6.164513   7.164185   4.911171   5.221191
    26  H    7.028778   6.556050   7.344511   5.144443   4.958052
    27  H    2.440798   2.675512   3.867026   2.175706   3.460296
                    6          7          8          9         10
     6  N    0.000000
     7  C    1.483037   0.000000
     8  H    2.094489   1.120185   0.000000
     9  C    2.574826   1.547620   2.154181   0.000000
    10  C    3.880190   2.515635   2.652061   1.540562   0.000000
    11  C    4.360953   2.922719   3.141391   2.538467   1.537495
    12  C    3.770240   2.457102   2.561967   2.950895   2.548335
    13  C    2.459983   1.535225   2.143419   2.544727   3.007021
    14  H    2.658203   2.202945   2.529658   3.524615   4.016661
    15  N    3.100116   2.513508   3.432283   2.975523   3.552494
    16  C    3.039833   3.074420   4.099956   3.605190   4.542134
    17  H    2.114889   3.557367   4.143001   4.493704   5.911495
    18  H    1.022815   1.999826   2.227828   2.791385   4.090635
    19  H    2.914708   2.195526   3.088371   1.110737   2.185625
    20  H    2.798869   2.193858   2.532574   1.110608   2.176936
    21  H    4.735730   3.488599   3.697462   2.186154   1.111969
    22  H    4.126972   2.787863   2.452615   2.176699   1.112894
    23  H    4.666432   3.381572   3.896045   2.838690   2.171829
    24  H    5.378590   3.908731   3.911522   3.500203   2.181669
    25  H    4.611184   3.437579   3.594796   3.961023   3.503365
    26  H    3.971351   2.688741   2.303476   3.347381   2.831000
    27  H    4.069559   4.114748   5.162288   4.426247   5.287112
                   11         12         13         14         15
    11  C    0.000000
    12  C    1.544730   0.000000
    13  C    2.561956   1.553528   0.000000
    14  H    3.508536   2.172986   1.115061   0.000000
    15  N    2.962170   2.450065   1.468226   2.124020   0.000000
    16  C    4.192594   3.677224   2.393686   2.708581   1.297847
    17  H    6.304367   5.606627   4.108535   3.952736   4.290414
    18  H    4.859232   4.409695   3.297206   3.515329   4.042514
    19  H    2.839513   3.368570   2.787580   3.815064   2.626891
    20  H    3.494707   3.949057   3.507172   4.371264   3.989835
    21  H    2.181334   3.508445   3.992379   5.050271   4.271659
    22  H    2.168962   2.842012   3.453349   4.286655   4.331084
    23  H    1.113408   2.181561   2.831925   3.829676   2.639222
    24  H    1.111833   2.186432   3.522731   4.340581   3.969766
    25  H    2.179950   1.112031   2.187848   2.494477   2.685664
    26  H    2.182427   1.110089   2.190625   2.487559   3.412201
    27  H    4.841900   4.487438   3.382769   3.696830   2.048559
                   16         17         18         19         20
    16  C    0.000000
    17  H    3.565710   0.000000
    18  H    4.014965   2.394746   0.000000
    19  H    3.070195   4.497386   3.311898   0.000000
    20  H    4.429344   4.574038   2.612754   1.796956   0.000000
    21  H    5.194641   6.675647   4.876150   2.497049   2.534998
    22  H    5.326564   6.229649   4.150100   3.098487   2.473752
    23  H    3.803522   6.417729   5.277891   2.688384   3.849919
    24  H    5.234657   7.362878   5.812439   3.862222   4.332321
    25  H    3.904520   6.249283   5.352261   4.198668   5.004603
    26  H    4.542500   5.879093   4.433339   4.038079   4.156804
    27  H    1.100691   4.312994   5.009821   3.692098   5.238651
                   21         22         23         24         25
    21  H    0.000000
    22  H    1.799349   0.000000
    23  H    2.467544   3.084404   0.000000
    24  H    2.541746   2.467619   1.794113   0.000000
    25  H    4.338373   3.844581   2.487416   2.518607   0.000000
    26  H    3.855184   2.672909   3.098135   2.499130   1.795154
    27  H    5.793012   6.174340   4.231143   5.830337   4.548024
                   26         27
    26  H    0.000000
    27  H    5.444989   0.000000
 Symmetry turned off by external request.
 Stoichiometry    C9H13N3O2
 Framework group  C1[X(C9H13N3O2)]
 Deg. of freedom    75
 Full point group                 C1      NOp   1
 Rotational constants (GHZ):           1.6885153           0.3968437           0.3540547
 Standard basis: 6-31G(d) (6D, 7F)
   236 basis functions,   444 primitive gaussians,   236 cartesian basis functions
    52 alpha electrons       52 beta electrons
       nuclear repulsion energy       917.0656496620 Hartrees.
 NAtoms=   27 NActive=   27 NUniq=   27 SFac= 1.00D+00 NAtFMM=   60 NAOKFM=F Big=F
 Integral buffers will be    131072 words long.
 Raffenetti 1 integral format.
 Two-electron integral symmetry is turned off.
 One-electron integrals computed using PRISM.
 NBasis=   236 RedAO= T EigKep=  1.30D-03  NBF=   236
 NBsUse=   236 1.00D-06 EigRej= -1.00D+00 NBFU=   236
 ExpMin= 1.61D-01 ExpMax= 5.48D+03 ExpMxC= 8.25D+02 IAcc=3 IRadAn=         5 AccDes= 0.00D+00
 Harris functional with IExCor=  205 and IRadAn=       5 diagonalized for initial guess.
 HarFok:  IExCor=  205 AccDes= 0.00D+00 IRadAn=         5 IDoV= 1 UseB2=F ITyADJ=14
 ICtDFT=  3500011 ScaDFX=  1.000000  1.000000  1.000000  1.000000
 FoFCou: FMM=F IPFlag=           0 FMFlag=      100000 FMFlg1=           0
         NFxFlg=           0 DoJE=T BraDBF=F KetDBF=T FulRan=T
         wScrn=  0.000000 ICntrl=       500 IOpCl=  0 I1Cent=   200000004 NGrid=           0
         NMat0=    1 NMatS0=      1 NMatT0=    0 NMatD0=    1 NMtDS0=    0 NMtDT0=    0
 Symmetry not used in FoFCou.
 Keep R1 ints in memory in canonical form, NReq=397720213.
 Requested convergence on RMS density matrix=1.00D-08 within 128 cycles.
 Requested convergence on MAX density matrix=1.00D-06.
 Requested convergence on             energy=1.00D-06.
 No special actions if energy rises.
 SCF Done:  E(RHF) =  -661.277886370     A.U. after   16 cycles
            NFock= 16  Conv=0.74D-08     -V/T= 2.0037
 ExpMin= 1.61D-01 ExpMax= 5.48D+03 ExpMxC= 8.25D+02 IAcc=3 IRadAn=         5 AccDes= 0.00D+00
 HarFok:  IExCor=  205 AccDes= 0.00D+00 IRadAn=         5 IDoV=-2 UseB2=F ITyADJ=14
 ICtDFT= 12500011 ScaDFX=  1.000000  1.000000  1.000000  1.000000
 Range of M.O.s used for correlation:    15   236
 NBasis=   236 NAE=    52 NBE=    52 NFC=    14 NFV=     0
 NROrb=    222 NOA=    38 NOB=    38 NVA=   184 NVB=   184
 Fully direct method using O(ONN) memory.
 JobTyp=1 Pass  1:  I=  15 to  52 NPSUse=  4 ParTrn=T ParDer=T DoDerP=T.
 Spin components of T(2) and E(2):
     alpha-alpha T2 =       0.9206857668D-01 E2=     -0.2719151867D+00
     alpha-beta  T2 =       0.4998269328D+00 E2=     -0.1494038317D+01
     beta-beta   T2 =       0.9206857668D-01 E2=     -0.2719151867D+00
 ANorm=    0.1297676418D+01
 E2 =    -0.2037868691D+01 EUMP2 =    -0.66331575506050D+03
          IDoAtm=111111111111111111111111111
          Differentiating once with respect to electric field.
                with respect to dipole field.
          Differentiating once with respect to nuclear coordinates.
 Keep R1 ints in memory in canonical form, NReq=397723379.
          There are     1 degrees of freedom in the 1st order CPHF.  IDoFFX=0 NUNeed=     1.
 LinEq1:  Iter=  0 NonCon=     1 RMS=4.62D-03 Max=1.12D-01 NDo=     1
 AX will form     1 AO Fock derivatives at one time.
 LinEq1:  Iter=  1 NonCon=     1 RMS=1.56D-03 Max=2.95D-02 NDo=     1
 LinEq1:  Iter=  2 NonCon=     1 RMS=6.43D-04 Max=1.80D-02 NDo=     1
 LinEq1:  Iter=  3 NonCon=     1 RMS=2.95D-04 Max=9.25D-03 NDo=     1
 LinEq1:  Iter=  4 NonCon=     1 RMS=9.06D-05 Max=2.20D-03 NDo=     1
 LinEq1:  Iter=  5 NonCon=     1 RMS=3.78D-05 Max=1.90D-03 NDo=     1
 LinEq1:  Iter=  6 NonCon=     1 RMS=1.56D-05 Max=5.90D-04 NDo=     1
 LinEq1:  Iter=  7 NonCon=     1 RMS=5.97D-06 Max=1.01D-04 NDo=     1
 LinEq1:  Iter=  8 NonCon=     1 RMS=2.32D-06 Max=5.36D-05 NDo=     1
 LinEq1:  Iter=  9 NonCon=     1 RMS=8.51D-07 Max=2.40D-05 NDo=     1
 LinEq1:  Iter= 10 NonCon=     1 RMS=4.17D-07 Max=1.46D-05 NDo=     1
 LinEq1:  Iter= 11 NonCon=     1 RMS=1.52D-07 Max=5.75D-06 NDo=     1
 LinEq1:  Iter= 12 NonCon=     1 RMS=5.41D-08 Max=8.15D-07 NDo=     1
 LinEq1:  Iter= 13 NonCon=     1 RMS=1.71D-08 Max=3.14D-07 NDo=     1
 LinEq1:  Iter= 14 NonCon=     1 RMS=5.53D-09 Max=1.12D-07 NDo=     1
 LinEq1:  Iter= 15 NonCon=     1 RMS=2.11D-09 Max=4.72D-08 NDo=     1
 LinEq1:  Iter= 16 NonCon=     1 RMS=8.38D-10 Max=1.50D-08 NDo=     1
 LinEq1:  Iter= 17 NonCon=     1 RMS=2.78D-10 Max=4.27D-09 NDo=     1
 LinEq1:  Iter= 18 NonCon=     1 RMS=9.68D-11 Max=1.20D-09 NDo=     1
 LinEq1:  Iter= 19 NonCon=     0 RMS=3.06D-11 Max=3.95D-10 NDo=     1
 Linear equations converged to 1.000D-10 1.000D-09 after    19 iterations.
 End of Minotr F.D. properties file   721 does not exist.
 End of Minotr F.D. properties file   722 does not exist.
 End of Minotr F.D. properties file   788 does not exist.

 **********************************************************************

            Population analysis using the SCF Density.

 **********************************************************************

 Alpha  occ. eigenvalues --  -20.59639 -20.59239 -15.85111 -15.63382 -15.56815
 Alpha  occ. eigenvalues --  -11.36063 -11.30575 -11.30344 -11.29867 -11.27505
 Alpha  occ. eigenvalues --  -11.24744 -11.23965 -11.23284 -11.22854  -1.58331
 Alpha  occ. eigenvalues --   -1.37846  -1.29092  -1.22374  -1.13371  -1.08296
 Alpha  occ. eigenvalues --   -1.01855  -1.00782  -0.93646  -0.88801  -0.85020
 Alpha  occ. eigenvalues --   -0.81485  -0.77836  -0.77183  -0.74238  -0.70823
 Alpha  occ. eigenvalues --   -0.70197  -0.69660  -0.67460  -0.64566  -0.62991
 Alpha  occ. eigenvalues --   -0.62163  -0.60138  -0.57617  -0.56602  -0.54839
 Alpha  occ. eigenvalues --   -0.53635  -0.50673  -0.49584  -0.48380  -0.47756
 Alpha  occ. eigenvalues --   -0.47633  -0.46161  -0.45643  -0.43905  -0.42021
 Alpha  occ. eigenvalues --   -0.39709  -0.33561
 Alpha virt. eigenvalues --    0.07540   0.11812   0.17936   0.21367   0.23306
 Alpha virt. eigenvalues --    0.24468   0.26162   0.27860   0.28432   0.28772
 Alpha virt. eigenvalues --    0.29818   0.31148   0.31721   0.32372   0.33304
 Alpha virt. eigenvalues --    0.33736   0.34508   0.35532   0.37385   0.38337
 Alpha virt. eigenvalues --    0.40480   0.41872   0.44599   0.44981   0.45279
 Alpha virt. eigenvalues --    0.46067   0.49697   0.53099   0.57513   0.59200
 Alpha virt. eigenvalues --    0.63448   0.68578   0.69547   0.72202   0.73928
 Alpha virt. eigenvalues --    0.74800   0.75817   0.75922   0.77800   0.78994
 Alpha virt. eigenvalues --    0.80634   0.83514   0.85161   0.85693   0.87813
 Alpha virt. eigenvalues --    0.89036   0.90124   0.90619   0.92075   0.94024
 Alpha virt. eigenvalues --    0.94982   0.97135   0.98906   1.00830   1.01940
 Alpha virt. eigenvalues --    1.02631   1.04863   1.06579   1.06900   1.08632
 Alpha virt. eigenvalues --    1.09617   1.10417   1.11492   1.12147   1.13167
 Alpha virt. eigenvalues --    1.13847   1.14032   1.15401   1.16333   1.17298
 Alpha virt. eigenvalues --    1.18010   1.20048   1.21187   1.22032   1.22792
 Alpha virt. eigenvalues --    1.23519   1.24126   1.25698   1.26971   1.27847
 Alpha virt. eigenvalues --    1.29022   1.31605   1.33902   1.36329   1.39407
 Alpha virt. eigenvalues --    1.41766   1.47180   1.47760   1.49794   1.53368
 Alpha virt. eigenvalues --    1.55480   1.56229   1.59964   1.61394   1.65948
 Alpha virt. eigenvalues --    1.68590   1.70318   1.72051   1.73598   1.76434
 Alpha virt. eigenvalues --    1.78377   1.80683   1.84264   1.88616   1.92418
 Alpha virt. eigenvalues --    1.93529   1.96113   1.97252   1.99227   1.99681
 Alpha virt. eigenvalues --    2.03148   2.03781   2.05792   2.09563   2.11952
 Alpha virt. eigenvalues --    2.13157   2.13785   2.17584   2.18651   2.19081
 Alpha virt. eigenvalues --    2.21919   2.22008   2.24292   2.25072   2.26076
 Alpha virt. eigenvalues --    2.29247   2.32064   2.32965   2.35932   2.37059
 Alpha virt. eigenvalues --    2.39012   2.40047   2.41338   2.43680   2.45750
 Alpha virt. eigenvalues --    2.49209   2.50013   2.50314   2.56498   2.57456
 Alpha virt. eigenvalues --    2.60300   2.62965   2.65445   2.68478   2.69057
 Alpha virt. eigenvalues --    2.69786   2.69986   2.75081   2.77340   2.81307
 Alpha virt. eigenvalues --    2.82864   2.86150   2.89621   2.90830   2.95190
 Alpha virt. eigenvalues --    2.97023   2.98669   3.02892   3.04311   3.05605
 Alpha virt. eigenvalues --    3.07766   3.12974   3.18381   3.22815   3.26917
 Alpha virt. eigenvalues --    3.30977   3.35701   3.38069   3.42728   3.60838
 Alpha virt. eigenvalues --    4.09987   4.23489   4.31697   4.36283   4.42845
 Alpha virt. eigenvalues --    4.51952   4.59308   4.60426   4.70876   4.78007
 Alpha virt. eigenvalues --    4.96606   4.99207   5.03588   5.10094
          Condensed to atoms (all electrons):
               1          2          3          4          5          6
     1  O    8.301905   0.313093  -0.089181  -0.079568   0.003558  -0.000015
     2  N    0.313093   5.679635   0.308589   0.266684  -0.046407   0.000831
     3  O   -0.089181   0.308589   8.334040  -0.087915   0.009032   0.000483
     4  C   -0.079568   0.266684  -0.087915   5.250947   0.570365  -0.055382
     5  C    0.003558  -0.046407   0.009032   0.570365   4.659419   0.312362
     6  N   -0.000015   0.000831   0.000483  -0.055382   0.312362   7.202165
     7  C    0.000002  -0.000076   0.000003   0.003911  -0.022782   0.190760
     8  H   -0.000000   0.000002  -0.000000  -0.000199   0.002094  -0.047514
     9  C   -0.000000  -0.000002   0.000000   0.000540   0.001323  -0.054280
    10  C   -0.000000   0.000000  -0.000000  -0.000022  -0.000046   0.003328
    11  C   -0.000000  -0.000000  -0.000000  -0.000012   0.000016  -0.000180
    12  C   -0.000000   0.000001  -0.000000  -0.000183  -0.000098   0.004177
    13  C   -0.000016  -0.000021  -0.000002  -0.008841   0.000153  -0.058591
    14  H   -0.000002  -0.000052   0.000000   0.002831   0.004403  -0.006517
    15  N    0.000218   0.001515  -0.000011  -0.060001  -0.003371   0.002057
    16  C    0.003011  -0.025702   0.001930   0.318310  -0.040640  -0.000790
    17  H    0.000108  -0.003670   0.011556  -0.024131   0.374184  -0.031545
    18  H    0.000000  -0.000042   0.000008   0.001647  -0.027531   0.328582
    19  H    0.000000  -0.000000   0.000000  -0.000744   0.000647   0.000376
    20  H    0.000000  -0.000000   0.000000  -0.000027  -0.000007  -0.001175
    21  H   -0.000000  -0.000000   0.000000   0.000000   0.000001  -0.000058
    22  H   -0.000000   0.000000  -0.000000  -0.000000  -0.000002  -0.000095
    23  H    0.000000  -0.000000   0.000000   0.000025  -0.000001  -0.000027
    24  H    0.000000   0.000000   0.000000   0.000000  -0.000000   0.000005
    25  H    0.000000  -0.000000   0.000000   0.000020  -0.000002  -0.000089
    26  H    0.000000  -0.000000   0.000000   0.000006  -0.000001  -0.000079
    27  H    0.005651  -0.000323   0.000012  -0.066177   0.002098   0.000042
               7          8          9         10         11         12
     1  O    0.000002  -0.000000  -0.000000  -0.000000  -0.000000  -0.000000
     2  N   -0.000076   0.000002  -0.000002   0.000000  -0.000000   0.000001
     3  O    0.000003  -0.000000   0.000000  -0.000000  -0.000000  -0.000000
     4  C    0.003911  -0.000199   0.000540  -0.000022  -0.000012  -0.000183
     5  C   -0.022782   0.002094   0.001323  -0.000046   0.000016  -0.000098
     6  N    0.190760  -0.047514  -0.054280   0.003328  -0.000180   0.004177
     7  C    5.010239   0.415548   0.343787  -0.049680  -0.007768  -0.067516
     8  H    0.415548   0.539419  -0.058305   0.001631  -0.000247  -0.002429
     9  C    0.343787  -0.058305   5.174172   0.317543  -0.053443  -0.005783
    10  C   -0.049680   0.001631   0.317543   5.129266   0.332318  -0.059909
    11  C   -0.007768  -0.000247  -0.053443   0.332318   5.124669   0.330757
    12  C   -0.067516  -0.002429  -0.005783  -0.059909   0.330757   5.140186
    13  C    0.331076  -0.039075  -0.051550  -0.001790  -0.047505   0.367484
    14  H   -0.039089  -0.000774   0.003627  -0.000377   0.003946  -0.040856
    15  N   -0.056306   0.003858  -0.013035   0.001455  -0.007774  -0.073954
    16  C   -0.002383   0.000020  -0.001002  -0.000023   0.000003   0.002529
    17  H    0.001095  -0.000016  -0.000048   0.000001   0.000000   0.000001
    18  H   -0.031969  -0.003903   0.000498  -0.000123   0.000012  -0.000179
    19  H   -0.034923   0.003956   0.387127  -0.032569  -0.002220   0.000601
    20  H   -0.041729  -0.001892   0.396692  -0.037077   0.004117  -0.000380
    21  H    0.004062  -0.000091  -0.035671   0.400138  -0.035624   0.004167
    22  H   -0.004345   0.003475  -0.045651   0.395765  -0.045737  -0.001138
    23  H    0.000480   0.000034  -0.002030  -0.040001   0.396469  -0.036345
    24  H   -0.000135  -0.000098   0.004402  -0.038640   0.400514  -0.037888
    25  H    0.005153  -0.000025  -0.000375   0.004082  -0.033763   0.394734
    26  H   -0.004561   0.001544   0.001073  -0.002322  -0.042753   0.395012
    27  H   -0.000378   0.000008  -0.000060   0.000005   0.000005  -0.000020
              13         14         15         16         17         18
     1  O   -0.000016  -0.000002   0.000218   0.003011   0.000108   0.000000
     2  N   -0.000021  -0.000052   0.001515  -0.025702  -0.003670  -0.000042
     3  O   -0.000002   0.000000  -0.000011   0.001930   0.011556   0.000008
     4  C   -0.008841   0.002831  -0.060001   0.318310  -0.024131   0.001647
     5  C    0.000153   0.004403  -0.003371  -0.040640   0.374184  -0.027531
     6  N   -0.058591  -0.006517   0.002057  -0.000790  -0.031545   0.328582
     7  C    0.331076  -0.039089  -0.056306  -0.002383   0.001095  -0.031969
     8  H   -0.039075  -0.000774   0.003858   0.000020  -0.000016  -0.003903
     9  C   -0.051550   0.003627  -0.013035  -0.001002  -0.000048   0.000498
    10  C   -0.001790  -0.000377   0.001455  -0.000023   0.000001  -0.000123
    11  C   -0.047505   0.003946  -0.007774   0.000003   0.000000   0.000012
    12  C    0.367484  -0.040856  -0.073954   0.002529   0.000001  -0.000179
    13  C    5.029197   0.403874   0.240151  -0.068511  -0.000060   0.004945
    14  H    0.403874   0.516954  -0.035380  -0.004584   0.000059   0.000021
    15  N    0.240151  -0.035380   6.943262   0.583763  -0.000048  -0.000135
    16  C   -0.068511  -0.004584   0.583763   4.700281   0.001551  -0.000221
    17  H   -0.000060   0.000059  -0.000048   0.001551   0.377354  -0.002388
    18  H    0.004945   0.000021  -0.000135  -0.000221  -0.002388   0.338707
    19  H   -0.006011   0.000070   0.006928   0.002553   0.000010  -0.000134
    20  H    0.003904  -0.000047   0.000089  -0.000035  -0.000002   0.002577
    21  H   -0.000368   0.000008  -0.000033   0.000002  -0.000000   0.000000
    22  H    0.000289  -0.000043   0.000001  -0.000001  -0.000000   0.000001
    23  H   -0.005941   0.000008   0.006808   0.000055   0.000000   0.000000
    24  H    0.004120  -0.000058   0.000047   0.000005   0.000000  -0.000000
    25  H   -0.034517  -0.002564   0.000810  -0.000074  -0.000000   0.000003
    26  H   -0.045153  -0.000901   0.004173  -0.000052   0.000000  -0.000001
    27  H    0.004861  -0.000170  -0.040333   0.402547  -0.000056   0.000002
              19         20         21         22         23         24
     1  O    0.000000   0.000000  -0.000000  -0.000000   0.000000   0.000000
     2  N   -0.000000  -0.000000  -0.000000   0.000000  -0.000000   0.000000
     3  O    0.000000   0.000000   0.000000  -0.000000   0.000000   0.000000
     4  C   -0.000744  -0.000027   0.000000  -0.000000   0.000025   0.000000
     5  C    0.000647  -0.000007   0.000001  -0.000002  -0.000001  -0.000000
     6  N    0.000376  -0.001175  -0.000058  -0.000095  -0.000027   0.000005
     7  C   -0.034923  -0.041729   0.004062  -0.004345   0.000480  -0.000135
     8  H    0.003956  -0.001892  -0.000091   0.003475   0.000034  -0.000098
     9  C    0.387127   0.396692  -0.035671  -0.045651  -0.002030   0.004402
    10  C   -0.032569  -0.037077   0.400138   0.395765  -0.040001  -0.038640
    11  C   -0.002220   0.004117  -0.035624  -0.045737   0.396469   0.400514
    12  C    0.000601  -0.000380   0.004167  -0.001138  -0.036345  -0.037888
    13  C   -0.006011   0.003904  -0.000368   0.000289  -0.005941   0.004120
    14  H    0.000070  -0.000047   0.000008  -0.000043   0.000008  -0.000058
    15  N    0.006928   0.000089  -0.000033   0.000001   0.006808   0.000047
    16  C    0.002553  -0.000035   0.000002  -0.000001   0.000055   0.000005
    17  H    0.000010  -0.000002  -0.000000  -0.000000   0.000000   0.000000
    18  H   -0.000134   0.002577   0.000000   0.000001   0.000000  -0.000000
    19  H    0.503527  -0.023787  -0.002608   0.003743   0.001651  -0.000071
    20  H   -0.023787   0.547742  -0.002586  -0.002946  -0.000050  -0.000090
    21  H   -0.002608  -0.002586   0.524353  -0.024563  -0.002779  -0.002051
    22  H    0.003743  -0.002946  -0.024563   0.569230   0.004057  -0.003604
    23  H    0.001651  -0.000050  -0.002779   0.004057   0.508892  -0.024976
    24  H   -0.000071  -0.000090  -0.002051  -0.003604  -0.024976   0.540981
    25  H   -0.000028   0.000011  -0.000085  -0.000082  -0.002061  -0.002431
    26  H    0.000022  -0.000036  -0.000073   0.002462   0.003816  -0.002743
    27  H    0.000073   0.000000  -0.000000   0.000000  -0.000023  -0.000000
              25         26         27
     1  O    0.000000   0.000000   0.005651
     2  N   -0.000000  -0.000000  -0.000323
     3  O    0.000000   0.000000   0.000012
     4  C    0.000020   0.000006  -0.066177
     5  C   -0.000002  -0.000001   0.002098
     6  N   -0.000089  -0.000079   0.000042
     7  C    0.005153  -0.004561  -0.000378
     8  H   -0.000025   0.001544   0.000008
     9  C   -0.000375   0.001073  -0.000060
    10  C    0.004082  -0.002322   0.000005
    11  C   -0.033763  -0.042753   0.000005
    12  C    0.394734   0.395012  -0.000020
    13  C   -0.034517  -0.045153   0.004861
    14  H   -0.002564  -0.000901  -0.000170
    15  N    0.000810   0.004173  -0.040333
    16  C   -0.000074  -0.000052   0.402547
    17  H   -0.000000   0.000000  -0.000056
    18  H    0.000003  -0.000001   0.000002
    19  H   -0.000028   0.000022   0.000073
    20  H    0.000011  -0.000036   0.000000
    21  H   -0.000085  -0.000073  -0.000000
    22  H   -0.000082   0.002462   0.000000
    23  H   -0.002061   0.003816  -0.000023
    24  H   -0.002431  -0.002743  -0.000000
    25  H    0.511931  -0.023108  -0.000010
    26  H   -0.023108   0.563305   0.000001
    27  H   -0.000010   0.000001   0.451381
 Mulliken charges:
               1
     1  O   -0.458764
     2  N    0.505945
     3  O   -0.488544
     4  C   -0.032083
     5  C    0.201232
     6  N   -0.788830
     7  C    0.057524
     8  H    0.182981
     9  C   -0.309548
    10  C   -0.322955
    11  C   -0.315802
    12  C   -0.312969
    13  C   -0.022103
    14  H    0.195610
    15  N   -0.504754
    16  C    0.127460
    17  H    0.296047
    18  H    0.389621
    19  H    0.191809
    20  H    0.156734
    21  H    0.173858
    22  H    0.149185
    23  H    0.191938
    24  H    0.162707
    25  H    0.182470
    26  H    0.150367
    27  H    0.240864
 Sum of Mulliken charges =  -0.00000
 Mulliken charges with hydrogens summed into heavy atoms:
               1
     1  O   -0.458764
     2  N    0.505945
     3  O   -0.488544
     4  C   -0.032083
     5  C    0.497279
     6  N   -0.399208
     7  C    0.240505
     9  C    0.038995
    10  C    0.000088
    11  C    0.038843
    12  C    0.019868
    13  C    0.173507
    15  N   -0.504754
    16  C    0.368324
 Electronic spatial extent (au):  <R**2>=           3138.0475
 Charge=              0.0000 electrons
 Dipole moment (field-independent basis, Debye):
    X=              5.4645    Y=              4.6492    Z=              0.7018  Tot=              7.2089
 Quadrupole moment (field-independent basis, Debye-Ang):
   XX=           -105.7622   YY=            -80.1665   ZZ=            -82.2122
   XY=             -1.8498   XZ=              0.2737   YZ=              0.5823
 Traceless Quadrupole moment (field-independent basis, Debye-Ang):
   XX=            -16.3819   YY=              9.2138   ZZ=              7.1681
   XY=             -1.8498   XZ=              0.2737   YZ=              0.5823
 Octapole moment (field-independent basis, Debye-Ang**2):
  XXX=            104.7813  YYY=             35.9727  ZZZ=             -4.0238  XYY=             -1.8351
  XXY=             12.2605  XXZ=              2.5740  XZZ=             -7.6509  YZZ=             -2.3596
  YYZ=              2.8972  XYZ=             -0.9159
 Hexadecapole moment (field-independent basis, Debye-Ang**3):
 XXXX=          -3594.8726 YYYY=           -613.8356 ZZZZ=           -303.0857 XXXY=            -34.8771
 XXXZ=              1.6173 YYYX=            -17.3988 YYYZ=             15.1137 ZZZX=              8.8769
 ZZZY=              7.6967 XXYY=           -657.7791 XXZZ=           -548.2563 YYZZ=           -162.6069
 XXYZ=              2.0860 YYXZ=              5.2721 ZZXY=              3.7130
 N-N= 9.170656496620D+02 E-N=-3.380161833938D+03  KE= 6.588599897466D+02
 Calling FoFJK, ICntrl=  10002127 FMM=F ISym2X=0 I1Cent= 0 IOpClX= 0 NMat=1 NMatS=1 NMatT=0.
 -------------------------------------------------------------------
 Center     Atomic                   Forces (Hartrees/Bohr)
 Number     Number              X              Y              Z
 -------------------------------------------------------------------
      1        8           0.001247018   -0.019492517   -0.002937623
      2        7           0.041448692    0.012163762   -0.001343962
      3        8          -0.005317136    0.016338050    0.003410729
      4        6          -0.006083642    0.005195959    0.007193582
      5        6           0.008142681   -0.034960490   -0.005644205
      6        7           0.017771552    0.026706233   -0.007369387
      7        6          -0.013567503   -0.011204728    0.003902999
      8        1          -0.011558609   -0.001156237   -0.007400276
      9        6          -0.004313832    0.001110439   -0.002456785
     10        6           0.002776368   -0.001090215    0.001412115
     11        6          -0.001018482   -0.004648137   -0.002173393
     12        6           0.000199698   -0.010719433   -0.002683039
     13        6           0.015667367   -0.007283455    0.003166397
     14        1           0.001183887    0.005197479   -0.010225188
     15        7          -0.004528404    0.004171619    0.002440427
     16        6          -0.019328553    0.010095374    0.004318375
     17        1           0.009517022   -0.006096576   -0.004154266
     18        1          -0.019124588    0.000116459    0.004925388
     19        1           0.003143910    0.005930075    0.007993266
     20        1          -0.003100766   -0.007350916    0.002678112
     21        1          -0.004302730    0.002558309    0.009676641
     22        1          -0.003986942   -0.004006567   -0.007308592
     23        1           0.004039261    0.006202795    0.009212890
     24        1          -0.009371699    0.002633786   -0.002065262
     25        1          -0.000169613    0.010407066   -0.002388486
     26        1          -0.004804058   -0.004757420   -0.004188830
     27        1           0.005439101    0.003939286    0.002008370
 -------------------------------------------------------------------
 Cartesian Forces:  Max     0.041448692 RMS     0.010029956

 GradGradGradGradGradGradGradGradGradGradGradGradGradGradGradGradGradGrad
 Berny optimization.
 FormGI is forming the generalized inverse of G from B-inverse, IUseBI=4.
 Internal  Forces:  Max     0.038371827 RMS     0.007521460
 Search for a local minimum.
 Step number   1 out of a maximum of   20
 All quantities printed in internal units (Hartrees-Bohrs-Radians)
 Mixed Optimization -- RFO/linear search
 Second derivative matrix not updated -- first step.
 ITU=  0
     Eigenvalues ---    0.00230   0.00787   0.01035   0.01158   0.01231
     Eigenvalues ---    0.01425   0.01534   0.01560   0.01917   0.02035
     Eigenvalues ---    0.02126   0.02719   0.03775   0.04466   0.04699
     Eigenvalues ---    0.04842   0.05127   0.05139   0.05329   0.06012
     Eigenvalues ---    0.06191   0.07387   0.07647   0.07775   0.07924
     Eigenvalues ---    0.07981   0.08048   0.08068   0.10412   0.11749
     Eigenvalues ---    0.12209   0.13487   0.15512   0.15969   0.16000
     Eigenvalues ---    0.16291   0.20097   0.23148   0.24974   0.25000
     Eigenvalues ---    0.25000   0.25335   0.25987   0.26657   0.27989
     Eigenvalues ---    0.28086   0.28439   0.29743   0.30502   0.31545
     Eigenvalues ---    0.32070   0.32242   0.32296   0.32386   0.32392
     Eigenvalues ---    0.32407   0.32522   0.32536   0.32591   0.33385
     Eigenvalues ---    0.33497   0.33606   0.34968   0.43892   0.44171
     Eigenvalues ---    0.49490   0.64560   0.90405   0.912241000.00000
     Eigenvalues --- 1000.000001000.000001000.000001000.000001000.00000
     Eigenvalues --- 1000.000001000.000001000.000001000.000001000.00000
     Eigenvalues --- 1000.000001000.000001000.000001000.000001000.00000
     Eigenvalues --- 1000.000001000.000001000.000001000.000001000.00000
     Eigenvalues --- 1000.000001000.000001000.000001000.000001000.00000
     Eigenvalues --- 1000.000001000.000001000.000001000.000001000.00000
     Eigenvalues --- 1000.000001000.000001000.000001000.000001000.00000
     Eigenvalues --- 1000.000001000.000001000.000001000.000001000.00000
     Eigenvalues --- 1000.000001000.000001000.000001000.000001000.00000
     Eigenvalues --- 1000.000001000.000001000.000001000.000001000.00000
     Eigenvalues --- 1000.000001000.000001000.000001000.000001000.00000
     Eigenvalues --- 1000.000001000.000001000.000001000.000001000.00000
     Eigenvalues --- 1000.000001000.000001000.000001000.000001000.00000
     Eigenvalues --- 1000.000001000.000001000.000001000.000001000.00000
     Eigenvalues --- 1000.000001000.000001000.000001000.000001000.00000
     Eigenvalues --- 1000.000001000.000001000.000001000.000001000.00000
     Eigenvalues --- 1000.000001000.000001000.000001000.000001000.00000
     Eigenvalues --- 1000.000001000.000001000.000001000.000001000.00000
     Eigenvalues --- 1000.00000
 RFO step:  Lambda=-2.39615582D-02 EMin= 2.30326113D-03
 Linear search not attempted -- first point.
 Iteration  1 RMS(Cart)=  0.05401946 RMS(Int)=  0.00125854
 Iteration  2 RMS(Cart)=  0.00136943 RMS(Int)=  0.00038740
 Iteration  3 RMS(Cart)=  0.00000074 RMS(Int)=  0.00038740
 Iteration  1 RMS(Cart)=  0.00002487 RMS(Int)=  0.00001691
 Iteration  2 RMS(Cart)=  0.00001481 RMS(Int)=  0.00001874
 Iteration  3 RMS(Cart)=  0.00000913 RMS(Int)=  0.00002126
 Iteration  4 RMS(Cart)=  0.00000574 RMS(Int)=  0.00002318
 Iteration  5 RMS(Cart)=  0.00000365 RMS(Int)=  0.00002453
 Iteration  6 RMS(Cart)=  0.00000235 RMS(Int)=  0.00002546
 Iteration  7 RMS(Cart)=  0.00000155 RMS(Int)=  0.00002610
 Iteration  8 RMS(Cart)=  0.00000105 RMS(Int)=  0.00002654
 Iteration  9 RMS(Cart)=  0.00000076 RMS(Int)=  0.00002685
 Variable       Old X    -DE/DX   Delta X   Delta X   Delta X     New X
                                 (Linear)    (Quad)   (Total)
    R1        2.32374   0.01849   0.00000   0.01975   0.01975   2.34349
    R2        2.32747   0.01625   0.00000   0.01751   0.01751   2.34499
    R3        2.88480  -0.03837   0.00000  -0.11939  -0.11939   2.76540
    R4        2.64662  -0.03281   0.00000  -0.06946  -0.06924   2.57738
    R5        2.82631  -0.02826   0.00000  -0.06616  -0.06592   2.76039
    R6        2.57838  -0.02055   0.00000  -0.04827  -0.04820   2.53018
    R7        2.08381  -0.01160   0.00000  -0.03243  -0.03243   2.05137
    R8        2.80253  -0.01269   0.00000  -0.05177  -0.05185   2.75068
    R9        1.93284  -0.00468   0.00000  -0.01012  -0.01012   1.92272
   R10        2.11684  -0.01229   0.00000  -0.03621  -0.03621   2.08063
   R11        2.92458  -0.01302   0.00000  -0.04654  -0.04659   2.87799
   R12        2.90115  -0.00041   0.00000  -0.00363  -0.00348   2.89767
   R13        2.91124  -0.00373   0.00000  -0.01263  -0.01270   2.89854
   R14        2.09899  -0.01018   0.00000  -0.02915  -0.02915   2.06984
   R15        2.09875  -0.00802   0.00000  -0.02297  -0.02297   2.07578
   R16        2.90544  -0.00203   0.00000  -0.00487  -0.00491   2.90053
   R17        2.10132  -0.01063   0.00000  -0.03056  -0.03056   2.07076
   R18        2.10306  -0.00893   0.00000  -0.02575  -0.02575   2.07731
   R19        2.91912  -0.00976   0.00000  -0.02858  -0.02853   2.89058
   R20        2.10404  -0.01166   0.00000  -0.03366  -0.03366   2.07038
   R21        2.10106  -0.00993   0.00000  -0.02853  -0.02853   2.07253
   R22        2.93574  -0.01055   0.00000  -0.03501  -0.03494   2.90081
   R23        2.10143  -0.01058   0.00000  -0.03041  -0.03041   2.07102
   R24        2.09776  -0.00774   0.00000  -0.02212  -0.02212   2.07565
   R25        2.10716  -0.00968   0.00000  -0.02809  -0.02809   2.07907
   R26        2.77454  -0.00700   0.00000  -0.01346  -0.01390   2.76064
   R27        2.45257  -0.01113   0.00000  -0.00697  -0.00707   2.44551
   R28        2.08000  -0.00631   0.00000  -0.01753  -0.01753   2.06248
    A1        2.15944   0.01037   0.00000   0.03792   0.03782   2.19726
    A2        2.05303  -0.00576   0.00000  -0.02095  -0.02104   2.03198
    A3        2.07068  -0.00461   0.00000  -0.01675  -0.01685   2.05383
    A4        2.03195  -0.00666   0.00000  -0.01739  -0.01773   2.01421
    A5        2.03653  -0.00347   0.00000  -0.00551  -0.00590   2.03063
    A6        2.21372   0.01005   0.00000   0.02132   0.02141   2.23513
    A7        2.14232   0.01668   0.00000   0.00430   0.00453   2.14686
    A8        2.08629  -0.00641   0.00000   0.00869   0.00845   2.09474
    A9        2.05290  -0.01021   0.00000  -0.01158  -0.01187   2.04103
   A10        2.35937  -0.02316   0.00000   0.00000  -0.00000   2.35937
   A11        2.06827  -0.00604   0.00000  -0.08991  -0.09088   1.97740
   A12        1.82188   0.02887   0.00000   0.10187   0.10177   1.92365
   A13        1.85533  -0.00395   0.00000  -0.02491  -0.02458   1.83075
   A14        2.03014  -0.00458   0.00000  -0.00857  -0.00876   2.02139
   A15        1.90536   0.00896   0.00000  -0.00416  -0.00454   1.90082
   A16        1.86052   0.00439   0.00000   0.02613   0.02592   1.88644
   A17        1.86049  -0.00018   0.00000   0.02171   0.02121   1.88170
   A18        1.94198  -0.00452   0.00000  -0.00713  -0.00665   1.93533
   A19        1.90408   0.00095   0.00000  -0.00665  -0.00694   1.89714
   A20        1.92470  -0.00101   0.00000  -0.01518  -0.01514   1.90956
   A21        1.92256  -0.00195   0.00000  -0.00520  -0.00514   1.91742
   A22        1.91967  -0.00033   0.00000   0.00440   0.00438   1.92405
   A23        1.90804   0.00255   0.00000   0.02706   0.02706   1.93510
   A24        1.88473  -0.00019   0.00000  -0.00393  -0.00420   1.88052
   A25        1.93934   0.00014   0.00000   0.00868   0.00867   1.94801
   A26        1.91914  -0.00112   0.00000  -0.00870  -0.00874   1.91039
   A27        1.90543   0.00012   0.00000  -0.00273  -0.00288   1.90255
   A28        1.91625   0.00034   0.00000   0.00604   0.00607   1.92232
   A29        1.89865   0.00161   0.00000   0.01114   0.01112   1.90977
   A30        1.88403  -0.00109   0.00000  -0.01496  -0.01503   1.86900
   A31        1.94673   0.00114   0.00000   0.00871   0.00876   1.95549
   A32        1.90198   0.00017   0.00000   0.00357   0.00364   1.90562
   A33        1.91684   0.00052   0.00000   0.00555   0.00546   1.92230
   A34        1.90654  -0.00128   0.00000  -0.01587  -0.01591   1.89064
   A35        1.91469  -0.00062   0.00000   0.00018   0.00010   1.91479
   A36        1.87559   0.00003   0.00000  -0.00269  -0.00273   1.87286
   A37        1.94715  -0.00467   0.00000  -0.01980  -0.01980   1.92735
   A38        1.90576   0.00229   0.00000   0.01669   0.01664   1.92240
   A39        1.91104   0.00236   0.00000   0.01161   0.01148   1.92252
   A40        1.90600   0.00154   0.00000   0.00407   0.00415   1.91015
   A41        1.91167  -0.00019   0.00000  -0.00725  -0.00716   1.90452
   A42        1.88101  -0.00121   0.00000  -0.00478  -0.00491   1.87610
   A43        1.83964   0.00741   0.00000   0.03139   0.03130   1.87093
   A44        1.94538  -0.00594   0.00000  -0.03161  -0.03239   1.91299
   A45        1.98277   0.00040   0.00000  -0.00645  -0.00596   1.97681
   A46        1.88327   0.00198   0.00000   0.03251   0.03297   1.91624
   A47        1.89049  -0.00562   0.00000  -0.02597  -0.02590   1.86459
   A48        1.91743   0.00202   0.00000   0.00349   0.00316   1.92059
   A49        2.08959  -0.00312   0.00000  -0.01140  -0.01193   2.07765
   A50        2.26789  -0.00550   0.00000  -0.01111  -0.01093   2.25696
   A51        1.97184   0.00532   0.00000   0.01948   0.01915   1.99099
   A52        2.04345   0.00018   0.00000  -0.00844  -0.00876   2.03468
    D1       -3.04197  -0.00082   0.00000  -0.03485  -0.03455  -3.07653
    D2        0.14413   0.00061   0.00000   0.00000  -0.00000   0.14413
    D3        0.10913  -0.00181   0.00000  -0.05930  -0.05915   0.04998
    D4       -2.98796  -0.00039   0.00000  -0.02445  -0.02460  -3.01255
    D5        3.05522   0.00086   0.00000   0.03902   0.03905   3.09428
    D6       -0.02278   0.00006   0.00000   0.01264   0.01220  -0.01058
    D7       -0.13606  -0.00120   0.00000  -0.00083  -0.00127  -0.13733
    D8        3.06912  -0.00200   0.00000  -0.02721  -0.02812   3.04100
    D9       -2.74324  -0.00244   0.00000  -0.03129  -0.03181  -2.77506
   D10        0.40059   0.00037   0.00000   0.00351   0.00327   0.40387
   D11        0.44815  -0.00030   0.00000   0.00894   0.00912   0.45727
   D12       -2.69120   0.00251   0.00000   0.04374   0.04421  -2.64699
   D13       -0.01617  -0.00127   0.00000  -0.01572  -0.01533  -0.03150
   D14        2.80027   0.00280   0.00000   0.05487   0.05273   2.85301
   D15        3.06298  -0.00037   0.00000   0.01086   0.01143   3.07441
   D16       -0.40376   0.00370   0.00000   0.08146   0.07949  -0.32426
   D17       -2.57157  -0.00058   0.00000   0.00087   0.00142  -2.57015
   D18        1.64387  -0.00054   0.00000  -0.00912  -0.00858   1.63529
   D19       -0.57089   0.00149   0.00000   0.01126   0.01130  -0.55959
   D20        0.86405  -0.00100   0.00000  -0.03984  -0.04110   0.82295
   D21       -1.20369  -0.00096   0.00000  -0.04984  -0.05110  -1.25480
   D22        2.86473   0.00107   0.00000  -0.02946  -0.03122   2.83351
   D23        2.99716  -0.00117   0.00000   0.03301   0.03284   3.02999
   D24       -1.17592  -0.00161   0.00000   0.02471   0.02463  -1.15129
   D25        0.90270  -0.00370   0.00000   0.00709   0.00708   0.90978
   D26        0.93225   0.00344   0.00000   0.05092   0.05080   0.98305
   D27        3.04236   0.00300   0.00000   0.04263   0.04259   3.08495
   D28       -1.16221   0.00091   0.00000   0.02501   0.02505  -1.13717
   D29       -1.08958   0.00346   0.00000   0.01366   0.01360  -1.07598
   D30        1.02053   0.00302   0.00000   0.00537   0.00539   1.02592
   D31        3.09914   0.00093   0.00000  -0.01225  -0.01215   3.08699
   D32       -2.90676  -0.00161   0.00000  -0.01500  -0.01488  -2.92163
   D33       -0.86814   0.00202   0.00000   0.02579   0.02540  -0.84274
   D34        1.30937   0.00026   0.00000   0.00000  -0.00001   1.30937
   D35       -0.90941  -0.00195   0.00000  -0.03480  -0.03486  -0.94427
   D36        1.12920   0.00168   0.00000   0.00599   0.00541   1.13462
   D37       -2.97647  -0.00008   0.00000  -0.01980  -0.01999  -2.99646
   D38        1.11244   0.00084   0.00000   0.00518   0.00520   1.11763
   D39       -3.13213   0.00447   0.00000   0.04597   0.04547  -3.08666
   D40       -0.95462   0.00271   0.00000   0.02018   0.02007  -0.93455
   D41        0.95665   0.00115   0.00000   0.00000   0.00001   0.95665
   D42        3.08184   0.00091   0.00000   0.00750   0.00747   3.08931
   D43       -1.13745  -0.00101   0.00000  -0.01747  -0.01743  -1.15488
   D44       -1.15653   0.00200   0.00000   0.02020   0.02027  -1.13627
   D45        0.96866   0.00176   0.00000   0.02770   0.02773   0.99639
   D46        3.03255  -0.00016   0.00000   0.00273   0.00283   3.03538
   D47        3.06004   0.00089   0.00000   0.00604   0.00597   3.06601
   D48       -1.09795   0.00065   0.00000   0.01354   0.01344  -1.08452
   D49        0.96594  -0.00127   0.00000  -0.01143  -0.01146   0.95447
   D50       -0.92191  -0.00086   0.00000   0.00000   0.00001  -0.92190
   D51        1.18440  -0.00163   0.00000  -0.01191  -0.01190   1.17250
   D52       -3.04851  -0.00120   0.00000  -0.00989  -0.00990  -3.05841
   D53       -3.04879   0.00023   0.00000   0.00111   0.00110  -3.04769
   D54       -0.94248  -0.00053   0.00000  -0.01080  -0.01080  -0.95328
   D55        1.10779  -0.00010   0.00000  -0.00878  -0.00880   1.09899
   D56        1.17621   0.00041   0.00000   0.00918   0.00922   1.18543
   D57       -3.00066  -0.00036   0.00000  -0.00274  -0.00269  -3.00335
   D58       -0.95039   0.00007   0.00000  -0.00071  -0.00069  -0.95108
   D59        0.98814  -0.00161   0.00000  -0.02111  -0.02101   0.96714
   D60        3.09656  -0.00115   0.00000  -0.01756  -0.01761   3.07895
   D61       -1.13095   0.00008   0.00000  -0.00687  -0.00677  -1.13772
   D62       -1.11550  -0.00170   0.00000  -0.02059  -0.02050  -1.13600
   D63        0.99291  -0.00124   0.00000  -0.01704  -0.01710   0.97581
   D64        3.04859  -0.00001   0.00000  -0.00635  -0.00626   3.04233
   D65        3.11598  -0.00063   0.00000  -0.00814  -0.00808   3.10791
   D66       -1.05879  -0.00017   0.00000  -0.00459  -0.00468  -1.06347
   D67        0.99689   0.00107   0.00000   0.00610   0.00616   1.00305
   D68       -1.05209  -0.00070   0.00000   0.01122   0.01127  -1.04083
   D69       -3.13250   0.00134   0.00000   0.01537   0.01487  -3.11763
   D70        1.07578   0.00094   0.00000   0.00746   0.00758   1.08336
   D71        3.12282  -0.00160   0.00000   0.00030   0.00045   3.12327
   D72        1.04242   0.00044   0.00000   0.00445   0.00405   1.04647
   D73       -1.03249   0.00004   0.00000  -0.00346  -0.00324  -1.03573
   D74        1.06663  -0.00093   0.00000   0.00792   0.00812   1.07475
   D75       -1.01377   0.00111   0.00000   0.01207   0.01173  -1.00205
   D76       -3.08868   0.00072   0.00000   0.00416   0.00443  -3.08425
   D77       -1.17217   0.00598   0.00000   0.00000  -0.00000  -1.17217
   D78        3.07346   0.00024   0.00000  -0.01810  -0.01833   3.05513
   D79        1.02029  -0.00000   0.00000  -0.04409  -0.04454   0.97575
   D80        0.15074   0.00236   0.00000   0.00179   0.00185   0.15260
   D81       -2.99317  -0.00054   0.00000  -0.03417  -0.03394  -3.02711
         Item               Value     Threshold  Converged?
 Maximum Force            0.038372     0.000450     NO 
 RMS     Force            0.006953     0.000300     NO 
 Maximum Displacement     0.270998     0.001800     NO 
 RMS     Displacement     0.053943     0.001200     NO 
 Predicted change in Energy=-1.341290D-02
 GradGradGradGradGradGradGradGradGradGradGradGradGradGradGradGradGradGrad

                          Input orientation:                          
 ---------------------------------------------------------------------
 Center     Atomic      Atomic             Coordinates (Angstroms)
 Number     Number       Type             X           Y           Z
 ---------------------------------------------------------------------
      1          8           0       -3.496667   -1.416566   -0.301276
      2          7           0       -3.150010   -0.243865   -0.095100
      3          8           0       -3.911834    0.720423    0.077051
      4          6           0       -1.709835    0.008031   -0.032277
      5          6           0       -1.352521    1.288205    0.273794
      6          7           0       -0.079145    1.674176    0.422884
      7          6           0        1.214444    1.008972    0.369100
      8          1           0        1.840245    1.547789    1.097314
      9          6           0        1.922161    1.042920   -0.979014
     10          6           0        3.324346    0.443630   -0.813503
     11          6           0        3.269308   -0.963395   -0.202636
     12          6           0        2.462813   -0.993908    1.096750
     13          6           0        1.052833   -0.432800    0.865526
     14          1           0        0.490579   -0.436799    1.811193
     15          7           0        0.403269   -1.308422   -0.106837
     16          6           0       -0.840166   -1.105654   -0.402587
     17          1           0       -2.117256    2.040171    0.441504
     18          1           0        0.042623    2.683554    0.383473
     19          1           0        1.345651    0.462682   -1.707481
     20          1           0        1.979227    2.077187   -1.344581
     21          1           0        3.825411    0.412750   -1.787541
     22          1           0        3.920285    1.100861   -0.164433
     23          1           0        2.798031   -1.647723   -0.916726
     24          1           0        4.284529   -1.334290   -0.016640
     25          1           0        2.389719   -2.021155    1.471583
     26          1           0        2.965944   -0.395863    1.868533
     27          1           0       -1.315985   -1.846901   -1.047055
 ---------------------------------------------------------------------
                    Distance matrix (angstroms):
                    1          2          3          4          5
     1  O    0.000000
     2  N    1.240123   0.000000
     3  O    2.209574   1.240913   0.000000
     4  C    2.301001   1.463387   2.316949   0.000000
     5  C    3.499122   2.390458   2.628910   1.363890   0.000000
     6  N    4.664392   3.657513   3.964688   2.375365   1.338913
     7  C    5.341086   4.564377   5.142691   3.116791   2.583866
     8  H    6.263073   5.434567   5.900160   4.031116   3.307465
     9  C    5.989332   5.306980   5.937573   3.893417   3.514716
    10  C    7.088648   6.550270   7.296027   5.113026   4.875306
    11  C    6.781852   6.460412   7.381211   5.075880   5.163138
    12  C    6.135838   5.786782   6.679434   4.437293   4.521290
    13  C    4.798664   4.315366   5.157474   2.938148   3.016245
    14  H    4.617423   4.114008   4.871103   2.904837   2.955715
    15  N    3.906277   3.709340   4.771806   2.490746   3.157554
    16  C    2.676551   2.484472   3.605517   1.460735   2.539795
    17  H    3.795197   2.563463   2.257226   2.126041   1.085541
    18  H    5.459527   4.357949   4.425551   3.225272   1.976222
    19  H    5.381173   4.828037   5.558069   3.514115   3.447762
    20  H    6.578770   5.766937   6.210189   4.428626   3.787106
    21  H    7.692088   7.207774   7.964693   5.820971   5.641498
    22  H    7.833731   7.197372   7.845071   5.736723   5.294301
    23  H    6.328936   6.166447   7.184566   4.883096   5.221502
    24  H    7.786835   7.514489   8.450502   6.142839   6.223999
    25  H    6.177224   6.025102   7.012171   4.815136   5.137210
    26  H    6.893130   6.425251   7.194396   5.063508   4.901879
    27  H    2.344515   2.615261   3.820105   2.150737   3.402186
                    6          7          8          9         10
     6  N    0.000000
     7  C    1.455597   0.000000
     8  H    2.038355   1.101022   0.000000
     9  C    2.523693   1.522966   2.138397   0.000000
    10  C    3.824480   2.483918   2.659501   1.533840   0.000000
    11  C    4.308155   2.905095   3.168302   2.538281   1.534896
    12  C    3.746240   2.469702   2.616833   2.958001   2.541224
    13  C    2.432418   1.533383   2.143940   2.517103   2.957539
    14  H    2.590021   2.166534   2.503960   3.467601   3.961619
    15  N    3.067446   2.500967   3.416552   2.931985   3.478758
    16  C    2.998001   3.047714   4.058949   3.546701   4.462320
    17  H    2.070795   3.488386   4.041576   4.396506   5.808185
    18  H    1.017459   2.043917   2.242984   2.842659   4.149665
    19  H    2.834822   2.151240   3.047779   1.095310   2.171358
    20  H    2.742853   2.159324   2.502485   1.098455   2.181720
    21  H    4.660766   3.438566   3.681249   2.161757   1.095797
    22  H    4.082778   2.759471   2.473523   2.158564   1.099267
    23  H    4.594313   3.349496   3.896795   2.830298   2.159032
    24  H    5.318430   3.881378   3.939771   3.486843   2.172082
    25  H    4.566239   3.431969   3.630339   3.951277   3.488597
    26  H    3.955696   2.699929   2.374818   3.356800   2.833111
    27  H    4.011045   4.069960   5.107253   4.340655   5.180131
                   11         12         13         14         15
    11  C    0.000000
    12  C    1.529631   0.000000
    13  C    2.516994   1.535040   0.000000
    14  H    3.471909   2.170370   1.100197   0.000000
    15  N    2.888322   2.406089   1.460869   2.108600   0.000000
    16  C    4.116795   3.629073   2.375771   2.668159   1.294107
    17  H    6.200919   5.532812   4.042876   3.848666   4.226913
    18  H    4.904616   4.459799   3.311278   3.460586   4.038111
    19  H    2.828200   3.351629   2.740072   3.731124   2.566506
    20  H    3.494780   3.952920   3.470276   4.300595   3.934210
    21  H    2.171394   3.486331   3.929492   4.979331   4.183093
    22  H    2.164805   2.846553   3.411043   4.246220   4.263493
    23  H    1.095597   2.143346   2.774558   3.772561   2.550673
    24  H    1.096736   2.161978   3.469114   4.305871   3.882394
    25  H    2.166920   1.095937   2.162739   2.496448   2.635410
    26  H    2.168839   1.098384   2.160412   2.476368   3.361868
    27  H    4.745371   4.427506   3.356925   3.663556   2.032191
                   16         17         18         19         20
    16  C    0.000000
    17  H    3.498522   0.000000
    18  H    3.969295   2.254415   0.000000
    19  H    2.990020   4.370163   3.316962   0.000000
    20  H    4.355090   4.469076   2.665387   1.771932   0.000000
    21  H    5.098163   6.552285   4.917249   2.481555   2.524869
    22  H    5.252364   6.140144   4.223906   3.068715   2.472584
    23  H    3.714116   6.293281   5.295540   2.681140   3.837767
    24  H    5.144291   7.251188   5.856358   3.837324   4.326202
    25  H    3.844843   6.153719   5.369090   4.167250   4.989558
    26  H    4.488682   5.814602   4.498224   4.018747   4.172972
    27  H    1.091417   4.238770   4.941381   3.585337   5.132779
                   21         22         23         24         25
    21  H    0.000000
    22  H    1.765497   0.000000
    23  H    2.461581   3.062697   0.000000
    24  H    2.529631   2.466673   1.765806   0.000000
    25  H    4.313583   3.842676   2.451569   2.505373   0.000000
    26  H    3.841799   2.698870   3.058270   2.484590   1.769514
    27  H    5.664654   6.073455   4.120896   5.717542   4.483988
                   26         27
    26  H    0.000000
    27  H    5.379692   0.000000
 Symmetry turned off by external request.
 Stoichiometry    C9H13N3O2
 Framework group  C1[X(C9H13N3O2)]
 Deg. of freedom    75
 Full point group                 C1      NOp   1
 Rotational constants (GHZ):           1.7028113           0.4166310           0.3704014
 Standard basis: 6-31G(d) (6D, 7F)
   236 basis functions,   444 primitive gaussians,   236 cartesian basis functions
    52 alpha electrons       52 beta electrons
       nuclear repulsion energy       931.2608169438 Hartrees.
 NAtoms=   27 NActive=   27 NUniq=   27 SFac= 1.00D+00 NAtFMM=   60 NAOKFM=F Big=F
 Integral buffers will be    131072 words long.
 Raffenetti 1 integral format.
 Two-electron integral symmetry is turned off.
 One-electron integrals computed using PRISM.
 NBasis=   236 RedAO= T EigKep=  1.06D-03  NBF=   236
 NBsUse=   236 1.00D-06 EigRej= -1.00D+00 NBFU=   236
 Initial guess from the checkpoint file:  "/home/alexey/tmp/Gau-1380157.chk"
 B after Tr=     0.053392    0.003759   -0.000883
         Rot=    0.999998   -0.001556    0.000716    0.000716 Ang=  -0.21 deg.
 ExpMin= 1.61D-01 ExpMax= 5.48D+03 ExpMxC= 8.25D+02 IAcc=3 IRadAn=         5 AccDes= 0.00D+00
 Harris functional with IExCor=  205 and IRadAn=       5 diagonalized for initial guess.
 HarFok:  IExCor=  205 AccDes= 0.00D+00 IRadAn=         5 IDoV= 1 UseB2=F ITyADJ=14
 ICtDFT=  3500011 ScaDFX=  1.000000  1.000000  1.000000  1.000000
 FoFCou: FMM=F IPFlag=           0 FMFlag=      100000 FMFlg1=           0
         NFxFlg=           0 DoJE=T BraDBF=F KetDBF=T FulRan=T
         wScrn=  0.000000 ICntrl=       500 IOpCl=  0 I1Cent=   200000004 NGrid=           0
         NMat0=    1 NMatS0=      1 NMatT0=    0 NMatD0=    1 NMtDS0=    0 NMtDT0=    0
 Symmetry not used in FoFCou.
 Keep R1 ints in memory in canonical form, NReq=397720213.
 Requested convergence on RMS density matrix=1.00D-08 within 128 cycles.
 Requested convergence on MAX density matrix=1.00D-06.
 Requested convergence on             energy=1.00D-06.
 No special actions if energy rises.
 SCF Done:  E(RHF) =  -661.295222315     A.U. after   15 cycles
            NFock= 15  Conv=0.40D-08     -V/T= 2.0025
 ExpMin= 1.61D-01 ExpMax= 5.48D+03 ExpMxC= 8.25D+02 IAcc=3 IRadAn=         5 AccDes= 0.00D+00
 HarFok:  IExCor=  205 AccDes= 0.00D+00 IRadAn=         5 IDoV=-2 UseB2=F ITyADJ=14
 ICtDFT= 12500011 ScaDFX=  1.000000  1.000000  1.000000  1.000000
 Range of M.O.s used for correlation:    15   236
 NBasis=   236 NAE=    52 NBE=    52 NFC=    14 NFV=     0
 NROrb=    222 NOA=    38 NOB=    38 NVA=   184 NVB=   184
 Fully direct method using O(ONN) memory.
 JobTyp=1 Pass  1:  I=  15 to  52 NPSUse=  4 ParTrn=T ParDer=T DoDerP=T.
 Spin components of T(2) and E(2):
     alpha-alpha T2 =       0.9135813925D-01 E2=     -0.2724639153D+00
     alpha-beta  T2 =       0.4916052541D+00 E2=     -0.1488396822D+01
     beta-beta   T2 =       0.9135813925D-01 E2=     -0.2724639153D+00
 ANorm=    0.1293955769D+01
 E2 =    -0.2033324652D+01 EUMP2 =    -0.66332854696662D+03
          IDoAtm=111111111111111111111111111
          Differentiating once with respect to electric field.
                with respect to dipole field.
          Differentiating once with respect to nuclear coordinates.
 Keep R1 ints in memory in canonical form, NReq=397723379.
          There are     1 degrees of freedom in the 1st order CPHF.  IDoFFX=0 NUNeed=     1.
 LinEq1:  Iter=  0 NonCon=     1 RMS=4.58D-03 Max=1.01D-01 NDo=     1
 AX will form     1 AO Fock derivatives at one time.
 LinEq1:  Iter=  1 NonCon=     1 RMS=1.53D-03 Max=2.86D-02 NDo=     1
 LinEq1:  Iter=  2 NonCon=     1 RMS=6.46D-04 Max=1.74D-02 NDo=     1
 LinEq1:  Iter=  3 NonCon=     1 RMS=2.83D-04 Max=8.50D-03 NDo=     1
 LinEq1:  Iter=  4 NonCon=     1 RMS=8.76D-05 Max=2.05D-03 NDo=     1
 LinEq1:  Iter=  5 NonCon=     1 RMS=3.70D-05 Max=1.81D-03 NDo=     1
 LinEq1:  Iter=  6 NonCon=     1 RMS=1.45D-05 Max=5.44D-04 NDo=     1
 LinEq1:  Iter=  7 NonCon=     1 RMS=5.46D-06 Max=9.50D-05 NDo=     1
 LinEq1:  Iter=  8 NonCon=     1 RMS=2.09D-06 Max=4.61D-05 NDo=     1
 LinEq1:  Iter=  9 NonCon=     1 RMS=7.04D-07 Max=2.05D-05 NDo=     1
[...]
                   16         17         18         19         20
    16  C    0.000000
    17  H    3.483136   0.000000
    18  H    3.995195   2.205667   0.000000
    19  H    2.969448   4.340642   3.470389   0.000000
    20  H    4.354697   4.478425   2.878820   1.769532   0.000000
    21  H    5.082816   6.543931   5.064505   2.499606   2.521981
    22  H    5.237829   6.125538   4.298841   3.070532   2.462535
    23  H    3.701156   6.276466   5.372884   2.709517   3.847545
    24  H    5.139314   7.234150   5.897664   3.852475   4.318923
    25  H    3.839333   6.126839   5.323484   4.178286   4.997086
    26  H    4.504989   5.817082   4.461391   4.049534   4.202711
    27  H    1.090157   4.240430   4.987384   3.543606   5.112557
                   21         22         23         24         25
    21  H    0.000000
    22  H    1.758412   0.000000
    23  H    2.466934   3.061693   0.000000
    24  H    2.514421   2.457911   1.764214   0.000000
    25  H    4.313329   3.847363   2.441384   2.521621   0.000000
    26  H    3.854515   2.717633   3.059996   2.488301   1.767824
    27  H    5.619021   6.035199   4.078188   5.685641   4.462765
                   26         27
    26  H    0.000000
    27  H    5.379742   0.000000
 Symmetry turned off by external request.
 Stoichiometry    C9H13N3O2
 Framework group  C1[X(C9H13N3O2)]
 Deg. of freedom    75
 Full point group                 C1      NOp   1
 Rotational constants (GHZ):           1.6968416           0.4144453           0.3702254

 **********************************************************************

            Population analysis using the SCF Density.

 **********************************************************************

 Alpha  occ. eigenvalues --  -20.59109 -20.58725 -15.84588 -15.64014 -15.56193
 Alpha  occ. eigenvalues --  -11.35308 -11.29823 -11.29666 -11.28471 -11.27029
 Alpha  occ. eigenvalues --  -11.23893 -11.23334 -11.22632 -11.22131  -1.56960
 Alpha  occ. eigenvalues --   -1.36557  -1.31303  -1.22725  -1.14798  -1.09739
 Alpha  occ. eigenvalues --   -1.03029  -1.01412  -0.94476  -0.89618  -0.85752
 Alpha  occ. eigenvalues --   -0.82395  -0.78643  -0.77252  -0.75172  -0.71389
 Alpha  occ. eigenvalues --   -0.69652  -0.69370  -0.67998  -0.65103  -0.63603
 Alpha  occ. eigenvalues --   -0.62847  -0.60249  -0.58000  -0.56974  -0.54987
 Alpha  occ. eigenvalues --   -0.54463  -0.50834  -0.50245  -0.48578  -0.48026
 Alpha  occ. eigenvalues --   -0.47286  -0.46163  -0.46117  -0.43563  -0.41694
 Alpha  occ. eigenvalues --   -0.39682  -0.33634
 Alpha virt. eigenvalues --    0.07406   0.11765   0.17302   0.21839   0.23931
 Alpha virt. eigenvalues --    0.25648   0.27097   0.28498   0.28989   0.29548
 Alpha virt. eigenvalues --    0.30529   0.31806   0.31928   0.32774   0.33805
 Alpha virt. eigenvalues --    0.34272   0.35929   0.37455   0.38356   0.40185
 Alpha virt. eigenvalues --    0.41203   0.42617   0.45298   0.45877   0.46292
 Alpha virt. eigenvalues --    0.46909   0.48896   0.53794   0.57633   0.59454
 Alpha virt. eigenvalues --    0.63909   0.69192   0.69806   0.72701   0.74112
 Alpha virt. eigenvalues --    0.74914   0.75661   0.76849   0.78710   0.79194
 Alpha virt. eigenvalues --    0.81321   0.84360   0.85725   0.86479   0.88121
 Alpha virt. eigenvalues --    0.89165   0.90985   0.92009   0.92958   0.94500
 Alpha virt. eigenvalues --    0.95746   0.97935   0.99482   1.01732   1.02437
 Alpha virt. eigenvalues --    1.03080   1.05627   1.06854   1.07507   1.09119
 Alpha virt. eigenvalues --    1.10182   1.11695   1.11731   1.12395   1.13834
 Alpha virt. eigenvalues --    1.14724   1.14983   1.16049   1.16761   1.18738
 Alpha virt. eigenvalues --    1.19159   1.21372   1.22394   1.23302   1.24255
 Alpha virt. eigenvalues --    1.24916   1.25975   1.26849   1.27538   1.29563
 Alpha virt. eigenvalues --    1.29978   1.32851   1.36384   1.37209   1.40629
 Alpha virt. eigenvalues --    1.41288   1.46575   1.48795   1.51975   1.54252
 Alpha virt. eigenvalues --    1.56799   1.58802   1.59881   1.63142   1.66599
 Alpha virt. eigenvalues --    1.68229   1.68362   1.72206   1.75462   1.77167
 Alpha virt. eigenvalues --    1.81726   1.83829   1.86975   1.90188   1.94016
 Alpha virt. eigenvalues --    1.95592   1.96984   1.99191   2.01298   2.01603
 Alpha virt. eigenvalues --    2.04894   2.05795   2.08498   2.10843   2.12436
 Alpha virt. eigenvalues --    2.13379   2.15923   2.19510   2.19687   2.21645
 Alpha virt. eigenvalues --    2.23101   2.24692   2.25582   2.27613   2.28743
 Alpha virt. eigenvalues --    2.31528   2.33578   2.33949   2.36824   2.38631
 Alpha virt. eigenvalues --    2.41217   2.42151   2.43950   2.45222   2.46826
 Alpha virt. eigenvalues --    2.51296   2.51780   2.52732   2.54734   2.61267
 Alpha virt. eigenvalues --    2.61967   2.65842   2.67602   2.69716   2.70502
 Alpha virt. eigenvalues --    2.72135   2.72629   2.77474   2.78444   2.84144
 Alpha virt. eigenvalues --    2.85305   2.88623   2.92477   2.93038   2.96333
 Alpha virt. eigenvalues --    2.98707   3.01888   3.04716   3.05472   3.08166
 Alpha virt. eigenvalues --    3.09578   3.15406   3.20647   3.25456   3.26715
 Alpha virt. eigenvalues --    3.33253   3.38002   3.41015   3.51886   3.66592
 Alpha virt. eigenvalues --    4.13324   4.28591   4.33674   4.38284   4.46044
 Alpha virt. eigenvalues --    4.55533   4.61498   4.62388   4.73376   4.80302
 Alpha virt. eigenvalues --    4.99230   5.00646   5.05621   5.11141
          Condensed to atoms (all electrons):
               1          2          3          4          5          6
     1  O    8.316817   0.307752  -0.081888  -0.085483   0.004603  -0.000018
     2  N    0.307752   5.722506   0.300727   0.263010  -0.052176   0.000972
     3  O   -0.081888   0.300727   8.355444  -0.094459   0.006603   0.000797
     4  C   -0.085483   0.263010  -0.094459   5.236077   0.563256  -0.055437
     5  C    0.004603  -0.052176   0.006603   0.563256   4.688476   0.321430
     6  N   -0.000018   0.000972   0.000797  -0.055437   0.321430   7.217319
     7  C    0.000003  -0.000098   0.000004   0.004745  -0.023294   0.161041
     8  H   -0.000000   0.000002  -0.000000  -0.000291   0.002713  -0.050306
     9  C   -0.000000  -0.000004  -0.000000   0.000951   0.000583  -0.057444
    10  C    0.000000   0.000000   0.000000  -0.000043  -0.000036   0.003731
    11  C   -0.000000  -0.000000  -0.000000  -0.000021   0.000024  -0.000202
    12  C   -0.000000   0.000002  -0.000000  -0.000218  -0.000101   0.004174
    13  C   -0.000021  -0.000042  -0.000003  -0.009843  -0.001080  -0.061667
    14  H   -0.000003  -0.000094   0.000001   0.002672   0.005737  -0.007998
    15  N    0.000376   0.002145  -0.000014  -0.062257  -0.005254   0.001701
    16  C    0.000681  -0.026799   0.002546   0.324018  -0.049360  -0.002133
    17  H    0.000150  -0.005783   0.015232  -0.019852   0.373338  -0.033582
    18  H    0.000001  -0.000062   0.000012   0.002122  -0.035246   0.338079
    19  H    0.000001  -0.000003   0.000000  -0.001106   0.001051  -0.000484
    20  H    0.000000  -0.000000   0.000000  -0.000062   0.000057  -0.000214
    21  H   -0.000000   0.000000  -0.000000   0.000001   0.000001  -0.000075
    22  H   -0.000000   0.000000  -0.000000   0.000000  -0.000003  -0.000113
    23  H    0.000000  -0.000000   0.000000   0.000040  -0.000002  -0.000033
    24  H    0.000000   0.000000   0.000000   0.000000  -0.000000   0.000006
    25  H    0.000000  -0.000000   0.000000   0.000025  -0.000003  -0.000105
    26  H    0.000000  -0.000000   0.000000   0.000007  -0.000003  -0.000073
    27  H    0.006539  -0.000995   0.000028  -0.065144   0.002289   0.000028
               7          8          9         10         11         12
     1  O    0.000003  -0.000000  -0.000000   0.000000  -0.000000  -0.000000
     2  N   -0.000098   0.000002  -0.000004   0.000000  -0.000000   0.000002
     3  O    0.000004  -0.000000  -0.000000   0.000000  -0.000000  -0.000000
     4  C    0.004745  -0.000291   0.000951  -0.000043  -0.000021  -0.000218
     5  C   -0.023294   0.002713   0.000583  -0.000036   0.000024  -0.000101
     6  N    0.161041  -0.050306  -0.057444   0.003731  -0.000202   0.004174
     7  C    5.012161   0.417966   0.352756  -0.055356  -0.009131  -0.062643
     8  H    0.417966   0.532893  -0.053568   0.000967  -0.000216  -0.001361
     9  C    0.352756  -0.053568   5.152397   0.324462  -0.050189  -0.005037
    10  C   -0.055356   0.000967   0.324462   5.121211   0.337024  -0.059906
    11  C   -0.009131  -0.000216  -0.050189   0.337024   5.119680   0.335825
    12  C   -0.062643  -0.001361  -0.005037  -0.059906   0.335825   5.117217
    13  C    0.341542  -0.037171  -0.059139  -0.000685  -0.050430   0.370875
    14  H   -0.045240  -0.000690   0.004169  -0.000390   0.004213  -0.036428
    15  N   -0.057067   0.003903  -0.015846   0.001554  -0.012772  -0.081553
    16  C   -0.002223   0.000050  -0.001712  -0.000006   0.000007   0.002658
    17  H    0.001249  -0.000032  -0.000053   0.000001   0.000000   0.000001
    18  H   -0.024134  -0.005171   0.000954  -0.000088   0.000004  -0.000141
    19  H   -0.036782   0.004273   0.390756  -0.031797  -0.002111   0.000708
    20  H   -0.042707  -0.002315   0.398816  -0.035096   0.003876  -0.000435
    21  H    0.004628  -0.000092  -0.036310   0.402565  -0.034714   0.004261
    22  H   -0.004784   0.003477  -0.046878   0.397343  -0.045495  -0.000847
    23  H    0.000642   0.000030  -0.001954  -0.039092   0.398870  -0.037509
    24  H   -0.000127  -0.000094   0.004364  -0.038624   0.402550  -0.038706
    25  H    0.005134  -0.000055  -0.000407   0.004125  -0.033453   0.397645
    26  H   -0.003624   0.001633   0.000931  -0.002059  -0.041896   0.397174
    27  H   -0.000402   0.000009  -0.000066   0.000008   0.000012  -0.000033
              13         14         15         16         17         18
     1  O   -0.000021  -0.000003   0.000376   0.000681   0.000150   0.000001
     2  N   -0.000042  -0.000094   0.002145  -0.026799  -0.005783  -0.000062
     3  O   -0.000003   0.000001  -0.000014   0.002546   0.015232   0.000012
     4  C   -0.009843   0.002672  -0.062257   0.324018  -0.019852   0.002122
     5  C   -0.001080   0.005737  -0.005254  -0.049360   0.373338  -0.035246
     6  N   -0.061667  -0.007998   0.001701  -0.002133  -0.033582   0.338079
     7  C    0.341542  -0.045240  -0.057067  -0.002223   0.001249  -0.024134
     8  H   -0.037171  -0.000690   0.003903   0.000050  -0.000032  -0.005171
     9  C   -0.059139   0.004169  -0.015846  -0.001712  -0.000053   0.000954
    10  C   -0.000685  -0.000390   0.001554  -0.000006   0.000001  -0.000088
    11  C   -0.050430   0.004213  -0.012772   0.000007   0.000000   0.000004
    12  C    0.370875  -0.036428  -0.081553   0.002658   0.000001  -0.000141
    13  C    5.045646   0.404156   0.241299  -0.069662  -0.000051   0.004140
    14  H    0.404156   0.523848  -0.036593  -0.004000   0.000096  -0.000086
    15  N    0.241299  -0.036593   6.970942   0.583498  -0.000060  -0.000150
    16  C   -0.069662  -0.004000   0.583498   4.716338   0.001962  -0.000206
    17  H   -0.000051   0.000096  -0.000060   0.001962   0.371428  -0.003379
    18  H    0.004140  -0.000086  -0.000150  -0.000206  -0.003379   0.326184
    19  H   -0.007420   0.000099   0.007886   0.003119   0.000014  -0.000140
    20  H    0.004377  -0.000061   0.000140  -0.000043   0.000000   0.001027
    21  H   -0.000401   0.000010  -0.000048   0.000003  -0.000000   0.000001
    22  H   -0.000057  -0.000056   0.000022  -0.000002  -0.000000   0.000001
    23  H   -0.007569  -0.000004   0.008509   0.000088   0.000000   0.000000
    24  H    0.004688  -0.000056   0.000145   0.000007   0.000000  -0.000000
    25  H   -0.035047  -0.002599   0.000273  -0.000037  -0.000000   0.000003
    26  H   -0.047896  -0.001115   0.004910  -0.000060   0.000000  -0.000001
    27  H    0.005099  -0.000177  -0.041066   0.404568  -0.000072   0.000001
              19         20         21         22         23         24
     1  O    0.000001   0.000000  -0.000000  -0.000000   0.000000   0.000000
     2  N   -0.000003  -0.000000   0.000000   0.000000  -0.000000   0.000000
     3  O    0.000000   0.000000  -0.000000  -0.000000   0.000000   0.000000
     4  C   -0.001106  -0.000062   0.000001   0.000000   0.000040   0.000000
     5  C    0.001051   0.000057   0.000001  -0.000003  -0.000002  -0.000000
     6  N   -0.000484  -0.000214  -0.000075  -0.000113  -0.000033   0.000006
     7  C   -0.036782  -0.042707   0.004628  -0.004784   0.000642  -0.000127
     8  H    0.004273  -0.002315  -0.000092   0.003477   0.000030  -0.000094
     9  C    0.390756   0.398816  -0.036310  -0.046878  -0.001954   0.004364
    10  C   -0.031797  -0.035096   0.402565   0.397343  -0.039092  -0.038624
    11  C   -0.002111   0.003876  -0.034714  -0.045495   0.398870   0.402550
    12  C    0.000708  -0.000435   0.004261  -0.000847  -0.037509  -0.038706
    13  C   -0.007420   0.004377  -0.000401  -0.000057  -0.007569   0.004688
    14  H    0.000099  -0.000061   0.000010  -0.000056  -0.000004  -0.000056
    15  N    0.007886   0.000140  -0.000048   0.000022   0.008509   0.000145
    16  C    0.003119  -0.000043   0.000003  -0.000002   0.000088   0.000007
    17  H    0.000014   0.000000  -0.000000  -0.000000   0.000000   0.000000
    18  H   -0.000140   0.001027   0.000001   0.000001   0.000000  -0.000000
    19  H    0.501565  -0.024725  -0.002838   0.003946   0.001506  -0.000066
    20  H   -0.024725   0.541641  -0.002636  -0.002990  -0.000044  -0.000082
    21  H   -0.002838  -0.002636   0.522450  -0.027349  -0.002900  -0.002234
    22  H    0.003946  -0.002990  -0.027349   0.571372   0.004154  -0.003701
    23  H    0.001506  -0.000044  -0.002900   0.004154   0.499352  -0.025524
    24  H   -0.000066  -0.000082  -0.002234  -0.003701  -0.025524   0.538092
    25  H   -0.000029   0.000013  -0.000085  -0.000080  -0.002362  -0.002240
    26  H    0.000020  -0.000029  -0.000082   0.002368   0.004080  -0.003103
    27  H    0.000084   0.000000  -0.000000   0.000000  -0.000037  -0.000000
              25         26         27
     1  O    0.000000   0.000000   0.006539
     2  N   -0.000000  -0.000000  -0.000995
     3  O    0.000000   0.000000   0.000028
     4  C    0.000025   0.000007  -0.065144
     5  C   -0.000003  -0.000003   0.002289
     6  N   -0.000105  -0.000073   0.000028
     7  C    0.005134  -0.003624  -0.000402
     8  H   -0.000055   0.001633   0.000009
     9  C   -0.000407   0.000931  -0.000066
    10  C    0.004125  -0.002059   0.000008
    11  C   -0.033453  -0.041896   0.000012
    12  C    0.397645   0.397174  -0.000033
    13  C   -0.035047  -0.047896   0.005099
    14  H   -0.002599  -0.001115  -0.000177
    15  N    0.000273   0.004910  -0.041066
    16  C   -0.000037  -0.000060   0.404568
    17  H   -0.000000   0.000000  -0.000072
    18  H    0.000003  -0.000001   0.000001
    19  H   -0.000029   0.000020   0.000084
    20  H    0.000013  -0.000029   0.000000
    21  H   -0.000085  -0.000082  -0.000000
    22  H   -0.000080   0.002368   0.000000
    23  H   -0.002362   0.004080  -0.000037
    24  H   -0.002240  -0.003103  -0.000000
    25  H    0.507605  -0.024238  -0.000013
    26  H   -0.024238   0.563807   0.000001
    27  H   -0.000013   0.000001   0.441618
 Mulliken charges:
               1
     1  O   -0.469509
     2  N    0.488939
     3  O   -0.505030
     4  C   -0.002708
     5  C    0.196398
     6  N   -0.779394
     7  C    0.065741
     8  H    0.183446
     9  C   -0.302534
    10  C   -0.329814
    11  C   -0.321457
    12  C   -0.305623
    13  C   -0.033636
    14  H    0.190588
    15  N   -0.514622
    16  C    0.116699
    17  H    0.299395
    18  H    0.396276
    19  H    0.192471
    20  H    0.161496
    21  H    0.175843
    22  H    0.149671
    23  H    0.199759
    24  H    0.164704
    25  H    0.185931
    26  H    0.149248
    27  H    0.247722
 Sum of Mulliken charges =  -0.00000
 Mulliken charges with hydrogens summed into heavy atoms:
               1
     1  O   -0.469509
     2  N    0.488939
     3  O   -0.505030
     4  C   -0.002708
     5  C    0.495792
     6  N   -0.383118
     7  C    0.249187
     9  C    0.051433
    10  C   -0.004299
    11  C    0.043006
    12  C    0.029556
    13  C    0.156952
    15  N   -0.514622
    16  C    0.364421
 Electronic spatial extent (au):  <R**2>=           3022.9764
 Charge=              0.0000 electrons
 Dipole moment (field-independent basis, Debye):
    X=              5.5288    Y=              4.9006    Z=              1.2882  Tot=              7.4995
 Quadrupole moment (field-independent basis, Debye-Ang):
   XX=           -106.4104   YY=            -79.2902   ZZ=            -81.5424
   XY=             -2.0223   XZ=             -0.6148   YZ=              1.6317
 Traceless Quadrupole moment (field-independent basis, Debye-Ang):
   XX=            -17.3294   YY=              9.7908   ZZ=              7.5386
   XY=             -2.0223   XZ=             -0.6148   YZ=              1.6317
 Octapole moment (field-independent basis, Debye-Ang**2):
  XXX=             96.6656  YYY=             35.6895  ZZZ=             -1.4002  XYY=             -4.3478
  XXY=             10.5549  XXZ=              6.4308  XZZ=             -9.0376  YZZ=             -0.1525
  YYZ=              7.8492  XYZ=              0.5232
 Hexadecapole moment (field-independent basis, Debye-Ang**3):
 XXXX=          -3424.5471 YYYY=           -594.7880 ZZZZ=           -309.1056 XXXY=            -19.5747
 XXXZ=            -26.0306 YYYX=             -9.7553 YYYZ=             21.6036 ZZZX=             -4.2640
 ZZZY=              5.6603 XXYY=           -629.5799 XXZZ=           -530.3123 YYZZ=           -156.6044
 XXYZ=             -5.4097 YYXZ=             -1.7929 ZZXY=              4.7212
 N-N= 9.304013839296D+02 E-N=-3.407514398307D+03  KE= 6.596230167458D+02
 Unable to Open any file for archive entry.
 1\1\GINC-LOTUS\FOpt\RMP2-FC\6-31G(d)\C9H13N3O2\ALEXEY\01-Jul-2023\0\\#
 MP2/6-31G* SCF=Tight Opt=(ModRedun, MaxCycle=20 ) NoSymm\\MolName:\\0,
 1\O,-3.5167482959,-1.3938169922,-0.4254033717\N,-3.1437922405,-0.23791
 8769,-0.1451597398\O,-3.9263413253,0.7163550352,0.0337516942\C,-1.7194
 503041,-0.0129578332,-0.0051793667\C,-1.3406298572,1.2726366848,0.2956
 575687\N,-0.069989081,1.6763479353,0.4168979262\C,1.2240266358,1.02852
 84367,0.3567786505\H,1.8561826183,1.5847371754,1.0641544387\C,1.912785
 0558,1.0332796022,-1.002869015\C,3.3101086355,0.4223517551,-0.83796385
 63\C,3.2646601597,-0.9707594251,-0.2018391158\C,2.476013739,-0.9817385
 83,1.1104720157\C,1.0711021787,-0.4152836704,0.8834807552\H,0.49829025
 17,-0.3812033426,1.8226509104\N,0.4123125571,-1.2950115784,-0.08079315
 \C,-0.8365810685,-1.1069339975,-0.3834538267\H,-2.1030205125,2.0282543
 9,0.4525852894\H,0.0010409991,2.6703930915,0.612425586\H,1.3138277504,
 0.4520629729,-1.7111931928\H,1.9800935698,2.0589658065,-1.3868523306\H
 ,3.8102615051,0.3766726242,-1.8120127347\H,3.9142470545,1.091706634,-0
 .2089139902\H,2.7856346455,-1.6708197292,-0.8934929449\H,4.2855822444,
 -1.3313216264,-0.0289990267\H,2.3907430516,-2.0044565244,1.4925294157\
 H,2.9934871391,-0.3875563478,1.8766345583\H,-1.2858471064,-1.858503724
 4,-1.0328731473\\Version=ES64L-G16RevC.02\HF=-661.2963444\MP2=-663.331
 2436\RMSD=7.281e-09\RMSF=5.378e-03\Dipole=2.0306145,1.718023,0.4709617
 \PG=C01 [X(C9H13N3O2)]\\@
 The archive entry for this job was punched.


 THE MOST BEAUTIFUL EXPERIENCE WE CAN HAVE IS THE MYSTERIOUS.
 IT IS THE FUNDAMENTAL EMOTION WHICH STANDS AT AT THE CRADLE 
 OF TRUE ART AND TRUE SCIENCE.

                                    -- ALBERT EINSTEIN
 Job cpu time:       0 days  1 hours  1 minutes 29.9 seconds.
 Elapsed time:       0 days  0 hours 18 minutes 14.4 seconds.
 File lengths (MBytes):  RWF=     36 Int=      0 D2E=      0 Chk=      7 Scr=      1
 Normal termination of Gaussian 16 at Sat Jul  1 20:32:54 2023.
