 Entering Gaussian System, Link 0=g09
 Initial command:
 /home/ana/programs/g09/l1.exe /home/ana/programs/g09/scratch/Gau-709322.inp -scrdir=/home/ana/programs/g09/scratch/
 Entering Link 1 = /home/ana/programs/g09/l1.exe PID=    709324.
  
 Copyright (c) 1988,1990,1992,1993,1995,1998,2003,2009, Gaussian, Inc.
                  All Rights Reserved.
  
 This is part of the Gaussian(R) 09 program.  It is based on
 the Gaussian(R) 03 system (copyright 2003, Gaussian, Inc.),
 the Gaussian(R) 98 system (copyright 1998, Gaussian, Inc.),
 the Gaussian(R) 94 system (copyright 1995, Gaussian, Inc.),
 the Gaussian 92(TM) system (copyright 1992, Gaussian, Inc.),
 the Gaussian 90(TM) system (copyright 1990, Gaussian, Inc.),
 the Gaussian 88(TM) system (copyright 1988, Gaussian, Inc.),
 the Gaussian 86(TM) system (copyright 1986, Carnegie Mellon
 University), and the Gaussian 82(TM) system (copyright 1983,
 Carnegie Mellon University). Gaussian is a federally registered
 trademark of Gaussian, Inc.
  
 This software contains proprietary and confidential information,
 including trade secrets, belonging to Gaussian, Inc.
  
 This software is provided under written license and may be
 used, copied, transmitted, or stored only in accord with that
 written license.
  
 The following legend is applicable only to US Government
 contracts under FAR:
  
                    RESTRICTED RIGHTS LEGEND
  
 Use, reproduction and disclosure by the US Government is
 subject to restrictions as set forth in subparagraphs (a)
 and (c) of the Commercial Computer Software - Restricted
 Rights clause in FAR 52.227-19.
  
 Gaussian, Inc.
 340 Quinnipiac St., Bldg. 40, Wallingford CT 06492
  
  
 ---------------------------------------------------------------
 Warning -- This program may not be used in any manner that
 competes with the business of Gaussian, Inc. or will provide
 assistance to any competitor of Gaussian, Inc.  The licensee
 of this program is prohibited from giving any competitor of
 Gaussian, Inc. access to this program.  By using this program,
 the user acknowledges that Gaussian, Inc. is engaged in the
 business of creating and licensing software in the field of
 computational chemistry and represents and warrants to the
 licensee that it is not a competitor of Gaussian, Inc. and that
 it will not use this program in any manner prohibited above.
 ---------------------------------------------------------------
  

 Cite this work as:
 Gaussian 09, Revision A.01,
 M. J. Frisch, G. W. Trucks, H. B. Schlegel, G. E. Scuseria, 
 M. A. Robb, J. R. Cheeseman, G. Scalmani, V. Barone, B. Mennucci, 
 G. A. Petersson, H. Nakatsuji, M. Caricato, X. Li, H. P. Hratchian, 
 A. F. Izmaylov, J. Bloino, G. Zheng, J. L. Sonnenberg, M. Hada, 
 M. Ehara, K. Toyota, R. Fukuda, J. Hasegawa, M. Ishida, T. Nakajima, 
 Y. Honda, O. Kitao, H. Nakai, T. Vreven, J. A. Montgomery, Jr., 
 J. E. Peralta, F. Ogliaro, M. Bearpark, J. J. Heyd, E. Brothers, 
 K. N. Kudin, V. N. Staroverov, R. Kobayashi, J. Normand, 
 K. Raghavachari, A. Rendell, J. C. Burant, S. S. Iyengar, J. Tomasi, 
 M. Cossi, N. Rega, J. M. Millam, M. Klene, J. E. Knox, J. B. Cross, 
 V. Bakken, C. Adamo, J. Jaramillo, R. Gomperts, R. E. Stratmann, 
 O. Yazyev, A. J. Austin, R. Cammi, C. Pomelli, J. W. Ochterski, 
 R. L. Martin, K. Morokuma, V. G. Zakrzewski, G. A. Voth, 
 P. Salvador, J. J. Dannenberg, S. Dapprich, A. D. Daniels, 
 O. Farkas, J. B. Foresman, J. V. Ortiz, J. Cioslowski, 
 and D. J. Fox, Gaussian, Inc., Wallingford CT, 2009.
 
 ******************************************
 Gaussian 09:  EM64L-G09RevA.01  8-May-2009
                24-Sep-2021 
 ******************************************
 %NPROC=4
 Will use up to    4 processors via shared memory.
 %NoSave
 ------------------------------
 #HF/6-31G* Opt=Z-matrix NoSymm
 ------------------------------
 1/10=7,18=40,38=1/1,3;
 2/12=2,15=1,17=6,18=5,29=3,40=1/2;
 3/5=1,6=6,7=1,11=9,16=1,25=1,30=1,71=1/1,2,3;
 4//1;
 5/5=2,38=5/2;
 6/7=2,8=2,9=2,10=2,28=1/1;
 7/29=1,30=1/1,2,3,16;
 1/10=7,18=40/3(2);
 2/15=1,29=3/2;
 99//99;
 2/15=1,29=3/2;
 3/5=1,6=6,7=1,11=9,16=1,25=1,30=1,71=1/1,2,3;
 4/5=5,16=3/1;
 5/5=2,38=5/2;
 7/30=1/1,2,3,16;
 1/18=40/3(-5);
 2/15=1,29=3/2;
 6/7=2,8=2,9=2,10=2,19=2,28=1/1;
 99/9=1/99;
 -------------------------------
 water interaction with atom H15
 -------------------------------
 Symbolic Z-matrix:
 Charge =  0 Multiplicity = 1
 9                    -1   -1.9693    2.05368   0.00007 
 6                    -1   -1.22225   0.94423   0.00003 
 6                    -1    0.14003   1.0574   -0.00002 
 6                    -1    0.92795  -0.12364  -0.00008 
 6                    -1    2.41466  -0.01865  -0.00001 
 9                    -1    3.00708  -1.23461  -0.00056 
 9                    -1    2.85829   0.65448  -1.08602 
 9                    -1    2.85827   0.6535    1.08665 
 6                    -1    0.30654  -1.34149  -0.00009 
 7                    -1   -1.05417  -1.38997  -0.00006 
 6                    -1   -1.9305   -0.3121    0. 
 16                   -1   -3.57098  -0.50661   0.00003 
 1                    -1    0.59686   2.0431   -0.00002 
 1                    -1    0.83176  -2.28899  -0.00015 
 1                    -1   -1.52148  -2.29639  -0.00009 
 X                    15   RDUM     10   ADUM     9    DOH      0
 X                    16   RDUM     15   ADUM     10   DD1      0
 OH2                  15   RX       16   ADUM     17   DD2      0
 H1                   18   ROH      15   AHOA     16   DH1      0
 H2                   18   ROH      15   AHOA     16   DH2      0
       Variables:
  RX                    2.2101                   
       Constants:
  RDUM                  1.                       
  ROH                   0.9572                   
  ADUM                 90.                       
  AHOA                127.74                     
  DOH                 180.                       
  DD1                   0.                       
  DD2                 180.                       
  DH1                   0.                       
  DH2                -180.                       
 

 GradGradGradGradGradGradGradGradGradGradGradGradGradGradGradGradGradGrad
 Berny optimization.
 Initialization pass.
                       ----------------------------
                       !    Initial Parameters    !
                       ! (Angstroms and Degrees)  !
 ----------------------                            ----------------------
 !      Name          Value   Derivative information (Atomic Units)     !
 ------------------------------------------------------------------------
 !       RX          2.2101   estimate D2E/DX2                          !
 !      RDUM         1.0      Frozen                                    !
 !       ROH         0.9572   Frozen                                    !
 !      ADUM        90.0      Frozen                                    !
 !      AHOA       127.74     Frozen                                    !
 !       DOH       180.0      Frozen                                    !
 !       DD1         0.0      Frozen                                    !
 !       DD2       180.0      Frozen                                    !
 !       DH1         0.0      Frozen                                    !
 !       DH2      -180.0      Frozen                                    !
 ------------------------------------------------------------------------
 Trust Radius=3.00D-01 FncErr=1.00D-07 GrdErr=1.00D-07
 Number of steps in this run=  20 maximum allowed number of steps= 100.
 GradGradGradGradGradGradGradGradGradGradGradGradGradGradGradGradGradGrad

 ---------------------------------------------------------------------------------------------------
                            Z-MATRIX (ANGSTROMS AND DEGREES)
   CD    Cent   Atom    N1       Length/X        N2       Alpha/Y        N3        Beta/Z          J
 ---------------------------------------------------------------------------------------------------
      1      1  F       -1  -1.969300          2.053680          0.000070
      2      2  C       -1  -1.222250          0.944230          0.000030
      3      3  C       -1   0.140030          1.057400         -0.000020
      4      4  C       -1   0.927950         -0.123640         -0.000080
      5      5  C       -1   2.414660         -0.018650         -0.000010
      6      6  F       -1   3.007080         -1.234610         -0.000560
      7      7  F       -1   2.858290          0.654480         -1.086020
      8      8  F       -1   2.858270          0.653500          1.086650
      9      9  C       -1   0.306540         -1.341490         -0.000090
     10     10  N       -1  -1.054170         -1.389970         -0.000060
     11     11  C       -1  -1.930500         -0.312100          0.000000
     12     12  S       -1  -3.570980         -0.506610          0.000030
     13     13  H       -1   0.596860          2.043100         -0.000020
     14     14  H       -1   0.831760         -2.288990         -0.000150
     15     15  H       -1  -1.521480         -2.296390         -0.000090
     16         X       15   1.000000(    15)     10   90.000(    33)      9  180.000(    50)      0
     17         X       16   1.000000(    16)     15   90.000(    34)     10    0.000(    51)      0
     18     16  O       15   2.210100(    17)     16   90.000(    35)     17  180.000(    52)      0
     19     17  H       18   0.957200(    18)     15  127.740(    36)     16    0.000(    53)      0
     20     18  H       18   0.957200(    19)     15  127.740(    37)     16 -180.000(    54)      0
 ---------------------------------------------------------------------------------------------------
                         Z-Matrix orientation:                         
 ---------------------------------------------------------------------
 Center     Atomic      Atomic             Coordinates (Angstroms)
 Number     Number       Type             X           Y           Z
 ---------------------------------------------------------------------
      1          9           0       -1.969300    2.053680    0.000070
      2          6           0       -1.222250    0.944230    0.000030
      3          6           0        0.140030    1.057400   -0.000020
      4          6           0        0.927950   -0.123640   -0.000080
      5          6           0        2.414660   -0.018650   -0.000010
      6          9           0        3.007080   -1.234610   -0.000560
      7          9           0        2.858290    0.654480   -1.086020
      8          9           0        2.858270    0.653500    1.086650
      9          6           0        0.306540   -1.341490   -0.000090
     10          7           0       -1.054170   -1.389970   -0.000060
     11          6           0       -1.930500   -0.312100    0.000000
     12         16           0       -3.570980   -0.506610    0.000030
     13          1           0        0.596860    2.043100   -0.000020
     14          1           0        0.831760   -2.288990   -0.000150
     15          1           0       -1.521480   -2.296390   -0.000090
     16         -1           0       -2.410308   -1.838150   -0.000048
     17         -1           0       -1.952068   -0.949321   -0.000019
     18          8           0       -2.534237   -4.260789   -0.000155
     19          1           0       -3.475511   -4.434673   -0.000141
     20          1           0       -2.129913   -5.128403   -0.000204
 ---------------------------------------------------------------------
                    Distance matrix (angstroms):
                    1          2          3          4          5
     1  F    0.000000
     2  C    1.337521   0.000000
     3  C    2.332777   1.366973   0.000000
     4  C    3.624194   2.400772   1.419744   0.000000
     5  C    4.849088   3.762214   2.516312   1.490413   0.000000
     6  F    5.964663   4.757581   3.670597   2.357337   1.352598
     7  F    5.142274   4.232525   2.954772   2.347541   1.352527
     8  F    5.142625   4.232719   2.955134   2.347566   1.352555
     9  C    4.087374   2.749857   2.404662   1.367227   2.488790
    10  N    3.563171   2.340244   2.723184   2.352104   3.730054
    11  C    2.366098   1.442215   2.482463   2.864656   4.355058
    12  S    3.020011   2.760701   4.027123   4.515201   6.005497
    13  H    2.566182   2.125247   1.086415   2.191890   2.748674
    14  H    5.167661   3.830492   3.417136   2.167485   2.767673
    15  H    4.373060   3.254406   3.742796   3.274225   4.547669
    16  X    3.916737   3.025412   3.858553   3.752800   5.156636
    17  X    3.003051   2.029328   2.898931   2.996039   4.464802
    18  O    6.339691   5.367824   5.952717   5.394696   6.518231
    19  H    6.660885   5.831791   6.575333   6.162424   7.361751
    20  H    7.183879   6.140092   6.589143   5.864997   6.838328
                    6          7          8          9         10
     6  F    0.000000
     7  F    2.183809   0.000000
     8  F    2.183834   2.172670   0.000000
     9  C    2.702654   3.416807   3.416477   0.000000
    10  N    4.064221   4.546034   4.545756   1.361573   0.000000
    11  C    5.023019   5.004620   5.004549   2.462517   1.389157
    12  S    6.618222   6.622926   6.622828   3.966382   2.667332
    13  H    4.068482   2.867355   2.868068   3.397019   3.809445
    14  H    2.417382   3.734964   3.734451   1.083334   2.089251
    15  H    4.651369   5.391592   5.391203   2.062399   1.019792
    16  X    5.450904   5.928800   5.928503   2.761872   1.428277
    17  X    4.967347   5.185665   5.185483   2.292402   1.000196
    18  O    6.313791   7.376878   7.376349   4.073368   3.229892
    19  H    7.229411   8.197295   8.196792   4.885866   3.890130
    20  H    6.445954   7.713813   7.713211   4.503001   3.890130
                   11         12         13         14         15
    11  C    0.000000
    12  S    1.651971   0.000000
    13  H    3.454637   4.885889   0.000000
    14  H    3.396789   4.749842   4.338454   0.000000
    15  H    2.026007   2.720986   4.828927   2.353252   0.000000
    16  X    1.599701   1.766396   4.909904   3.273265   1.000000
    17  X    0.637586   1.678353   3.930855   3.089403   1.414214
    18  O    3.994577   3.894701   7.038664   3.901017   2.210100
    19  H    4.402575   3.929223   7.651519   4.812124   2.896634
    20  H    4.820430   4.841244   7.672402   4.102899   2.896634
                   16         17         18         19         20
    16  X    0.000000
    17  X    1.000000   0.000000
    18  O    2.425807   3.362253   0.000000
    19  H    2.806526   3.803755   0.957200   0.000000
    20  H    3.302180   4.182865   0.957200   1.513901   0.000000
 Symmetry turned off by external request.
 Stoichiometry    C6H5F4NOS
 Framework group  C1[X(C6H5F4NOS)]
 Deg. of freedom    48
 Full point group                 C1      NOp   1
 Rotational constants (GHZ):      0.9424158      0.3808759      0.2849673
 Standard basis: 6-31G(d) (6D, 7F)
 Integral buffers will be    131072 words long.
 Raffenetti 1 integral format.
 Two-electron integral symmetry is turned off.
   209 basis functions,   408 primitive gaussians,   209 cartesian basis functions
    54 alpha electrons       54 beta electrons
       nuclear repulsion energy       914.0714609377 Hartrees.
 NAtoms=   18 NActive=   18 NUniq=   18 SFac= 7.50D-01 NAtFMM=   80 NAOKFM=F Big=F
 One-electron integrals computed using PRISM.
 NBasis=   209 RedAO= T  NBF=   209
 NBsUse=   209 1.00D-06 NBFU=   209
 Harris functional with IExCor=  205 diagonalized for initial guess.
 ExpMin= 1.17D-01 ExpMax= 2.19D+04 ExpMxC= 3.30D+03 IAcc=1 IRadAn=         1 AccDes= 0.00D+00
 HarFok:  IExCor=  205 AccDes= 0.00D+00 IRadAn=         1 IDoV= 1
 ScaDFX=  1.000000  1.000000  1.000000  1.000000
 FoFCou: FMM=F IPFlag=           0 FMFlag=      100000 FMFlg1=           0
         NFxFlg=           0 DoJE=T BraDBF=F KetDBF=T FulRan=T
         Omega=  0.000000  0.000000  1.000000  0.000000  0.000000 ICntrl=     500 IOpCl=  0
         NMat0=    1 NMatS0=    1 NMatT0=    0 NMatD0=    1 NMtDS0=    0 NMtDT0=    0
         I1Cent=           4 NGrid=           0.
 Symmetry not used in FoFCou.
 Requested convergence on RMS density matrix=1.00D-08 within 128 cycles.
 Requested convergence on MAX density matrix=1.00D-06.
 Requested convergence on             energy=1.00D-06.
 No special actions if energy rises.
 Integral accuracy reduced to 1.0D-05 until final iterations.
 Initial convergence to 1.0D-05 achieved.  Increase integral accuracy.
 SCF Done:  E(RHF) =  -1154.68407642     A.U. after   15 cycles
             Convg  =    0.6553D-08             -V/T =  2.0019

 **********************************************************************

            Population analysis using the SCF density.

 **********************************************************************

 Alpha  occ. eigenvalues --  -91.89006 -26.35987 -26.35030 -26.35028 -26.32349
 Alpha  occ. eigenvalues --  -20.59260 -15.66676 -11.53220 -11.36412 -11.35922
 Alpha  occ. eigenvalues --  -11.34766 -11.30061 -11.29042  -8.90112  -6.58448
 Alpha  occ. eigenvalues --   -6.58169  -6.58044  -1.73226  -1.64242  -1.63626
 Alpha  occ. eigenvalues --   -1.63544  -1.37291  -1.33776  -1.15825  -1.10685
 Alpha  occ. eigenvalues --   -1.01814  -0.95883  -0.91358  -0.86863  -0.83677
 Alpha  occ. eigenvalues --   -0.82783  -0.82470  -0.75692  -0.74597  -0.73710
 Alpha  occ. eigenvalues --   -0.72561  -0.71408  -0.70641  -0.70233  -0.68987
 Alpha  occ. eigenvalues --   -0.66659  -0.66635  -0.65243  -0.62889  -0.60884
 Alpha  occ. eigenvalues --   -0.60843  -0.59470  -0.57979  -0.52990  -0.51233
 Alpha  occ. eigenvalues --   -0.45218  -0.41908  -0.32700  -0.29689
 Alpha virt. eigenvalues --    0.05860   0.10003   0.17690   0.22142   0.26226
 Alpha virt. eigenvalues --    0.26840   0.27811   0.28423   0.30403   0.31614
 Alpha virt. eigenvalues --    0.35112   0.38976   0.40777   0.41688   0.43904
 Alpha virt. eigenvalues --    0.44111   0.48048   0.50921   0.55424   0.56799
 Alpha virt. eigenvalues --    0.57873   0.60952   0.62720   0.65587   0.67932
 Alpha virt. eigenvalues --    0.68950   0.73185   0.74250   0.74776   0.76665
 Alpha virt. eigenvalues --    0.78412   0.79249   0.84473   0.85733   0.88769
 Alpha virt. eigenvalues --    0.90347   0.91132   0.93440   0.96909   0.99598
 Alpha virt. eigenvalues --    1.01327   1.03191   1.04713   1.05946   1.09710
 Alpha virt. eigenvalues --    1.10573   1.11429   1.13387   1.13407   1.14877
 Alpha virt. eigenvalues --    1.17135   1.17253   1.19245   1.25872   1.28840
 Alpha virt. eigenvalues --    1.30778   1.32530   1.33320   1.34394   1.35886
 Alpha virt. eigenvalues --    1.37824   1.40124   1.41273   1.43536   1.43938
 Alpha virt. eigenvalues --    1.45499   1.48480   1.53157   1.54219   1.61534
 Alpha virt. eigenvalues --    1.61713   1.62572   1.64818   1.65322   1.65710
 Alpha virt. eigenvalues --    1.66518   1.67898   1.68897   1.70805   1.71751
 Alpha virt. eigenvalues --    1.73947   1.77679   1.77977   1.82330   1.88008
 Alpha virt. eigenvalues --    1.90867   1.93500   1.95024   2.00184   2.01139
 Alpha virt. eigenvalues --    2.03175   2.05607   2.07110   2.10280   2.11062
 Alpha virt. eigenvalues --    2.11854   2.13235   2.14598   2.19124   2.21486
 Alpha virt. eigenvalues --    2.23680   2.23884   2.25697   2.29390   2.31240
 Alpha virt. eigenvalues --    2.31761   2.33723   2.35690   2.35864   2.36992
 Alpha virt. eigenvalues --    2.39620   2.41309   2.44388   2.46342   2.47135
 Alpha virt. eigenvalues --    2.48364   2.53610   2.59573   2.62014   2.63315
 Alpha virt. eigenvalues --    2.67369   2.69501   2.76319   2.84258   2.85666
 Alpha virt. eigenvalues --    2.86651   2.92019   2.92826   2.94346   2.94652
 Alpha virt. eigenvalues --    3.01697   3.08359   3.10965   3.18451   3.23566
 Alpha virt. eigenvalues --    3.30827   3.38334   3.39371   3.44009   3.45438
 Alpha virt. eigenvalues --    3.50596   3.72702   4.03542   4.39997   4.44924
 Alpha virt. eigenvalues --    4.47028   4.50147   4.62391   4.65462   4.69559
 Alpha virt. eigenvalues --    4.83276   5.02747   5.16605   5.59279   6.02758
          Condensed to atoms (all electrons):
              1          2          3          4          5          6
     1  F    9.164952   0.265781  -0.033855   0.002214  -0.000015   0.000000
     2  C    0.265781   4.575427   0.568927  -0.027121   0.000839  -0.000019
     3  C   -0.033855   0.568927   5.065327   0.357545  -0.012589   0.002184
     4  C    0.002214  -0.027121   0.357545   5.212481   0.418264  -0.045385
     5  C   -0.000015   0.000839  -0.012589   0.418264   3.553265   0.288333
     6  F    0.000000  -0.000019   0.002184  -0.045385   0.288333   9.190997
     7  F    0.000000   0.000294   0.005038  -0.055703   0.283778  -0.030713
     8  F    0.000000   0.000293   0.005032  -0.055710   0.283785  -0.030714
     9  C    0.000130  -0.022151  -0.054518   0.586876  -0.021100   0.005327
    10  N    0.001388  -0.053607  -0.021641  -0.036388   0.001215   0.000237
    11  C   -0.040680   0.389726  -0.077806  -0.001368   0.000072   0.000002
    12  S    0.003304  -0.085208   0.001936  -0.000038   0.000006   0.000000
    13  H   -0.000248  -0.017819   0.369203  -0.030343  -0.000273   0.000035
    14  H    0.000001  -0.000099   0.001817  -0.024998  -0.000110   0.004964
    15  H   -0.000016   0.002282  -0.000338   0.002052  -0.000018   0.000001
    16  O    0.000000  -0.000005   0.000000   0.000001   0.000000   0.000000
    17  H    0.000000   0.000002   0.000000   0.000000   0.000000   0.000000
    18  H    0.000000   0.000000   0.000000   0.000000   0.000000   0.000000
              7          8          9         10         11         12
     1  F    0.000000   0.000000   0.000130   0.001388  -0.040680   0.003304
     2  C    0.000294   0.000293  -0.022151  -0.053607   0.389726  -0.085208
     3  C    0.005038   0.005032  -0.054518  -0.021641  -0.077806   0.001936
     4  C   -0.055703  -0.055710   0.586876  -0.036388  -0.001368  -0.000038
     5  C    0.283778   0.283785  -0.021100   0.001215   0.000072   0.000006
     6  F   -0.030713  -0.030714   0.005327   0.000237   0.000002   0.000000
     7  F    9.204629  -0.033975   0.000525  -0.000006  -0.000002   0.000000
     8  F   -0.033975   9.204648   0.000521  -0.000006  -0.000002   0.000000
     9  C    0.000525   0.000521   4.725119   0.276156  -0.040226   0.003443
    10  N   -0.000006  -0.000006   0.276156   7.268811   0.223866  -0.097159
    11  C   -0.000002  -0.000002  -0.040226   0.223866   4.928177   0.443291
    12  S    0.000000   0.000000   0.003443  -0.097159   0.443291  15.980423
    13  H    0.000905   0.000902   0.002393  -0.000272   0.002627  -0.000062
    14  H    0.000083   0.000083   0.381851  -0.031622   0.001012  -0.000118
    15  H    0.000000   0.000000  -0.016463   0.284275  -0.016005   0.006445
    16  O    0.000000   0.000000   0.000171  -0.005042  -0.000305  -0.000444
    17  H    0.000000   0.000000  -0.000007   0.000192   0.000037   0.000916
    18  H    0.000000   0.000000  -0.000008   0.000240   0.000013   0.000087
             13         14         15         16         17         18
     1  F   -0.000248   0.000001  -0.000016   0.000000   0.000000   0.000000
     2  C   -0.017819  -0.000099   0.002282  -0.000005   0.000002   0.000000
     3  C    0.369203   0.001817  -0.000338   0.000000   0.000000   0.000000
     4  C   -0.030343  -0.024998   0.002052   0.000001   0.000000   0.000000
     5  C   -0.000273  -0.000110  -0.000018   0.000000   0.000000   0.000000
     6  F    0.000035   0.004964   0.000001   0.000000   0.000000   0.000000
     7  F    0.000905   0.000083   0.000000   0.000000   0.000000   0.000000
     8  F    0.000902   0.000083   0.000000   0.000000   0.000000   0.000000
     9  C    0.002393   0.381851  -0.016463   0.000171  -0.000007  -0.000008
    10  N   -0.000272  -0.031622   0.284275  -0.005042   0.000192   0.000240
    11  C    0.002627   0.001012  -0.016005  -0.000305   0.000037   0.000013
    12  S   -0.000062  -0.000118   0.006445  -0.000444   0.000916   0.000087
    13  H    0.397553  -0.000064   0.000007   0.000000   0.000000   0.000000
    14  H   -0.000064   0.387064  -0.001482   0.000089  -0.000003  -0.000007
    15  H    0.000007  -0.001482   0.217080   0.021222  -0.000642  -0.000714
    16  O    0.000000   0.000089   0.021222   8.335767   0.267244   0.263752
    17  H    0.000000  -0.000003  -0.000642   0.267244   0.290452  -0.016869
    18  H    0.000000  -0.000007  -0.000714   0.263752  -0.016869   0.311564
 Mulliken atomic charges:
              1
     1  F   -0.362956
     2  C    0.402458
     3  C   -0.176263
     4  C   -0.302378
     5  C    1.204547
     6  F   -0.385249
     7  F   -0.374853
     8  F   -0.374857
     9  C    0.171959
    10  N   -0.810640
    11  C    0.187572
    12  S   -0.256823
    13  H    0.275458
    14  H    0.281541
    15  H    0.502313
    16  O   -0.882450
    17  H    0.458679
    18  H    0.441941
 Sum of Mulliken atomic charges =   0.00000
 Mulliken charges with hydrogens summed into heavy atoms:
              1
     1  F   -0.362956
     2  C    0.402458
     3  C    0.099195
     4  C   -0.302378
     5  C    1.204547
     6  F   -0.385249
     7  F   -0.374853
     8  F   -0.374857
     9  C    0.453501
    10  N   -0.308327
    11  C    0.187572
    12  S   -0.256823
    16  O    0.018170
 Sum of Mulliken charges with hydrogens summed into heavy atoms =   0.00000
 Electronic spatial extent (au):  <R**2>=           3551.8088
 Charge=              0.0000 electrons
 Dipole moment (field-independent basis, Debye):
    X=              2.2965    Y=             -5.3089    Z=             -0.0005  Tot=              5.7843
 Quadrupole moment (field-independent basis, Debye-Ang):
   XX=            -98.5351   YY=            -50.7159   ZZ=            -82.6123
   XY=             12.7687   XZ=              0.0001   YZ=              0.0011
 Traceless Quadrupole moment (field-independent basis, Debye-Ang):
   XX=            -21.2473   YY=             26.5719   ZZ=             -5.3245
   XY=             12.7687   XZ=              0.0001   YZ=              0.0011
 Octapole moment (field-independent basis, Debye-Ang**2):
  XXX=            116.6515  YYY=            -62.5108  ZZZ=              0.0022  XYY=            -28.7999
  XXY=            -16.0201  XXZ=             -0.0021  XZZ=             35.3910  YZZ=             35.3702
  YYZ=             -0.0039  XYZ=             -0.0025
 Hexadecapole moment (field-independent basis, Debye-Ang**3):
 XXXX=          -2787.7186 YYYY=           -343.6096 ZZZZ=           -143.6980 XXXY=            -49.4374
 XXXZ=              0.0029 YYYX=            183.6936 YYYZ=              0.0166 ZZZX=             -0.0078
 ZZZY=             -0.0213 XXYY=           -422.1670 XXZZ=           -493.9590 YYZZ=           -246.7690
 XXYZ=              0.0002 YYXZ=              0.0192 ZZXY=            -95.8290
 N-N= 9.140714609377D+02 E-N=-4.566916349194D+03  KE= 1.152540578158D+03
 Calling FoFJK, ICntrl=      2127 FMM=F ISym2X=0 I1Cent= 0 IOpClX= 0 NMat=1 NMatS=1 NMatT=0.
 -------------------------------------------------------------------
 Center     Atomic                   Forces (Hartrees/Bohr)
 Number     Number              X              Y              Z
 -------------------------------------------------------------------
      1        9           0.000000000    0.000000000    0.000000000
      2        6           0.000000000    0.000000000    0.000000000
      3        6           0.000000000    0.000000000    0.000000000
      4        6           0.000000000    0.000000000    0.000000000
      5        6           0.000000000    0.000000000    0.000000000
      6        9           0.000000000    0.000000000    0.000000000
      7        9           0.000000000    0.000000000    0.000000000
      8        9           0.000000000    0.000000000    0.000000000
      9        6           0.000000000    0.000000000    0.000000000
     10        7           0.000000000    0.000000000    0.000000000
     11        6           0.000000000    0.000000000    0.000000000
     12       16           0.000000000    0.000000000    0.000000000
     13        1           0.000000000    0.000000000    0.000000000
     14        1           0.000000000    0.000000000    0.000000000
     15        1           0.000000000    0.000000000    0.000000000
     16        8          -0.001674403   -0.014028117   -0.000000593
     17        1           0.008563870    0.007219665    0.000000122
     18        1          -0.002948820    0.009333834    0.000000493
 -------------------------------------------------------------------
 Cartesian Forces:  Max     0.014028117 RMS     0.002791757
 -----------------------------------------------------------------------------------------------
                       Internal Coordinate Forces (Hartree/Bohr or radian)
  Cent   Atom   N1       Length/X         N2         Alpha/Y        N3         Beta/Z          J
 -----------------------------------------------------------------------------------------------
      1  F 
      2  C 
      3  C 
      4  C 
      5  C 
      6  F 
      7  F 
      8  F 
      9  C 
     10  N 
     11  C 
     12  S 
     13  H 
     14  H 
     15  H 
         X       15   0.000000(     1)     10   0.002064(     6)      9   0.000000(    11)     0
         X       16   0.000000(     2)     15   0.000000(     7)     10   0.000000(    12)     0
     16  O       15  -0.004050(     3)     16   0.002064(     8)     17   0.000000(    13)     0
     17  H       18  -0.009733(     4)     15  -0.010028(     9)     16   0.000000(    14)     0
     18  H       18  -0.009706(     5)     15  -0.002297(    10)     16   0.000000(    15)     0
 -----------------------------------------------------------------------------------------------
 Internal  Forces:  Max     0.010027958 RMS     0.004616603

 GradGradGradGradGradGradGradGradGradGradGradGradGradGradGradGradGradGrad
 Berny optimization.
 Search for a local minimum.
 Step number   1 out of a maximum of   20
 All quantities printed in internal units (Hartrees-Bohrs-Radians)
 Second derivative matrix not updated -- first step.
 The second derivative matrix:
                          RX       RDUM       ROH      ADUM      AHOA
           RX           0.03100
           RDUM         0.00000   0.00000
           ROH          0.00000   0.00000   1.12160
           ADUM         0.00000   0.00000   0.00000   1.00000
           AHOA         0.00000   0.00000   0.00000   0.00000   0.96000
           DOH          0.00000   0.00000   0.00000   0.00000   0.00000
           DD1          0.00000   0.00000   0.00000   0.00000   0.00000
           DD2          0.00000   0.00000   0.00000   0.00000   0.00000
           DH1          0.00000   0.00000   0.00000   0.00000   0.00000
           DH2          0.00000   0.00000   0.00000   0.00000   0.00000
                          DOH       DD1       DD2       DH1       DH2
           DOH          0.00000
           DD1          0.00000   0.31871
           DD2          0.00000  -0.31871   0.31871
           DH1          0.00000  -0.00798   0.00798   0.02814
           DH2          0.00000   0.00798  -0.00798  -0.02814   0.02814
     Eigenvalues ---    0.031001000.000001000.000001000.000001000.00000
     Eigenvalues --- 1000.000001000.000001000.000001000.000001000.00000
 RFO step:  Lambda=-5.20515769D-04 EMin= 3.09977835D-02
 Linear search not attempted -- first point.
 Variable       Old X    -DE/DX   Delta X   Delta X   Delta X     New X
                                 (Linear)    (Quad)   (Total)
    RX        4.17648  -0.00405   0.00000  -0.12851  -0.12851   4.04797
   RDUM       1.88973   0.00000   0.00000   0.00000   0.00000   1.88973
   ROH        1.80885  -0.01944   0.00000   0.00000   0.00000   1.80885
   ADUM       1.57080   0.00413   0.00000   0.00000   0.00000   1.57080
   AHOA       2.22948  -0.01232   0.00000   0.00000   0.00000   2.22948
   DOH        3.14159   0.00000   0.00000   0.00000   0.00000   3.14159
   DD1        0.00000   0.00000   0.00000   0.00000   0.00000   0.00000
   DD2        3.14159   0.00000   0.00000   0.00000   0.00000   3.14159
   DH1        0.00000   0.00000   0.00000   0.00000   0.00000   0.00000
   DH2       -3.14159   0.00000   0.00000   0.00000   0.00000  -3.14159
         Item               Value     Threshold  Converged?
 Maximum Force            0.004050     0.000450     NO 
 RMS     Force            0.004050     0.000300     NO 
 Maximum Displacement     0.128509     0.001800     NO 
 RMS     Displacement     0.040638     0.001200     NO 
 Predicted change in Energy=-2.645547D-04
 GradGradGradGradGradGradGradGradGradGradGradGradGradGradGradGradGradGrad

 ---------------------------------------------------------------------------------------------------
                            Z-MATRIX (ANGSTROMS AND DEGREES)
   CD    Cent   Atom    N1       Length/X        N2       Alpha/Y        N3        Beta/Z          J
 ---------------------------------------------------------------------------------------------------
      1      1  F       -1  -1.969300          2.053680          0.000070
      2      2  C       -1  -1.222250          0.944230          0.000030
      3      3  C       -1   0.140030          1.057400         -0.000020
      4      4  C       -1   0.927950         -0.123640         -0.000080
      5      5  C       -1   2.414660         -0.018650         -0.000010
      6      6  F       -1   3.007080         -1.234610         -0.000560
      7      7  F       -1   2.858290          0.654480         -1.086020
      8      8  F       -1   2.858270          0.653500          1.086650
      9      9  C       -1   0.306540         -1.341490         -0.000090
     10     10  N       -1  -1.054170         -1.389970         -0.000060
     11     11  C       -1  -1.930500         -0.312100          0.000000
     12     12  S       -1  -3.570980         -0.506610          0.000030
     13     13  H       -1   0.596860          2.043100         -0.000020
     14     14  H       -1   0.831760         -2.288990         -0.000150
     15     15  H       -1  -1.521480         -2.296390         -0.000090
     16         X       15   1.000000(    15)     10   90.000(    33)      9  180.000(    50)      0
     17         X       16   1.000000(    16)     15   90.000(    34)     10    0.000(    51)      0
     18     16  O       15   2.142096(    17)     16   90.000(    35)     17  180.000(    52)      0
     19     17  H       18   0.957200(    18)     15  127.740(    36)     16    0.000(    53)      0
     20     18  H       18   0.957200(    19)     15  127.740(    37)     16 -180.000(    54)      0
 ---------------------------------------------------------------------------------------------------
                         Z-Matrix orientation:                         
 ---------------------------------------------------------------------
 Center     Atomic      Atomic             Coordinates (Angstroms)
 Number     Number       Type             X           Y           Z
 ---------------------------------------------------------------------
      1          9           0       -1.969300    2.053680    0.000070
      2          6           0       -1.222250    0.944230    0.000030
      3          6           0        0.140030    1.057400   -0.000020
      4          6           0        0.927950   -0.123640   -0.000080
      5          6           0        2.414660   -0.018650   -0.000010
      6          9           0        3.007080   -1.234610   -0.000560
      7          9           0        2.858290    0.654480   -1.086020
      8          9           0        2.858270    0.653500    1.086650
      9          6           0        0.306540   -1.341490   -0.000090
     10          7           0       -1.054170   -1.389970   -0.000060
     11          6           0       -1.930500   -0.312100    0.000000
     12         16           0       -3.570980   -0.506610    0.000030
     13          1           0        0.596860    2.043100   -0.000020
     14          1           0        0.831760   -2.288990   -0.000150
     15          1           0       -1.521480   -2.296390   -0.000090
     16         -1           0       -2.410308   -1.838150   -0.000048
     17         -1           0       -1.952068   -0.949321   -0.000019
     18          8           0       -2.503075   -4.200345   -0.000153
     19          1           0       -3.444349   -4.374229   -0.000139
     20          1           0       -2.098751   -5.067959   -0.000202
 ---------------------------------------------------------------------
                    Distance matrix (angstroms):
                    1          2          3          4          5
     1  F    0.000000
     2  C    1.337521   0.000000
     3  C    2.332777   1.366973   0.000000
     4  C    3.624194   2.400772   1.419744   0.000000
     5  C    4.849088   3.762214   2.516312   1.490413   0.000000
     6  F    5.964663   4.757581   3.670597   2.357337   1.352598
     7  F    5.142274   4.232525   2.954772   2.347541   1.352527
     8  F    5.142625   4.232719   2.955134   2.347566   1.352555
     9  C    4.087374   2.749857   2.404662   1.367227   2.488790
    10  N    3.563171   2.340244   2.723184   2.352104   3.730054
    11  C    2.366098   1.442215   2.482463   2.864656   4.355058
    12  S    3.020011   2.760701   4.027123   4.515201   6.005497
    13  H    2.566182   2.125247   1.086415   2.191890   2.748674
    14  H    5.167661   3.830492   3.417136   2.167485   2.767673
    15  H    4.373060   3.254406   3.742796   3.274225   4.547669
    16  X    3.916737   3.025412   3.858553   3.752800   5.156636
    17  X    3.003051   2.029328   2.898931   2.996039   4.464802
    18  O    6.276763   5.301619   5.884717   5.328364   6.455284
    19  H    6.594981   5.764003   6.507716   6.097910   7.300620
    20  H    7.122816   6.075745   6.521669   5.797173   6.772474
                    6          7          8          9         10
     6  F    0.000000
     7  F    2.183809   0.000000
     8  F    2.183834   2.172670   0.000000
     9  C    2.702654   3.416807   3.416477   0.000000
    10  N    4.064221   4.546034   4.545756   1.361573   0.000000
    11  C    5.023019   5.004620   5.004549   2.462517   1.389157
    12  S    6.618222   6.622926   6.622828   3.966382   2.667332
    13  H    4.068482   2.867355   2.868068   3.397019   3.809445
    14  H    2.417382   3.734964   3.734451   1.083334   2.089251
    15  H    4.651369   5.391592   5.391203   2.062399   1.019792
    16  X    5.450904   5.928800   5.928503   2.761872   1.428277
    17  X    4.967347   5.185665   5.185483   2.292402   1.000196
    18  O    6.257587   7.313868   7.313342   4.008365   3.161888
    19  H    7.174827   8.135742   8.135242   4.823554   3.823448
    20  H    6.384675   7.648370   7.647771   4.435313   3.823448
                   11         12         13         14         15
    11  C    0.000000
    12  S    1.651971   0.000000
    13  H    3.454637   4.885889   0.000000
    14  H    3.396789   4.749842   4.338454   0.000000
    15  H    2.026007   2.720986   4.828927   2.353252   0.000000
    16  X    1.599701   1.766396   4.909904   3.273265   1.000000
    17  X    0.637586   1.678353   3.930855   3.089403   1.414214
    18  O    3.930177   3.845010   6.970668   3.843749   2.142096
    19  H    4.335046   3.869691   7.583764   4.757450   2.831049
    20  H    4.758835   4.793054   7.604833   4.038634   2.831049
                   16         17         18         19         20
    16  X    0.000000
    17  X    1.000000   0.000000
    18  O    2.364017   3.297388   0.000000
    19  H    2.738784   3.735893   0.957200   0.000000
    20  H    3.244802   4.121249   0.957200   1.513901   0.000000
 Symmetry turned off by external request.
 Stoichiometry    C6H5F4NOS
 Framework group  C1[X(C6H5F4NOS)]
 Deg. of freedom    48
 Full point group                 C1      NOp   1
 Rotational constants (GHZ):      0.9533465      0.3823489      0.2867882
 Standard basis: 6-31G(d) (6D, 7F)
 Integral buffers will be    131072 words long.
 Raffenetti 1 integral format.
 Two-electron integral symmetry is turned off.
   209 basis functions,   408 primitive gaussians,   209 cartesian basis functions
    54 alpha electrons       54 beta electrons
       nuclear repulsion energy       915.4121320892 Hartrees.
 NAtoms=   18 NActive=   18 NUniq=   18 SFac= 7.50D-01 NAtFMM=   80 NAOKFM=F Big=F
 One-electron integrals computed using PRISM.
 NBasis=   209 RedAO= T  NBF=   209
 NBsUse=   209 1.00D-06 NBFU=   209
 Initial guess read from the read-write file.
 B after Tr=     0.000000    0.000000    0.000000
         Rot=    1.000000    0.000000    0.000000    0.000000 Ang=   0.00 deg.
 Harris functional with IExCor=  205 diagonalized for initial guess.
 ExpMin= 1.17D-01 ExpMax= 2.19D+04 ExpMxC= 3.30D+03 IAcc=1 IRadAn=         1 AccDes= 0.00D+00
 HarFok:  IExCor=  205 AccDes= 0.00D+00 IRadAn=         1 IDoV= 1
 ScaDFX=  1.000000  1.000000  1.000000  1.000000
 FoFCou: FMM=F IPFlag=           0 FMFlag=      100000 FMFlg1=           0
         NFxFlg=           0 DoJE=T BraDBF=F KetDBF=T FulRan=T
         Omega=  0.000000  0.000000  1.000000  0.000000  0.000000 ICntrl=     500 IOpCl=  0
         NMat0=    1 NMatS0=    1 NMatT0=    0 NMatD0=    1 NMtDS0=    0 NMtDT0=    0
         I1Cent=           4 NGrid=           0.
 Symmetry not used in FoFCou.
 Requested convergence on RMS density matrix=1.00D-08 within 128 cycles.
 Requested convergence on MAX density matrix=1.00D-06.
 Requested convergence on             energy=1.00D-06.
 No special actions if energy rises.
 Integral accuracy reduced to 1.0D-05 until final iterations.
 Initial convergence to 1.0D-05 achieved.  Increase integral accuracy.
 SCF Done:  E(RHF) =  -1154.68457680     A.U. after   10 cycles
             Convg  =    0.4332D-08             -V/T =  2.0019
 Calling FoFJK, ICntrl=      2127 FMM=F ISym2X=0 I1Cent= 0 IOpClX= 0 NMat=1 NMatS=1 NMatT=0.
 -------------------------------------------------------------------
 Center     Atomic                   Forces (Hartrees/Bohr)
 Number     Number              X              Y              Z
 -------------------------------------------------------------------
      1        9           0.000000000    0.000000000    0.000000000
      2        6           0.000000000    0.000000000    0.000000000
      3        6           0.000000000    0.000000000    0.000000000
      4        6           0.000000000    0.000000000    0.000000000
      5        6           0.000000000    0.000000000    0.000000000
      6        9           0.000000000    0.000000000    0.000000000
      7        9           0.000000000    0.000000000    0.000000000
      8        9           0.000000000    0.000000000    0.000000000
      9        6           0.000000000    0.000000000    0.000000000
     10        7           0.000000000    0.000000000    0.000000000
     11        6           0.000000000    0.000000000    0.000000000
     12       16           0.000000000    0.000000000    0.000000000
     13        1           0.000000000    0.000000000    0.000000000
     14        1           0.000000000    0.000000000    0.000000000
     15        1           0.000000000    0.000000000    0.000000000
     16        8          -0.001684043   -0.014628119   -0.000000619
     17        1           0.008421058    0.007483503    0.000000137
     18        1          -0.002841924    0.009298931    0.000000488
 -------------------------------------------------------------------
 Cartesian Forces:  Max     0.014628119 RMS     0.002848916
 -----------------------------------------------------------------------------------------------
                       Internal Coordinate Forces (Hartree/Bohr or radian)
  Cent   Atom   N1       Length/X         N2         Alpha/Y        N3         Beta/Z          J
 -----------------------------------------------------------------------------------------------
      1  F 
      2  C 
      3  C 
      4  C 
      5  C 
      6  F 
      7  F 
      8  F 
      9  C 
     10  N 
     11  C 
     12  S 
     13  H 
     14  H 
     15  H 
         X       15   0.000000(     1)     10   0.001920(     6)      9   0.000000(    11)     0
         X       16   0.000000(     2)     15   0.000000(     7)     10   0.000000(    12)     0
     16  O       15  -0.003700(     3)     16   0.001920(     8)     17   0.000000(    13)     0
     17  H       18  -0.009640(     4)     15  -0.010544(     9)     16   0.000000(    14)     0
     18  H       18  -0.009629(     5)     15  -0.002445(    10)     16   0.000000(    15)     0
 -----------------------------------------------------------------------------------------------
 Internal  Forces:  Max     0.010544186 RMS     0.004646669

 GradGradGradGradGradGradGradGradGradGradGradGradGradGradGradGradGradGrad
 Berny optimization.
 Search for a local minimum.
 Step number   2 out of a maximum of   20
 All quantities printed in internal units (Hartrees-Bohrs-Radians)
 Update second derivatives using D2CorN and points    1    2
 DE= -5.00D-04 DEPred=-2.65D-04 R= 1.89D+00
 SS=  1.41D+00  RLast= 1.29D-01 DXNew= 5.0454D-01 3.8553D-01
 Trust test= 1.89D+00 RLast= 1.29D-01 DXMaxT set to 3.86D-01
 The second derivative matrix:
                          RX       RDUM       ROH      ADUM      AHOA
           RX           0.00273
           RDUM         0.00000   0.00000
           ROH          0.00066   0.00000   1.12160
           ADUM        -0.00113   0.00000   0.00000   1.00000
           AHOA        -0.00259   0.00000   0.00000   0.00000   0.96000
           DOH          0.00000   0.00000   0.00000   0.00000   0.00000
           DD1          0.00000   0.00000   0.00000   0.00000   0.00000
           DD2          0.00000   0.00000   0.00000   0.00000   0.00000
           DH1          0.00000   0.00000   0.00000   0.00000   0.00000
           DH2          0.00000   0.00000   0.00000   0.00000   0.00000
                          DOH       DD1       DD2       DH1       DH2
           DOH          0.00000
           DD1          0.00000   0.31871
           DD2          0.00000  -0.31871   0.31871
           DH1          0.00000  -0.00798   0.00798   0.02814
           DH2          0.00000   0.00798  -0.00798  -0.02814   0.02814
     Eigenvalues ---    0.002731000.000001000.000001000.000001000.00000
     Eigenvalues --- 1000.000001000.000001000.000001000.000001000.00000
 RFO step:  Lambda= 0.00000000D+00 EMin= 2.72891044D-03
 Quartic linear search produced a step of  2.00000.
 Variable       Old X    -DE/DX   Delta X   Delta X   Delta X     New X
                                 (Linear)    (Quad)   (Total)
    RX        4.04797  -0.00370  -0.25702   0.00000  -0.25702   3.79096
   RDUM       1.88973   0.00000   0.00000   0.00000   0.00000   1.88973
   ROH        1.80885  -0.01927   0.00000   0.00000   0.00000   1.80885
   ADUM       1.57080   0.00384   0.00000   0.00000   0.00000   1.57080
   AHOA       2.22948  -0.01299   0.00000   0.00000   0.00000   2.22948
   DOH        3.14159   0.00000   0.00000   0.00000   0.00000   3.14159
   DD1        0.00000   0.00000   0.00000   0.00000   0.00000   0.00000
   DD2        3.14159   0.00000   0.00000   0.00000   0.00000   3.14159
   DH1        0.00000   0.00000   0.00000   0.00000   0.00000   0.00000
   DH2       -3.14159   0.00000   0.00000   0.00000   0.00000  -3.14159
         Item               Value     Threshold  Converged?
 Maximum Force            0.003700     0.000450     NO 
 RMS     Force            0.003700     0.000300     NO 
 Maximum Displacement     0.257019     0.001800     NO 
 RMS     Displacement     0.081276     0.001200     NO 
 Predicted change in Energy=-8.607588D-04
 GradGradGradGradGradGradGradGradGradGradGradGradGradGradGradGradGradGrad

 ---------------------------------------------------------------------------------------------------
                            Z-MATRIX (ANGSTROMS AND DEGREES)
   CD    Cent   Atom    N1       Length/X        N2       Alpha/Y        N3        Beta/Z          J
 ---------------------------------------------------------------------------------------------------
      1      1  F       -1  -1.969300          2.053680          0.000070
      2      2  C       -1  -1.222250          0.944230          0.000030
      3      3  C       -1   0.140030          1.057400         -0.000020
      4      4  C       -1   0.927950         -0.123640         -0.000080
      5      5  C       -1   2.414660         -0.018650         -0.000010
      6      6  F       -1   3.007080         -1.234610         -0.000560
      7      7  F       -1   2.858290          0.654480         -1.086020
      8      8  F       -1   2.858270          0.653500          1.086650
      9      9  C       -1   0.306540         -1.341490         -0.000090
     10     10  N       -1  -1.054170         -1.389970         -0.000060
     11     11  C       -1  -1.930500         -0.312100          0.000000
     12     12  S       -1  -3.570980         -0.506610          0.000030
     13     13  H       -1   0.596860          2.043100         -0.000020
     14     14  H       -1   0.831760         -2.288990         -0.000150
     15     15  H       -1  -1.521480         -2.296390         -0.000090
     16         X       15   1.000000(    15)     10   90.000(    33)      9  180.000(    50)      0
     17         X       16   1.000000(    16)     15   90.000(    34)     10    0.000(    51)      0
     18     16  O       15   2.006087(    17)     16   90.000(    35)     17  180.000(    52)      0
     19     17  H       18   0.957200(    18)     15  127.740(    36)     16    0.000(    53)      0
     20     18  H       18   0.957200(    19)     15  127.740(    37)     16 -180.000(    54)      0
 ---------------------------------------------------------------------------------------------------
                         Z-Matrix orientation:                         
 ---------------------------------------------------------------------
 Center     Atomic      Atomic             Coordinates (Angstroms)
 Number     Number       Type             X           Y           Z
 ---------------------------------------------------------------------
      1          9           0       -1.969300    2.053680    0.000070
      2          6           0       -1.222250    0.944230    0.000030
      3          6           0        0.140030    1.057400   -0.000020
      4          6           0        0.927950   -0.123640   -0.000080
      5          6           0        2.414660   -0.018650   -0.000010
      6          9           0        3.007080   -1.234610   -0.000560
      7          9           0        2.858290    0.654480   -1.086020
      8          9           0        2.858270    0.653500    1.086650
      9          6           0        0.306540   -1.341490   -0.000090
     10          7           0       -1.054170   -1.389970   -0.000060
     11          6           0       -1.930500   -0.312100    0.000000
     12         16           0       -3.570980   -0.506610    0.000030
     13          1           0        0.596860    2.043100   -0.000020
     14          1           0        0.831760   -2.288990   -0.000150
     15          1           0       -1.521480   -2.296390   -0.000090
     16         -1           0       -2.410308   -1.838150   -0.000048
     17         -1           0       -1.952068   -0.949321   -0.000019
     18          8           0       -2.440750   -4.079457   -0.000149
     19          1           0       -3.382024   -4.253341   -0.000135
     20          1           0       -2.036427   -4.947071   -0.000198
 ---------------------------------------------------------------------
                    Distance matrix (angstroms):
                    1          2          3          4          5
     1  F    0.000000
     2  C    1.337521   0.000000
     3  C    2.332777   1.366973   0.000000
     4  C    3.624194   2.400772   1.419744   0.000000
     5  C    4.849088   3.762214   2.516312   1.490413   0.000000
     6  F    5.964663   4.757581   3.670597   2.357337   1.352598
     7  F    5.142274   4.232525   2.954772   2.347541   1.352527
     8  F    5.142625   4.232719   2.955134   2.347566   1.352555
     9  C    4.087374   2.749857   2.404662   1.367227   2.488790
    10  N    3.563171   2.340244   2.723184   2.352104   3.730054
    11  C    2.366098   1.442215   2.482463   2.864656   4.355058
    12  S    3.020011   2.760701   4.027123   4.515201   6.005497
    13  H    2.566182   2.125247   1.086415   2.191890   2.748674
    14  H    5.167661   3.830492   3.417136   2.167485   2.767673
    15  H    4.373060   3.254406   3.742796   3.274225   4.547669
    16  X    3.916737   3.025412   3.858553   3.752800   5.156636
    17  X    3.003051   2.029328   2.898931   2.996039   4.464802
    18  O    6.151231   5.169350   5.748715   5.195828   6.329705
    19  H    6.463304   5.628443   6.372506   5.969113   7.178729
    20  H    7.001073   5.947295   6.386755   5.661538   6.640897
                    6          7          8          9         10
     6  F    0.000000
     7  F    2.183809   0.000000
     8  F    2.183834   2.172670   0.000000
     9  C    2.702654   3.416807   3.416477   0.000000
    10  N    4.064221   4.546034   4.545756   1.361573   0.000000
    11  C    5.023019   5.004620   5.004549   2.462517   1.389157
    12  S    6.618222   6.622926   6.622828   3.966382   2.667332
    13  H    4.068482   2.867355   2.868068   3.397019   3.809445
    14  H    2.417382   3.734964   3.734451   1.083334   2.089251
    15  H    4.651369   5.391592   5.391203   2.062399   1.019792
    16  X    5.450904   5.928800   5.928503   2.761872   1.428277
    17  X    4.967347   5.185665   5.185483   2.292402   1.000196
    18  O    6.145894   7.188123   7.187603   3.878668   3.025879
    19  H    7.066356   8.012950   8.012456   4.699402   3.690230
    20  H    6.262534   7.517622   7.517027   4.299966   3.690230
                   11         12         13         14         15
    11  C    0.000000
    12  S    1.651971   0.000000
    13  H    3.454637   4.885889   0.000000
    14  H    3.396789   4.749842   4.338454   0.000000
    15  H    2.026007   2.720986   4.828927   2.353252   0.000000
    16  X    1.599701   1.766396   4.909904   3.273265   1.000000
    17  X    0.637586   1.678353   3.930855   3.089403   1.414214
    18  O    3.801754   3.747353   6.834675   3.730295   2.006087
    19  H    4.200036   3.751492   7.448267   4.649156   2.700237
    20  H    4.636181   4.698143   7.469718   3.910485   2.700237
                   16         17         18         19         20
    16  X    0.000000
    17  X    1.000000   0.000000
    18  O    2.241514   3.168053   0.000000
    19  H    2.603340   3.600183   0.957200   0.000000
    20  H    3.131323   3.998640   0.957200   1.513901   0.000000
 Symmetry turned off by external request.
 Stoichiometry    C6H5F4NOS
 Framework group  C1[X(C6H5F4NOS)]
 Deg. of freedom    48
 Full point group                 C1      NOp   1
 Rotational constants (GHZ):      0.9759227      0.3852048      0.2904243
 Standard basis: 6-31G(d) (6D, 7F)
 Integral buffers will be    131072 words long.
 Raffenetti 1 integral format.
 Two-electron integral symmetry is turned off.
   209 basis functions,   408 primitive gaussians,   209 cartesian basis functions
    54 alpha electrons       54 beta electrons
       nuclear repulsion energy       918.2035474104 Hartrees.
 NAtoms=   18 NActive=   18 NUniq=   18 SFac= 7.50D-01 NAtFMM=   80 NAOKFM=F Big=F
 One-electron integrals computed using PRISM.
 NBasis=   209 RedAO= T  NBF=   209
 NBsUse=   209 1.00D-06 NBFU=   209
 Initial guess read from the read-write file.
 B after Tr=     0.000000    0.000000    0.000000
         Rot=    1.000000    0.000000    0.000000    0.000000 Ang=   0.00 deg.
 Harris functional with IExCor=  205 diagonalized for initial guess.
 ExpMin= 1.17D-01 ExpMax= 2.19D+04 ExpMxC= 3.30D+03 IAcc=1 IRadAn=         1 AccDes= 0.00D+00
 HarFok:  IExCor=  205 AccDes= 0.00D+00 IRadAn=         1 IDoV= 1
 ScaDFX=  1.000000  1.000000  1.000000  1.000000
 FoFCou: FMM=F IPFlag=           0 FMFlag=      100000 FMFlg1=           0
         NFxFlg=           0 DoJE=T BraDBF=F KetDBF=T FulRan=T
         Omega=  0.000000  0.000000  1.000000  0.000000  0.000000 ICntrl=     500 IOpCl=  0
         NMat0=    1 NMatS0=    1 NMatT0=    0 NMatD0=    1 NMtDS0=    0 NMtDT0=    0
         I1Cent=           4 NGrid=           0.
 Symmetry not used in FoFCou.
 Requested convergence on RMS density matrix=1.00D-08 within 128 cycles.
 Requested convergence on MAX density matrix=1.00D-06.
 Requested convergence on             energy=1.00D-06.
 No special actions if energy rises.
 Integral accuracy reduced to 1.0D-05 until final iterations.
 Initial convergence to 1.0D-05 achieved.  Increase integral accuracy.
 SCF Done:  E(RHF) =  -1154.68535430     A.U. after   10 cycles
             Convg  =    0.7130D-08             -V/T =  2.0019
 Calling FoFJK, ICntrl=      2127 FMM=F ISym2X=0 I1Cent= 0 IOpClX= 0 NMat=1 NMatS=1 NMatT=0.
 -------------------------------------------------------------------
 Center     Atomic                   Forces (Hartrees/Bohr)
 Number     Number              X              Y              Z
 -------------------------------------------------------------------
      1        9           0.000000000    0.000000000    0.000000000
      2        6           0.000000000    0.000000000    0.000000000
      3        6           0.000000000    0.000000000    0.000000000
      4        6           0.000000000    0.000000000    0.000000000
      5        6           0.000000000    0.000000000    0.000000000
      6        9           0.000000000    0.000000000    0.000000000
      7        9           0.000000000    0.000000000    0.000000000
      8        9           0.000000000    0.000000000    0.000000000
      9        6           0.000000000    0.000000000    0.000000000
     10        7           0.000000000    0.000000000    0.000000000
     11        6           0.000000000    0.000000000    0.000000000
     12       16           0.000000000    0.000000000    0.000000000
     13        1           0.000000000    0.000000000    0.000000000
     14        1           0.000000000    0.000000000    0.000000000
     15        1           0.000000000    0.000000000    0.000000000
     16        8          -0.002090333   -0.016651913   -0.000000700
     17        1           0.008066396    0.008063499    0.000000171
     18        1          -0.002571594    0.009208811    0.000000477
 -------------------------------------------------------------------
 Cartesian Forces:  Max     0.016651913 RMS     0.003052497
 -----------------------------------------------------------------------------------------------
                       Internal Coordinate Forces (Hartree/Bohr or radian)
  Cent   Atom   N1       Length/X         N2         Alpha/Y        N3         Beta/Z          J
 -----------------------------------------------------------------------------------------------
      1  F 
      2  C 
      3  C 
      4  C 
      5  C 
      6  F 
      7  F 
      8  F 
      9  C 
     10  N 
     11  C 
     12  S 
     13  H 
     14  H 
     15  H 
         X       15   0.000000(     1)     10   0.001521(     6)      9   0.000000(    11)     0
         X       16   0.000000(     2)     15   0.000000(     7)     10   0.000000(    12)     0
     16  O       15  -0.002111(     3)     16   0.001521(     8)     17   0.000000(    13)     0
     17  H       18  -0.009397(     4)     15  -0.011692(     9)     16   0.000000(    14)     0
     18  H       18  -0.009433(     5)     15  -0.002820(    10)     16   0.000000(    15)     0
 -----------------------------------------------------------------------------------------------
 Internal  Forces:  Max     0.011692393 RMS     0.004697785

 GradGradGradGradGradGradGradGradGradGradGradGradGradGradGradGradGradGrad
 Berny optimization.
 Search for a local minimum.
 Step number   3 out of a maximum of   20
 All quantities printed in internal units (Hartrees-Bohrs-Radians)
 Update second derivatives using D2CorN and points    2    3
 DE= -7.77D-04 DEPred=-8.61D-04 R= 9.03D-01
 SS=  1.41D+00  RLast= 2.57D-01 DXNew= 6.4838D-01 7.7106D-01
 Trust test= 9.03D-01 RLast= 2.57D-01 DXMaxT set to 6.48D-01
 The second derivative matrix:
                          RX       RDUM       ROH      ADUM      AHOA
           RX           0.00618
           RDUM         0.00000   0.00000
           ROH          0.00118   0.00000   1.12160
           ADUM        -0.00211   0.00000   0.00000   1.00000
           AHOA        -0.00426   0.00000   0.00000   0.00000   0.96000
           DOH          0.00000   0.00000   0.00000   0.00000   0.00000
           DD1          0.00000   0.00000   0.00000   0.00000   0.00000
           DD2          0.00000   0.00000   0.00000   0.00000   0.00000
           DH1          0.00000   0.00000   0.00000   0.00000   0.00000
           DH2          0.00000   0.00000   0.00000   0.00000   0.00000
                          DOH       DD1       DD2       DH1       DH2
           DOH          0.00000
           DD1          0.00000   0.31871
           DD2          0.00000  -0.31871   0.31871
           DH1          0.00000  -0.00798   0.00798   0.02814
           DH2          0.00000   0.00798  -0.00798  -0.02814   0.02814
     Eigenvalues ---    0.006181000.000001000.000001000.000001000.00000
     Eigenvalues --- 1000.000001000.000001000.000001000.000001000.00000
 RFO step:  Lambda= 0.00000000D+00 EMin= 6.17937010D-03
 Quartic linear search produced a step of  0.69735.
 Variable       Old X    -DE/DX   Delta X   Delta X   Delta X     New X
                                 (Linear)    (Quad)   (Total)
    RX        3.79096  -0.00211  -0.17923   0.00000  -0.17923   3.61172
   RDUM       1.88973   0.00000   0.00000   0.00000   0.00000   1.88973
   ROH        1.80885  -0.01883   0.00000   0.00000   0.00000   1.80885
   ADUM       1.57080   0.00304   0.00000   0.00000   0.00000   1.57080
   AHOA       2.22948  -0.01451   0.00000   0.00000   0.00000   2.22948
   DOH        3.14159   0.00000   0.00000   0.00000   0.00000   3.14159
   DD1        0.00000   0.00000   0.00000   0.00000   0.00000   0.00000
   DD2        3.14159   0.00000   0.00000   0.00000   0.00000   3.14159
   DH1        0.00000   0.00000   0.00000   0.00000   0.00000   0.00000
   DH2       -3.14159   0.00000   0.00000   0.00000   0.00000  -3.14159
         Item               Value     Threshold  Converged?
 Maximum Force            0.002111     0.000450     NO 
 RMS     Force            0.002111     0.000300     NO 
 Maximum Displacement     0.179232     0.001800     NO 
 RMS     Displacement     0.056678     0.001200     NO 
 Predicted change in Energy=-2.791932D-04
 GradGradGradGradGradGradGradGradGradGradGradGradGradGradGradGradGradGrad

 ---------------------------------------------------------------------------------------------------
                            Z-MATRIX (ANGSTROMS AND DEGREES)
   CD    Cent   Atom    N1       Length/X        N2       Alpha/Y        N3        Beta/Z          J
 ---------------------------------------------------------------------------------------------------
      1      1  F       -1  -1.969300          2.053680          0.000070
      2      2  C       -1  -1.222250          0.944230          0.000030
      3      3  C       -1   0.140030          1.057400         -0.000020
      4      4  C       -1   0.927950         -0.123640         -0.000080
      5      5  C       -1   2.414660         -0.018650         -0.000010
      6      6  F       -1   3.007080         -1.234610         -0.000560
      7      7  F       -1   2.858290          0.654480         -1.086020
      8      8  F       -1   2.858270          0.653500          1.086650
      9      9  C       -1   0.306540         -1.341490         -0.000090
     10     10  N       -1  -1.054170         -1.389970         -0.000060
     11     11  C       -1  -1.930500         -0.312100          0.000000
     12     12  S       -1  -3.570980         -0.506610          0.000030
     13     13  H       -1   0.596860          2.043100         -0.000020
     14     14  H       -1   0.831760         -2.288990         -0.000150
     15     15  H       -1  -1.521480         -2.296390         -0.000090
     16         X       15   1.000000(    15)     10   90.000(    33)      9  180.000(    50)      0
     17         X       16   1.000000(    16)     15   90.000(    34)     10    0.000(    51)      0
     18     16  O       15   1.911242(    17)     16   90.000(    35)     17  180.000(    52)      0
     19     17  H       18   0.957200(    18)     15  127.740(    36)     16    0.000(    53)      0
     20     18  H       18   0.957200(    19)     15  127.740(    37)     16 -180.000(    54)      0
 ---------------------------------------------------------------------------------------------------
                         Z-Matrix orientation:                         
 ---------------------------------------------------------------------
 Center     Atomic      Atomic             Coordinates (Angstroms)
 Number     Number       Type             X           Y           Z
 ---------------------------------------------------------------------
      1          9           0       -1.969300    2.053680    0.000070
      2          6           0       -1.222250    0.944230    0.000030
      3          6           0        0.140030    1.057400   -0.000020
      4          6           0        0.927950   -0.123640   -0.000080
      5          6           0        2.414660   -0.018650   -0.000010
      6          9           0        3.007080   -1.234610   -0.000560
      7          9           0        2.858290    0.654480   -1.086020
      8          9           0        2.858270    0.653500    1.086650
      9          6           0        0.306540   -1.341490   -0.000090
     10          7           0       -1.054170   -1.389970   -0.000060
     11          6           0       -1.930500   -0.312100    0.000000
     12         16           0       -3.570980   -0.506610    0.000030
     13          1           0        0.596860    2.043100   -0.000020
     14          1           0        0.831760   -2.288990   -0.000150
     15          1           0       -1.521480   -2.296390   -0.000090
     16         -1           0       -2.410308   -1.838150   -0.000048
     17         -1           0       -1.952068   -0.949321   -0.000019
     18          8           0       -2.397288   -3.995156   -0.000146
     19          1           0       -3.338562   -4.169039   -0.000132
     20          1           0       -1.992965   -4.862770   -0.000195
 ---------------------------------------------------------------------
                    Distance matrix (angstroms):
                    1          2          3          4          5
     1  F    0.000000
     2  C    1.337521   0.000000
     3  C    2.332777   1.366973   0.000000
     4  C    3.624194   2.400772   1.419744   0.000000
     5  C    4.849088   3.762214   2.516312   1.490413   0.000000
     6  F    5.964663   4.757581   3.670597   2.357337   1.352598
     7  F    5.142274   4.232525   2.954772   2.347541   1.352527
     8  F    5.142625   4.232719   2.955134   2.347566   1.352555
     9  C    4.087374   2.749857   2.404662   1.367227   2.488790
    10  N    3.563171   2.340244   2.723184   2.352104   3.730054
    11  C    2.366098   1.442215   2.482463   2.864656   4.355058
    12  S    3.020011   2.760701   4.027123   4.515201   6.005497
    13  H    2.566182   2.125247   1.086415   2.191890   2.748674
    14  H    5.167661   3.830492   3.417136   2.167485   2.767673
    15  H    4.373060   3.254406   3.742796   3.274225   4.547669
    16  X    3.916737   3.025412   3.858553   3.752800   5.156636
    17  X    3.003051   2.029328   2.898931   2.996039   4.464802
    18  O    6.063958   5.077228   5.653875   5.103513   6.242391
    19  H    6.371587   5.533923   6.278238   5.879488   7.094033
    20  H    6.916490   5.857922   6.292700   5.566965   6.549248
                    6          7          8          9         10
     6  F    0.000000
     7  F    2.183809   0.000000
     8  F    2.183834   2.172670   0.000000
     9  C    2.702654   3.416807   3.416477   0.000000
    10  N    4.064221   4.546034   4.545756   1.361573   0.000000
    11  C    5.023019   5.004620   5.004549   2.462517   1.389157
    12  S    6.618222   6.622926   6.622828   3.966382   2.667332
    13  H    4.068482   2.867355   2.868068   3.397019   3.809445
    14  H    2.417382   3.734964   3.734451   1.083334   2.089251
    15  H    4.651369   5.391592   5.391203   2.062399   1.019792
    16  X    5.450904   5.928800   5.928503   2.761872   1.428277
    17  X    4.967347   5.185665   5.185483   2.292402   1.000196
    18  O    6.068592   7.100658   7.100142   3.788487   2.931034
    19  H    6.991284   7.927577   7.927087   4.613221   3.597454
    20  H    6.177701   7.426556   7.425964   4.205607   3.597454
                   11         12         13         14         15
    11  C    0.000000
    12  S    1.651971   0.000000
    13  H    3.454637   4.885889   0.000000
    14  H    3.396789   4.749842   4.338454   0.000000
    15  H    2.026007   2.720986   4.828927   2.353252   0.000000
    16  X    1.599701   1.766396   4.909904   3.273265   1.000000
    17  X    0.637586   1.678353   3.930855   3.089403   1.414214
    18  O    3.712518   3.680693   6.739841   3.652089   1.911242
    19  H    4.105925   3.669797   7.353790   4.574513   2.609330
    20  H    4.551099   4.633170   7.375516   3.821441   2.609330
                   16         17         18         19         20
    16  X    0.000000
    17  X    1.000000   0.000000
    18  O    2.157046   3.078202   0.000000
    19  H    2.508925   3.505560   0.957200   0.000000
    20  H    3.053278   3.913662   0.957200   1.513901   0.000000
 Symmetry turned off by external request.
 Stoichiometry    C6H5F4NOS
 Framework group  C1[X(C6H5F4NOS)]
 Deg. of freedom    48
 Full point group                 C1      NOp   1
 Rotational constants (GHZ):      0.9922341      0.3871261      0.2929536
 Standard basis: 6-31G(d) (6D, 7F)
 Integral buffers will be    131072 words long.
 Raffenetti 1 integral format.
 Two-electron integral symmetry is turned off.
   209 basis functions,   408 primitive gaussians,   209 cartesian basis functions
    54 alpha electrons       54 beta electrons
       nuclear repulsion energy       920.2428989814 Hartrees.
 NAtoms=   18 NActive=   18 NUniq=   18 SFac= 7.50D-01 NAtFMM=   80 NAOKFM=F Big=F
 One-electron integrals computed using PRISM.
 NBasis=   209 RedAO= T  NBF=   209
 NBsUse=   209 1.00D-06 NBFU=   209
 Initial guess read from the read-write file.
 B after Tr=     0.000000    0.000000    0.000000
         Rot=    1.000000    0.000000    0.000000    0.000000 Ang=   0.00 deg.
 Harris functional with IExCor=  205 diagonalized for initial guess.
 ExpMin= 1.17D-01 ExpMax= 2.19D+04 ExpMxC= 3.30D+03 IAcc=1 IRadAn=         1 AccDes= 0.00D+00
 HarFok:  IExCor=  205 AccDes= 0.00D+00 IRadAn=         1 IDoV= 1
 ScaDFX=  1.000000  1.000000  1.000000  1.000000
 FoFCou: FMM=F IPFlag=           0 FMFlag=      100000 FMFlg1=           0
         NFxFlg=           0 DoJE=T BraDBF=F KetDBF=T FulRan=T
         Omega=  0.000000  0.000000  1.000000  0.000000  0.000000 ICntrl=     500 IOpCl=  0
         NMat0=    1 NMatS0=    1 NMatT0=    0 NMatD0=    1 NMtDS0=    0 NMtDT0=    0
         I1Cent=           4 NGrid=           0.
 Symmetry not used in FoFCou.
 Requested convergence on RMS density matrix=1.00D-08 within 128 cycles.
 Requested convergence on MAX density matrix=1.00D-06.
 Requested convergence on             energy=1.00D-06.
 No special actions if energy rises.
 Integral accuracy reduced to 1.0D-05 until final iterations.
 Initial convergence to 1.0D-05 achieved.  Increase integral accuracy.
 SCF Done:  E(RHF) =  -1154.68555399     A.U. after   10 cycles
             Convg  =    0.5843D-08             -V/T =  2.0018
 Calling FoFJK, ICntrl=      2127 FMM=F ISym2X=0 I1Cent= 0 IOpClX= 0 NMat=1 NMatS=1 NMatT=0.
 -------------------------------------------------------------------
 Center     Atomic                   Forces (Hartrees/Bohr)
 Number     Number              X              Y              Z
 -------------------------------------------------------------------
      1        9           0.000000000    0.000000000    0.000000000
      2        6           0.000000000    0.000000000    0.000000000
      3        6           0.000000000    0.000000000    0.000000000
      4        6           0.000000000    0.000000000    0.000000000
      5        6           0.000000000    0.000000000    0.000000000
      6        9           0.000000000    0.000000000    0.000000000
      7        9           0.000000000    0.000000000    0.000000000
      8        9           0.000000000    0.000000000    0.000000000
      9        6           0.000000000    0.000000000    0.000000000
     10        7           0.000000000    0.000000000    0.000000000
     11        6           0.000000000    0.000000000    0.000000000
     12       16           0.000000000    0.000000000    0.000000000
     13        1           0.000000000    0.000000000    0.000000000
     14        1           0.000000000    0.000000000    0.000000000
     15        1           0.000000000    0.000000000    0.000000000
     16        8          -0.002851836   -0.019032033   -0.000000789
     17        1           0.007748808    0.008510239    0.000000199
     18        1          -0.002327109    0.009120998    0.000000467
 -------------------------------------------------------------------
 Cartesian Forces:  Max     0.019032033 RMS     0.003309435
 -----------------------------------------------------------------------------------------------
                       Internal Coordinate Forces (Hartree/Bohr or radian)
  Cent   Atom   N1       Length/X         N2         Alpha/Y        N3         Beta/Z          J
 -----------------------------------------------------------------------------------------------
      1  F 
      2  C 
      3  C 
      4  C 
      5  C 
      6  F 
      7  F 
      8  F 
      9  C 
     10  N 
     11  C 
     12  S 
     13  H 
     14  H 
     15  H 
         X       15   0.000000(     1)     10   0.001130(     6)      9   0.000000(    11)     0
         X       16   0.000000(     2)     15   0.000000(     7)     10   0.000000(    12)     0
     16  O       15   0.000067(     3)     16   0.001130(     8)     17   0.000000(    13)     0
     17  H       18  -0.009166(     4)     15  -0.012591(     9)     16   0.000000(    14)     0
     18  H       18  -0.009250(     5)     15  -0.003154(    10)     16   0.000000(    15)     0
 -----------------------------------------------------------------------------------------------
 Internal  Forces:  Max     0.012591388 RMS     0.004765355

 GradGradGradGradGradGradGradGradGradGradGradGradGradGradGradGradGradGrad
 Berny optimization.
 Search for a local minimum.
 Step number   4 out of a maximum of   20
 All quantities printed in internal units (Hartrees-Bohrs-Radians)
 Update second derivatives using D2CorN and points    3    4
 DE= -2.00D-04 DEPred=-2.79D-04 R= 7.15D-01
 SS=  1.41D+00  RLast= 1.79D-01 DXNew= 1.0904D+00 5.3770D-01
 Trust test= 7.15D-01 RLast= 1.79D-01 DXMaxT set to 6.48D-01
 The second derivative matrix:
                          RX       RDUM       ROH      ADUM      AHOA
           RX           0.01216
           RDUM         0.00000   0.00000
           ROH          0.00175   0.00000   1.12160
           ADUM        -0.00324   0.00000   0.00000   1.00000
           AHOA        -0.00557   0.00000   0.00000   0.00000   0.96000
           DOH          0.00000   0.00000   0.00000   0.00000   0.00000
           DD1          0.00000   0.00000   0.00000   0.00000   0.00000
           DD2          0.00000   0.00000   0.00000   0.00000   0.00000
           DH1          0.00000   0.00000   0.00000   0.00000   0.00000
           DH2          0.00000   0.00000   0.00000   0.00000   0.00000
                          DOH       DD1       DD2       DH1       DH2
           DOH          0.00000
           DD1          0.00000   0.31871
           DD2          0.00000  -0.31871   0.31871
           DH1          0.00000  -0.00798   0.00798   0.02814
           DH2          0.00000   0.00798  -0.00798  -0.02814   0.02814
     Eigenvalues ---    0.012161000.000001000.000001000.000001000.00000
     Eigenvalues --- 1000.000001000.000001000.000001000.000001000.00000
 RFO step:  Lambda= 0.00000000D+00 EMin= 1.21571162D-02
 Quartic linear search produced a step of -0.02462.
 Variable       Old X    -DE/DX   Delta X   Delta X   Delta X     New X
                                 (Linear)    (Quad)   (Total)
    RX        3.61172   0.00007   0.00441   0.00000   0.00441   3.61614
   RDUM       1.88973   0.00000   0.00000   0.00000   0.00000   1.88973
   ROH        1.80885  -0.01842   0.00000   0.00000   0.00000   1.80885
   ADUM       1.57080   0.00226   0.00000   0.00000   0.00000   1.57080
   AHOA       2.22948  -0.01574   0.00000   0.00000   0.00000   2.22948
   DOH        3.14159   0.00000   0.00000   0.00000   0.00000   3.14159
   DD1        0.00000   0.00000   0.00000   0.00000   0.00000   0.00000
   DD2        3.14159   0.00000   0.00000   0.00000   0.00000   3.14159
   DH1        0.00000   0.00000   0.00000   0.00000   0.00000   0.00000
   DH2       -3.14159   0.00000   0.00000   0.00000   0.00000  -3.14159
         Item               Value     Threshold  Converged?
 Maximum Force            0.000067     0.000450     YES
 RMS     Force            0.000067     0.000300     YES
 Maximum Displacement     0.004412     0.001800     NO 
 RMS     Displacement     0.001395     0.001200     NO 
 Predicted change in Energy=-1.792718D-07
 GradGradGradGradGradGradGradGradGradGradGradGradGradGradGradGradGradGrad

 ---------------------------------------------------------------------------------------------------
                            Z-MATRIX (ANGSTROMS AND DEGREES)
   CD    Cent   Atom    N1       Length/X        N2       Alpha/Y        N3        Beta/Z          J
 ---------------------------------------------------------------------------------------------------
      1      1  F       -1  -1.969300          2.053680          0.000070
      2      2  C       -1  -1.222250          0.944230          0.000030
      3      3  C       -1   0.140030          1.057400         -0.000020
      4      4  C       -1   0.927950         -0.123640         -0.000080
      5      5  C       -1   2.414660         -0.018650         -0.000010
      6      6  F       -1   3.007080         -1.234610         -0.000560
      7      7  F       -1   2.858290          0.654480         -1.086020
      8      8  F       -1   2.858270          0.653500          1.086650
      9      9  C       -1   0.306540         -1.341490         -0.000090
     10     10  N       -1  -1.054170         -1.389970         -0.000060
     11     11  C       -1  -1.930500         -0.312100          0.000000
     12     12  S       -1  -3.570980         -0.506610          0.000030
     13     13  H       -1   0.596860          2.043100         -0.000020
     14     14  H       -1   0.831760         -2.288990         -0.000150
     15     15  H       -1  -1.521480         -2.296390         -0.000090
     16         X       15   1.000000(    15)     10   90.000(    33)      9  180.000(    50)      0
     17         X       16   1.000000(    16)     15   90.000(    34)     10    0.000(    51)      0
[...]
 !      RDUM         1.0      -DE/DX =    0.0                           !
 !       ROH         0.9572   -DE/DX =   -0.0184                        !
 !      ADUM        90.0      -DE/DX =    0.0023                        !
 !      AHOA       127.74     -DE/DX =   -0.0157                        !
 !       DOH       180.0      -DE/DX =    0.0                           !
 !       DD1         0.0      -DE/DX =    0.0                           !
 !       DD2       180.0      -DE/DX =    0.0                           !
 !       DH1         0.0      -DE/DX =    0.0                           !
 !       DH2      -180.0      -DE/DX =    0.0                           !
 ------------------------------------------------------------------------
 GradGradGradGradGradGradGradGradGradGradGradGradGradGradGradGradGradGrad

 ---------------------------------------------------------------------------------------------------
                            Z-MATRIX (ANGSTROMS AND DEGREES)
   CD    Cent   Atom    N1       Length/X        N2       Alpha/Y        N3        Beta/Z          J
 ---------------------------------------------------------------------------------------------------
      1      1  F       -1  -1.969300          2.053680          0.000070
      2      2  C       -1  -1.222250          0.944230          0.000030
      3      3  C       -1   0.140030          1.057400         -0.000020
      4      4  C       -1   0.927950         -0.123640         -0.000080
      5      5  C       -1   2.414660         -0.018650         -0.000010
      6      6  F       -1   3.007080         -1.234610         -0.000560
      7      7  F       -1   2.858290          0.654480         -1.086020
      8      8  F       -1   2.858270          0.653500          1.086650
      9      9  C       -1   0.306540         -1.341490         -0.000090
     10     10  N       -1  -1.054170         -1.389970         -0.000060
     11     11  C       -1  -1.930500         -0.312100          0.000000
     12     12  S       -1  -3.570980         -0.506610          0.000030
     13     13  H       -1   0.596860          2.043100         -0.000020
     14     14  H       -1   0.831760         -2.288990         -0.000150
     15     15  H       -1  -1.521480         -2.296390         -0.000090
     16         X       15   1.000000(    15)     10   90.000(    33)      9  180.000(    50)      0
     17         X       16   1.000000(    16)     15   90.000(    34)     10    0.000(    51)      0
     18     16  O       15   1.913577(    17)     16   90.000(    35)     17  180.000(    52)      0
     19     17  H       18   0.957200(    18)     15  127.740(    36)     16    0.000(    53)      0
     20     18  H       18   0.957200(    19)     15  127.740(    37)     16 -180.000(    54)      0
 ---------------------------------------------------------------------------------------------------
                         Z-Matrix orientation:                         
 ---------------------------------------------------------------------
 Center     Atomic      Atomic             Coordinates (Angstroms)
 Number     Number       Type             X           Y           Z
 ---------------------------------------------------------------------
      1          9           0       -1.969300    2.053680    0.000070
      2          6           0       -1.222250    0.944230    0.000030
      3          6           0        0.140030    1.057400   -0.000020
      4          6           0        0.927950   -0.123640   -0.000080
      5          6           0        2.414660   -0.018650   -0.000010
      6          9           0        3.007080   -1.234610   -0.000560
      7          9           0        2.858290    0.654480   -1.086020
      8          9           0        2.858270    0.653500    1.086650
      9          6           0        0.306540   -1.341490   -0.000090
     10          7           0       -1.054170   -1.389970   -0.000060
     11          6           0       -1.930500   -0.312100    0.000000
     12         16           0       -3.570980   -0.506610    0.000030
     13          1           0        0.596860    2.043100   -0.000020
     14          1           0        0.831760   -2.288990   -0.000150
     15          1           0       -1.521480   -2.296390   -0.000090
     16         -1           0       -2.410308   -1.838150   -0.000048
     17         -1           0       -1.952068   -0.949321   -0.000019
     18          8           0       -2.398358   -3.997231   -0.000146
     19          1           0       -3.339632   -4.171115   -0.000132
     20          1           0       -1.994034   -4.864845   -0.000195
 ---------------------------------------------------------------------
                    Distance matrix (angstroms):
                    1          2          3          4          5
     1  F    0.000000
     2  C    1.337521   0.000000
     3  C    2.332777   1.366973   0.000000
     4  C    3.624194   2.400772   1.419744   0.000000
     5  C    4.849088   3.762214   2.516312   1.490413   0.000000
     6  F    5.964663   4.757581   3.670597   2.357337   1.352598
     7  F    5.142274   4.232525   2.954772   2.347541   1.352527
     8  F    5.142625   4.232719   2.955134   2.347566   1.352555
     9  C    4.087374   2.749857   2.404662   1.367227   2.488790
    10  N    3.563171   2.340244   2.723184   2.352104   3.730054
    11  C    2.366098   1.442215   2.482463   2.864656   4.355058
    12  S    3.020011   2.760701   4.027123   4.515201   6.005497
    13  H    2.566182   2.125247   1.086415   2.191890   2.748674
    14  H    5.167661   3.830492   3.417136   2.167485   2.767673
    15  H    4.373060   3.254406   3.742796   3.274225   4.547669
    16  X    3.916737   3.025412   3.858553   3.752800   5.156636
    17  X    3.003051   2.029328   2.898931   2.996039   4.464802
    18  O    6.066104   5.079495   5.656210   5.105784   6.244538
    19  H    6.373843   5.536249   6.280558   5.881693   7.096114
    20  H    6.918569   5.860120   6.295015   5.569292   6.551503
                    6          7          8          9         10
     6  F    0.000000
     7  F    2.183809   0.000000
     8  F    2.183834   2.172670   0.000000
     9  C    2.702654   3.416807   3.416477   0.000000
    10  N    4.064221   4.546034   4.545756   1.361573   0.000000
    11  C    5.023019   5.004620   5.004549   2.462517   1.389157
    12  S    6.618222   6.622926   6.622828   3.966382   2.667332
    13  H    4.068482   2.867355   2.868068   3.397019   3.809445
    14  H    2.417382   3.734964   3.734451   1.083334   2.089251
    15  H    4.651369   5.391592   5.391203   2.062399   1.019792
    16  X    5.450904   5.928800   5.928503   2.761872   1.428277
    17  X    4.967347   5.185665   5.185483   2.292402   1.000196
    18  O    6.070489   7.102809   7.102293   3.790704   2.933369
    19  H    6.993126   7.929676   7.929186   4.615338   3.599736
    20  H    6.179786   7.428797   7.428205   4.207930   3.599736
                   11         12         13         14         15
    11  C    0.000000
    12  S    1.651971   0.000000
    13  H    3.454637   4.885889   0.000000
    14  H    3.396789   4.749842   4.338454   0.000000
    15  H    2.026007   2.720986   4.828927   2.353252   0.000000
    16  X    1.599701   1.766396   4.909904   3.273265   1.000000
    17  X    0.637586   1.678353   3.930855   3.089403   1.414214
    18  O    3.714712   3.682320   6.742176   3.654005   1.913577
    19  H    4.108241   3.671800   7.356115   4.576342   2.611565
    20  H    4.553188   4.634757   7.377834   3.823630   2.611565
                   16         17         18         19         20
    16  X    0.000000
    17  X    1.000000   0.000000
    18  O    2.159115   3.080411   0.000000
    19  H    2.511248   3.507889   0.957200   0.000000
    20  H    3.055187   3.915749   0.957200   1.513901   0.000000
 Symmetry turned off by external request.
 Stoichiometry    C6H5F4NOS
 Framework group  C1[X(C6H5F4NOS)]
 Deg. of freedom    48
 Full point group                 C1      NOp   1
 Rotational constants (GHZ):      0.9918269      0.3870795      0.2928914

 **********************************************************************

            Population analysis using the SCF density.

 **********************************************************************

 Alpha  occ. eigenvalues --  -91.88800 -26.35893 -26.34926 -26.34923 -26.32185
 Alpha  occ. eigenvalues --  -20.60219 -15.66071 -11.53095 -11.36174 -11.35722
 Alpha  occ. eigenvalues --  -11.34531 -11.29891 -11.28846  -8.89912  -6.58251
 Alpha  occ. eigenvalues --   -6.57969  -6.57846  -1.73127  -1.64148  -1.63469
 Alpha  occ. eigenvalues --   -1.63442  -1.38352  -1.33398  -1.15618  -1.10459
 Alpha  occ. eigenvalues --   -1.01649  -0.95702  -0.91185  -0.86664  -0.83545
 Alpha  occ. eigenvalues --   -0.82671  -0.82370  -0.75484  -0.74654  -0.74535
 Alpha  occ. eigenvalues --   -0.72484  -0.71311  -0.70554  -0.70074  -0.68980
 Alpha  occ. eigenvalues --   -0.66561  -0.66555  -0.65146  -0.62727  -0.61885
 Alpha  occ. eigenvalues --   -0.60506  -0.59268  -0.57600  -0.54009  -0.51016
 Alpha  occ. eigenvalues --   -0.44980  -0.41686  -0.32549  -0.29518
 Alpha virt. eigenvalues --    0.06095   0.10180   0.17429   0.22597   0.26362
 Alpha virt. eigenvalues --    0.27019   0.27933   0.28013   0.31013   0.32586
 Alpha virt. eigenvalues --    0.35370   0.40060   0.41815   0.42305   0.44067
 Alpha virt. eigenvalues --    0.44571   0.48284   0.51204   0.55469   0.56926
 Alpha virt. eigenvalues --    0.57981   0.61115   0.63043   0.65799   0.68081
 Alpha virt. eigenvalues --    0.69076   0.73347   0.74408   0.74919   0.76845
 Alpha virt. eigenvalues --    0.78582   0.79479   0.84598   0.85904   0.88935
 Alpha virt. eigenvalues --    0.90540   0.91289   0.93585   0.96784   0.99435
 Alpha virt. eigenvalues --    1.01295   1.03450   1.05237   1.06118   1.10212
 Alpha virt. eigenvalues --    1.10641   1.12536   1.12637   1.14383   1.16281
 Alpha virt. eigenvalues --    1.18120   1.18675   1.21781   1.25818   1.29482
 Alpha virt. eigenvalues --    1.31048   1.32625   1.32661   1.34525   1.35944
 Alpha virt. eigenvalues --    1.38958   1.40666   1.40712   1.43770   1.44491
 Alpha virt. eigenvalues --    1.46075   1.48747   1.53326   1.57182   1.61635
 Alpha virt. eigenvalues --    1.61944   1.62660   1.64965   1.65456   1.65885
 Alpha virt. eigenvalues --    1.66693   1.68144   1.69135   1.70997   1.71987
 Alpha virt. eigenvalues --    1.74519   1.77939   1.78333   1.82391   1.87896
 Alpha virt. eigenvalues --    1.91003   1.93629   1.95282   1.99159   2.01305
 Alpha virt. eigenvalues --    2.01929   2.05907   2.07365   2.10378   2.11211
 Alpha virt. eigenvalues --    2.13017   2.13333   2.16757   2.19677   2.21680
 Alpha virt. eigenvalues --    2.23815   2.24010   2.25859   2.29505   2.31605
 Alpha virt. eigenvalues --    2.32345   2.33865   2.35984   2.36444   2.37115
 Alpha virt. eigenvalues --    2.40033   2.44170   2.45473   2.47117   2.47448
 Alpha virt. eigenvalues --    2.48811   2.53845   2.58615   2.62250   2.63556
 Alpha virt. eigenvalues --    2.68578   2.70625   2.76473   2.84459   2.85839
 Alpha virt. eigenvalues --    2.86766   2.91522   2.93458   2.94549   2.94879
 Alpha virt. eigenvalues --    3.02025   3.08481   3.11203   3.18740   3.23875
 Alpha virt. eigenvalues --    3.31179   3.38439   3.39494   3.44186   3.45565
 Alpha virt. eigenvalues --    3.50800   3.72927   4.08076   4.40349   4.45828
 Alpha virt. eigenvalues --    4.48149   4.51270   4.62907   4.65646   4.69658
 Alpha virt. eigenvalues --    4.83480   5.02926   5.16804   5.59744   6.02892
          Condensed to atoms (all electrons):
              1          2          3          4          5          6
     1  F    9.165984   0.265321  -0.033870   0.002214  -0.000015   0.000000
     2  C    0.265321   4.572011   0.569553  -0.027507   0.000828  -0.000019
     3  C   -0.033870   0.569553   5.064216   0.359205  -0.012670   0.002182
     4  C    0.002214  -0.027507   0.359205   5.211967   0.418792  -0.045365
     5  C   -0.000015   0.000828  -0.012670   0.418792   3.554638   0.288064
     6  F    0.000000  -0.000019   0.002182  -0.045365   0.288064   9.191663
     7  F    0.000000   0.000294   0.005032  -0.055761   0.283527  -0.030703
     8  F    0.000000   0.000293   0.005026  -0.055768   0.283533  -0.030704
     9  C    0.000130  -0.022114  -0.054228   0.585478  -0.021450   0.005318
    10  N    0.001394  -0.053198  -0.022126  -0.036225   0.001231   0.000237
    11  C   -0.040699   0.393597  -0.077724  -0.001482   0.000068   0.000002
    12  S    0.003396  -0.085227   0.001971  -0.000023   0.000006   0.000000
    13  H   -0.000245  -0.017908   0.369245  -0.030389  -0.000284   0.000035
    14  H    0.000001  -0.000095   0.001826  -0.025287  -0.000097   0.004946
    15  H   -0.000016   0.002012  -0.000311   0.002031  -0.000018   0.000001
    16  O    0.000000  -0.000009   0.000000   0.000013   0.000000   0.000000
    17  H    0.000000   0.000004   0.000000   0.000000   0.000000   0.000000
    18  H    0.000000   0.000001   0.000000   0.000000   0.000000   0.000000
              7          8          9         10         11         12
     1  F    0.000000   0.000000   0.000130   0.001394  -0.040699   0.003396
     2  C    0.000294   0.000293  -0.022114  -0.053198   0.393597  -0.085227
     3  C    0.005032   0.005026  -0.054228  -0.022126  -0.077724   0.001971
     4  C   -0.055761  -0.055768   0.585478  -0.036225  -0.001482  -0.000023
     5  C    0.283527   0.283533  -0.021450   0.001231   0.000068   0.000006
     6  F   -0.030703  -0.030704   0.005318   0.000237   0.000002   0.000000
     7  F    9.205224  -0.033972   0.000534  -0.000006  -0.000001   0.000000
     8  F   -0.033972   9.205244   0.000530  -0.000006  -0.000001   0.000000
     9  C    0.000534   0.000530   4.722999   0.279434  -0.040789   0.003485
    10  N   -0.000006  -0.000006   0.279434   7.298785   0.229243  -0.095366
    11  C   -0.000001  -0.000001  -0.040789   0.229243   4.920655   0.438785
    12  S    0.000000   0.000000   0.003485  -0.095366   0.438785  15.997480
    13  H    0.000906   0.000903   0.002398  -0.000274   0.002633  -0.000065
    14  H    0.000082   0.000082   0.382302  -0.031831   0.001017  -0.000119
    15  H    0.000000   0.000000  -0.014769   0.268745  -0.014840   0.004450
    16  O    0.000000   0.000000   0.000687  -0.014090  -0.000196  -0.001608
    17  H    0.000000   0.000000  -0.000025   0.000554   0.000053   0.001791
    18  H    0.000000   0.000000  -0.000029   0.000682   0.000016   0.000208
             13         14         15         16         17         18
     1  F   -0.000245   0.000001  -0.000016   0.000000   0.000000   0.000000
     2  C   -0.017908  -0.000095   0.002012  -0.000009   0.000004   0.000001
     3  C    0.369245   0.001826  -0.000311   0.000000   0.000000   0.000000
     4  C   -0.030389  -0.025287   0.002031   0.000013   0.000000   0.000000
     5  C   -0.000284  -0.000097  -0.000018   0.000000   0.000000   0.000000
     6  F    0.000035   0.004946   0.000001   0.000000   0.000000   0.000000
     7  F    0.000906   0.000082   0.000000   0.000000   0.000000   0.000000
     8  F    0.000903   0.000082   0.000000   0.000000   0.000000   0.000000
     9  C    0.002398   0.382302  -0.014769   0.000687  -0.000025  -0.000029
    10  N   -0.000274  -0.031831   0.268745  -0.014090   0.000554   0.000682
    11  C    0.002633   0.001017  -0.014840  -0.000196   0.000053   0.000016
    12  S   -0.000065  -0.000119   0.004450  -0.001608   0.001791   0.000208
    13  H    0.398539  -0.000065   0.000006   0.000000   0.000000   0.000000
    14  H   -0.000065   0.390478  -0.001378   0.000207  -0.000006  -0.000016
    15  H    0.000006  -0.001378   0.194533   0.027993  -0.000730  -0.000899
    16  O    0.000000   0.000207   0.027993   8.346670   0.266697   0.263326
    17  H    0.000000  -0.000006  -0.000730   0.266697   0.280985  -0.015871
    18  H    0.000000  -0.000016  -0.000899   0.263326  -0.015871   0.305800
 Mulliken atomic charges:
              1
     1  F   -0.363593
     2  C    0.402163
     3  C   -0.177327
     4  C   -0.301892
     5  C    1.203848
     6  F   -0.385657
     7  F   -0.375155
     8  F   -0.375160
     9  C    0.170108
    10  N   -0.827184
    11  C    0.189664
    12  S   -0.269163
    13  H    0.274566
    14  H    0.277953
    15  H    0.533190
    16  O   -0.889691
    17  H    0.466548
    18  H    0.446783
 Sum of Mulliken atomic charges =   0.00000
 Mulliken charges with hydrogens summed into heavy atoms:
              1
     1  F   -0.363593
     2  C    0.402163
     3  C    0.097239
     4  C   -0.301892
     5  C    1.203848
     6  F   -0.385657
     7  F   -0.375155
     8  F   -0.375160
     9  C    0.448062
    10  N   -0.293994
    11  C    0.189664
    12  S   -0.269163
    16  O    0.023640
 Sum of Mulliken charges with hydrogens summed into heavy atoms =   0.00000
 Electronic spatial extent (au):  <R**2>=           3448.4462
 Charge=              0.0000 electrons
 Dipole moment (field-independent basis, Debye):
    X=              2.2697    Y=             -5.5209    Z=             -0.0005  Tot=              5.9692
 Quadrupole moment (field-independent basis, Debye-Ang):
   XX=            -99.1904   YY=            -51.0689   ZZ=            -82.6485
   XY=             12.6927   XZ=              0.0001   YZ=              0.0011
 Traceless Quadrupole moment (field-independent basis, Debye-Ang):
   XX=            -21.5544   YY=             26.5670   ZZ=             -5.0126
   XY=             12.6927   XZ=              0.0001   YZ=              0.0011
 Octapole moment (field-independent basis, Debye-Ang**2):
  XXX=            118.6836  YYY=            -56.3794  ZZZ=              0.0020  XYY=            -24.2905
  XXY=            -14.2953  XXZ=             -0.0021  XZZ=             34.5025  YZZ=             33.3945
  YYZ=             -0.0036  XYZ=             -0.0023
 Hexadecapole moment (field-independent basis, Debye-Ang**3):
 XXXX=          -2791.9425 YYYY=           -374.4584 ZZZZ=           -143.8185 XXXY=            -50.1541
 XXXZ=              0.0032 YYYX=            151.7886 YYYZ=              0.0136 ZZZX=             -0.0068
 ZZZY=             -0.0196 XXYY=           -437.2592 XXZZ=           -489.7487 YYZZ=           -230.5948
 XXYZ=             -0.0003 YYXZ=              0.0176 ZZXY=            -86.8882
 N-N= 9.201917342013D+02 E-N=-4.579254411717D+03  KE= 1.152562540283D+03
 1\1\GINC-B1\FOpt\RHF\6-31G(d)\C6H5F4N1O1S1\ANA\24-Sep-2021\1\\#HF/6-31
 G* Opt=Z-matrix NoSymm\\water interaction with atom H15\\0,1\F,-1,-1.9
 693,2.05368,0.00007\C,-1,-1.22225,0.94423,0.00003\C,-1,0.14003,1.0574,
 -0.00002\C,-1,0.92795,-0.12364,-0.00008\C,-1,2.41466,-0.01865,-0.00001
 \F,-1,3.00708,-1.23461,-0.00056\F,-1,2.85829,0.65448,-1.08602\F,-1,2.8
 5827,0.6535,1.08665\C,-1,0.30654,-1.34149,-0.00009\N,-1,-1.05417,-1.38
 997,-0.00006\C,-1,-1.9305,-0.3121,0.\S,-1,-3.57098,-0.50661,0.00003\H,
 -1,0.59686,2.0431,-0.00002\H,-1,0.83176,-2.28899,-0.00015\H,-1,-1.5214
 8,-2.29639,-0.00009\X,15,RDUM,10,ADUM,9,DOH,0\X,16,RDUM,15,ADUM,10,DD1
 ,0\O,15,RX,16,ADUM,17,DD2,0\H,18,ROH,15,AHOA,16,DH1,0\H,18,ROH,15,AHOA
 ,16,DH2,0\\RX=1.91357677\RDUM=1.\ROH=0.9572\ADUM=90.\AHOA=127.74\DOH=1
 80.\DD1=0.\DD2=180.\DH1=0.\DH2=-180.\\Version=EM64L-G09RevA.01\HF=-115
 4.6855541\RMSD=2.614e-09\RMSF=3.302e-03\Dipole=0.8929626,-2.172085,-0.
 0001991\Quadrupole=-16.0251987,19.7519374,-3.7267387,9.4367376,0.00011
 05,0.0008232\PG=C01 [X(C6H5F4N1O1S1)]\\@


 NOT WHAT WE DID SHALL BE THE TEST
 WHEN ACT AND WILL ARE DONE,
 BUT WHAT OUR LORD INFERS WE WOULD-
 HAD WE DIVINER BEEN.
           EMILY DICKINSON  POEMS NO. CLXXV
 Job cpu time:  0 days  0 hours  4 minutes 47.3 seconds.
 File lengths (MBytes):  RWF=     33 Int=      0 D2E=      0 Chk=      3 Scr=      1
 Normal termination of Gaussian 09 at Fri Sep 24 08:30:07 2021.
