 Entering Gaussian System, Link 0=g09
 Initial command:
 /home/ana/programs/g09/l1.exe /home/ana/programs/g09/scratch/Gau-710743.inp -scrdir=/home/ana/programs/g09/scratch/
 Entering Link 1 = /home/ana/programs/g09/l1.exe PID=    710745.
  
 Copyright (c) 1988,1990,1992,1993,1995,1998,2003,2009, Gaussian, Inc.
                  All Rights Reserved.
  
 This is part of the Gaussian(R) 09 program.  It is based on
 the Gaussian(R) 03 system (copyright 2003, Gaussian, Inc.),
 the Gaussian(R) 98 system (copyright 1998, Gaussian, Inc.),
 the Gaussian(R) 94 system (copyright 1995, Gaussian, Inc.),
 the Gaussian 92(TM) system (copyright 1992, Gaussian, Inc.),
 the Gaussian 90(TM) system (copyright 1990, Gaussian, Inc.),
 the Gaussian 88(TM) system (copyright 1988, Gaussian, Inc.),
 the Gaussian 86(TM) system (copyright 1986, Carnegie Mellon
 University), and the Gaussian 82(TM) system (copyright 1983,
 Carnegie Mellon University). Gaussian is a federally registered
 trademark of Gaussian, Inc.
  
 This software contains proprietary and confidential information,
 including trade secrets, belonging to Gaussian, Inc.
  
 This software is provided under written license and may be
 used, copied, transmitted, or stored only in accord with that
 written license.
  
 The following legend is applicable only to US Government
 contracts under FAR:
  
                    RESTRICTED RIGHTS LEGEND
  
 Use, reproduction and disclosure by the US Government is
 subject to restrictions as set forth in subparagraphs (a)
 and (c) of the Commercial Computer Software - Restricted
 Rights clause in FAR 52.227-19.
  
 Gaussian, Inc.
 340 Quinnipiac St., Bldg. 40, Wallingford CT 06492
  
  
 ---------------------------------------------------------------
 Warning -- This program may not be used in any manner that
 competes with the business of Gaussian, Inc. or will provide
 assistance to any competitor of Gaussian, Inc.  The licensee
 of this program is prohibited from giving any competitor of
 Gaussian, Inc. access to this program.  By using this program,
 the user acknowledges that Gaussian, Inc. is engaged in the
 business of creating and licensing software in the field of
 computational chemistry and represents and warrants to the
 licensee that it is not a competitor of Gaussian, Inc. and that
 it will not use this program in any manner prohibited above.
 ---------------------------------------------------------------
  

 Cite this work as:
 Gaussian 09, Revision A.01,
 M. J. Frisch, G. W. Trucks, H. B. Schlegel, G. E. Scuseria, 
 M. A. Robb, J. R. Cheeseman, G. Scalmani, V. Barone, B. Mennucci, 
 G. A. Petersson, H. Nakatsuji, M. Caricato, X. Li, H. P. Hratchian, 
 A. F. Izmaylov, J. Bloino, G. Zheng, J. L. Sonnenberg, M. Hada, 
 M. Ehara, K. Toyota, R. Fukuda, J. Hasegawa, M. Ishida, T. Nakajima, 
 Y. Honda, O. Kitao, H. Nakai, T. Vreven, J. A. Montgomery, Jr., 
 J. E. Peralta, F. Ogliaro, M. Bearpark, J. J. Heyd, E. Brothers, 
 K. N. Kudin, V. N. Staroverov, R. Kobayashi, J. Normand, 
 K. Raghavachari, A. Rendell, J. C. Burant, S. S. Iyengar, J. Tomasi, 
 M. Cossi, N. Rega, J. M. Millam, M. Klene, J. E. Knox, J. B. Cross, 
 V. Bakken, C. Adamo, J. Jaramillo, R. Gomperts, R. E. Stratmann, 
 O. Yazyev, A. J. Austin, R. Cammi, C. Pomelli, J. W. Ochterski, 
 R. L. Martin, K. Morokuma, V. G. Zakrzewski, G. A. Voth, 
 P. Salvador, J. J. Dannenberg, S. Dapprich, A. D. Daniels, 
 O. Farkas, J. B. Foresman, J. V. Ortiz, J. Cioslowski, 
 and D. J. Fox, Gaussian, Inc., Wallingford CT, 2009.
 
 ******************************************
 Gaussian 09:  EM64L-G09RevA.01  8-May-2009
                24-Sep-2021 
 ******************************************
 %NPROC=4
 Will use up to    4 processors via shared memory.
 %NoSave
 ------------------------------
 #HF/6-31G* Opt=Z-matrix NoSymm
 ------------------------------
 1/10=7,18=40,38=1/1,3;
 2/12=2,15=1,17=6,18=5,29=3,40=1/2;
 3/5=1,6=6,7=1,11=9,16=1,25=1,30=1,71=1/1,2,3;
 4//1;
 5/5=2,38=5/2;
 6/7=2,8=2,9=2,10=2,28=1/1;
 7/29=1,30=1/1,2,3,16;
 1/10=7,18=40/3(2);
 2/15=1,29=3/2;
 99//99;
 2/15=1,29=3/2;
 3/5=1,6=6,7=1,11=9,16=1,25=1,30=1,71=1/1,2,3;
 4/5=5,16=3/1;
 5/5=2,38=5/2;
 7/30=1/1,2,3,16;
 1/18=40/3(-5);
 2/15=1,29=3/2;
 6/7=2,8=2,9=2,10=2,19=2,28=1/1;
 99/9=1/99;
 -------------------------------
 water interaction with atom H15
 -------------------------------
 Symbolic Z-matrix:
 Charge =  0 Multiplicity = 1
 9                    -1   -1.9693    2.05368   0.00007 
 6                    -1   -1.22225   0.94423   0.00003 
 6                    -1    0.14003   1.0574   -0.00002 
 6                    -1    0.92795  -0.12364  -0.00008 
 6                    -1    2.41466  -0.01865  -0.00001 
 9                    -1    3.00708  -1.23461  -0.00056 
 9                    -1    2.85829   0.65448  -1.08602 
 9                    -1    2.85827   0.6535    1.08665 
 6                    -1    0.30654  -1.34149  -0.00009 
 7                    -1   -1.05417  -1.38997  -0.00006 
 6                    -1   -1.9305   -0.3121    0. 
 16                   -1   -3.57098  -0.50661   0.00003 
 1                    -1    0.59686   2.0431   -0.00002 
 1                    -1    0.83176  -2.28899  -0.00015 
 1                    -1   -1.52148  -2.29639  -0.00009 
 X                    15   RDUM     10   ADUM     9    DOH      0
 X                    16   RDUM     15   ADUM     10   DD1      0
 OH2                  15   RX       16   ADUM     17   DD2      0
 H1                   18   ROH      15   AHOA     16   DH1      0
 H2                   18   ROH      15   AHOA     16   DH2      0
       Variables:
  RX                    1.9476                   
       Constants:
  RDUM                  1.                       
  ROH                   0.9572                   
  ADUM                 90.                       
  AHOA                127.74                     
  DOH                 180.                       
  DD1                   0.                       
  DD2                 180.                       
  DH1                 135.                       
  DH2                 -45.                       
 

 GradGradGradGradGradGradGradGradGradGradGradGradGradGradGradGradGradGrad
 Berny optimization.
 Initialization pass.
                       ----------------------------
                       !    Initial Parameters    !
                       ! (Angstroms and Degrees)  !
 ----------------------                            ----------------------
 !      Name          Value   Derivative information (Atomic Units)     !
 ------------------------------------------------------------------------
 !       RX          1.9476   estimate D2E/DX2                          !
 !      RDUM         1.0      Frozen                                    !
 !       ROH         0.9572   Frozen                                    !
 !      ADUM        90.0      Frozen                                    !
 !      AHOA       127.74     Frozen                                    !
 !       DOH       180.0      Frozen                                    !
 !       DD1         0.0      Frozen                                    !
 !       DD2       180.0      Frozen                                    !
 !       DH1       135.0      Frozen                                    !
 !       DH2       -45.0      Frozen                                    !
 ------------------------------------------------------------------------
 Trust Radius=3.00D-01 FncErr=1.00D-07 GrdErr=1.00D-07
 Number of steps in this run=  20 maximum allowed number of steps= 100.
 GradGradGradGradGradGradGradGradGradGradGradGradGradGradGradGradGradGrad

 ---------------------------------------------------------------------------------------------------
                            Z-MATRIX (ANGSTROMS AND DEGREES)
   CD    Cent   Atom    N1       Length/X        N2       Alpha/Y        N3        Beta/Z          J
 ---------------------------------------------------------------------------------------------------
      1      1  F       -1  -1.969300          2.053680          0.000070
      2      2  C       -1  -1.222250          0.944230          0.000030
      3      3  C       -1   0.140030          1.057400         -0.000020
      4      4  C       -1   0.927950         -0.123640         -0.000080
      5      5  C       -1   2.414660         -0.018650         -0.000010
      6      6  F       -1   3.007080         -1.234610         -0.000560
      7      7  F       -1   2.858290          0.654480         -1.086020
      8      8  F       -1   2.858270          0.653500          1.086650
      9      9  C       -1   0.306540         -1.341490         -0.000090
     10     10  N       -1  -1.054170         -1.389970         -0.000060
     11     11  C       -1  -1.930500         -0.312100          0.000000
     12     12  S       -1  -3.570980         -0.506610          0.000030
     13     13  H       -1   0.596860          2.043100         -0.000020
     14     14  H       -1   0.831760         -2.288990         -0.000150
     15     15  H       -1  -1.521480         -2.296390         -0.000090
     16         X       15   1.000000(    15)     10   90.000(    33)      9  180.000(    50)      0
     17         X       16   1.000000(    16)     15   90.000(    34)     10    0.000(    51)      0
     18     16  O       15   1.947600(    17)     16   90.000(    35)     17  180.000(    52)      0
     19     17  H       18   0.957200(    18)     15  127.740(    36)     16  135.000(    53)      0
     20     18  H       18   0.957200(    19)     15  127.740(    37)     16  -45.000(    54)      0
 ---------------------------------------------------------------------------------------------------
                         Z-Matrix orientation:                         
 ---------------------------------------------------------------------
 Center     Atomic      Atomic             Coordinates (Angstroms)
 Number     Number       Type             X           Y           Z
 ---------------------------------------------------------------------
      1          9           0       -1.969300    2.053680    0.000070
      2          6           0       -1.222250    0.944230    0.000030
      3          6           0        0.140030    1.057400   -0.000020
      4          6           0        0.927950   -0.123640   -0.000080
      5          6           0        2.414660   -0.018650   -0.000010
      6          9           0        3.007080   -1.234610   -0.000560
      7          9           0        2.858290    0.654480   -1.086020
      8          9           0        2.858270    0.653500    1.086650
      9          6           0        0.306540   -1.341490   -0.000090
     10          7           0       -1.054170   -1.389970   -0.000060
     11          6           0       -1.930500   -0.312100    0.000000
     12         16           0       -3.570980   -0.506610    0.000030
     13          1           0        0.596860    2.043100   -0.000020
     14          1           0        0.831760   -2.288990   -0.000150
     15          1           0       -1.521480   -2.296390   -0.000090
     16         -1           0       -2.410308   -1.838150   -0.000048
     17         -1           0       -1.952068   -0.949321   -0.000019
     18          8           0       -2.413949   -4.027472   -0.000147
     19          1           0       -2.206696   -4.793467   -0.535432
     20          1           0       -3.158152   -4.302974    0.535103
 ---------------------------------------------------------------------
                    Distance matrix (angstroms):
                    1          2          3          4          5
     1  F    0.000000
     2  C    1.337521   0.000000
     3  C    2.332777   1.366973   0.000000
     4  C    3.624194   2.400772   1.419744   0.000000
     5  C    4.849088   3.762214   2.516312   1.490413   0.000000
     6  F    5.964663   4.757581   3.670597   2.357337   1.352598
     7  F    5.142274   4.232525   2.954772   2.347541   1.352527
     8  F    5.142625   4.232719   2.955134   2.347566   1.352555
     9  C    4.087374   2.749857   2.404662   1.367227   2.488790
    10  N    3.563171   2.340244   2.723184   2.352104   3.730054
    11  C    2.366098   1.442215   2.482463   2.864656   4.355058
    12  S    3.020011   2.760701   4.027123   4.515201   6.005497
    13  H    2.566182   2.125247   1.086415   2.191890   2.748674
    14  H    5.167661   3.830492   3.417136   2.167485   2.767673
    15  H    4.373060   3.254406   3.742796   3.274225   4.547669
    16  X    3.916737   3.025412   3.858553   3.752800   5.156636
    17  X    3.003051   2.029328   2.898931   2.996039   4.464802
    18  O    6.097386   5.112530   5.690231   5.138890   6.275836
    19  H    6.872157   5.846112   6.326645   5.649769   6.666520
    20  H    6.488966   5.618467   6.316484   5.869368   7.049682
                    6          7          8          9         10
     6  F    0.000000
     7  F    2.183809   0.000000
     8  F    2.183834   2.172670   0.000000
     9  C    2.702654   3.416807   3.416477   0.000000
    10  N    4.064221   4.546034   4.545756   1.361573   0.000000
    11  C    5.023019   5.004620   5.004549   2.462517   1.389157
    12  S    6.618222   6.622926   6.622828   3.966382   2.667332
    13  H    4.068482   2.867355   2.868068   3.397019   3.809445
    14  H    2.417382   3.734964   3.734451   1.083334   2.089251
    15  H    4.651369   5.391592   5.391203   2.062399   1.019792
    16  X    5.450904   5.928800   5.928503   2.761872   1.428277
    17  X    4.967347   5.185665   5.185483   2.292402   1.000196
    18  O    6.098167   7.134164   7.133647   3.823030   2.967392
    19  H    6.335220   7.459046   7.612784   4.303382   3.633006
    20  H    6.907379   7.962535   7.814613   4.589217   3.633006
                   11         12         13         14         15
    11  C    0.000000
    12  S    1.651971   0.000000
    13  H    3.454637   4.885889   0.000000
    14  H    3.396789   4.749842   4.338454   0.000000
    15  H    2.026007   2.720986   4.828927   2.353252   0.000000
    16  X    1.599701   1.766396   4.909904   3.273265   1.000000
    17  X    0.637586   1.678353   3.930855   3.089403   1.414214
    18  O    3.746693   3.706102   6.776195   3.681976   1.947600
    19  H    4.521684   4.530467   7.408458   3.973808   2.644146
    20  H    4.209577   3.856048   7.393181   4.501336   2.644146
                   16         17         18         19         20
    16  X    0.000000
    17  X    1.000000   0.000000
    18  O    2.189325   3.112611   0.000000
    19  H    3.010315   3.889596   0.957200   0.000000
    20  H    2.630783   3.603884   0.957200   1.513901   0.000000
 Symmetry turned off by external request.
 Stoichiometry    C6H5F4NOS
 Framework group  C1[X(C6H5F4NOS)]
 Deg. of freedom    48
 Full point group                 C1      NOp   1
 Rotational constants (GHZ):      0.9852600      0.3863283      0.2920821
 Standard basis: 6-31G(d) (6D, 7F)
 Integral buffers will be    131072 words long.
 Raffenetti 1 integral format.
 Two-electron integral symmetry is turned off.
   209 basis functions,   408 primitive gaussians,   209 cartesian basis functions
    54 alpha electrons       54 beta electrons
       nuclear repulsion energy       919.3946090594 Hartrees.
 NAtoms=   18 NActive=   18 NUniq=   18 SFac= 7.50D-01 NAtFMM=   80 NAOKFM=F Big=F
 One-electron integrals computed using PRISM.
 NBasis=   209 RedAO= T  NBF=   209
 NBsUse=   209 1.00D-06 NBFU=   209
 Harris functional with IExCor=  205 diagonalized for initial guess.
 ExpMin= 1.17D-01 ExpMax= 2.19D+04 ExpMxC= 3.30D+03 IAcc=1 IRadAn=         1 AccDes= 0.00D+00
 HarFok:  IExCor=  205 AccDes= 0.00D+00 IRadAn=         1 IDoV= 1
 ScaDFX=  1.000000  1.000000  1.000000  1.000000
 FoFCou: FMM=F IPFlag=           0 FMFlag=      100000 FMFlg1=           0
         NFxFlg=           0 DoJE=T BraDBF=F KetDBF=T FulRan=T
         Omega=  0.000000  0.000000  1.000000  0.000000  0.000000 ICntrl=     500 IOpCl=  0
         NMat0=    1 NMatS0=    1 NMatT0=    0 NMatD0=    1 NMtDS0=    0 NMtDT0=    0
         I1Cent=           4 NGrid=           0.
 Symmetry not used in FoFCou.
 Requested convergence on RMS density matrix=1.00D-08 within 128 cycles.
 Requested convergence on MAX density matrix=1.00D-06.
 Requested convergence on             energy=1.00D-06.
 No special actions if energy rises.
 Integral accuracy reduced to 1.0D-05 until final iterations.
 Initial convergence to 1.0D-05 achieved.  Increase integral accuracy.
 SCF Done:  E(RHF) =  -1154.68474993     A.U. after   15 cycles
             Convg  =    0.6843D-08             -V/T =  2.0018

 **********************************************************************

            Population analysis using the SCF density.

 **********************************************************************

 Alpha  occ. eigenvalues --  -91.88679 -26.35854 -26.34898 -26.34891 -26.32144
 Alpha  occ. eigenvalues --  -20.60157 -15.66084 -11.53060 -11.36107 -11.35675
 Alpha  occ. eigenvalues --  -11.34484 -11.29839 -11.28798  -8.89792  -6.58129
 Alpha  occ. eigenvalues --   -6.57850  -6.57723  -1.73093  -1.64112  -1.63427
 Alpha  occ. eigenvalues --   -1.63413  -1.38267  -1.33381  -1.15578  -1.10408
 Alpha  occ. eigenvalues --   -1.01595  -0.95652  -0.91137  -0.86597  -0.83502
 Alpha  occ. eigenvalues --   -0.82635  -0.82338  -0.75440  -0.74615  -0.74474
 Alpha  occ. eigenvalues --   -0.72421  -0.71278  -0.70510  -0.70034  -0.68904
 Alpha  occ. eigenvalues --   -0.66530  -0.66517  -0.65115  -0.62686  -0.61809
 Alpha  occ. eigenvalues --   -0.60494  -0.59230  -0.57591  -0.53909  -0.50913
 Alpha  occ. eigenvalues --   -0.44958  -0.41642  -0.32376  -0.29437
 Alpha virt. eigenvalues --    0.06131   0.10227   0.17468   0.22596   0.26424
 Alpha virt. eigenvalues --    0.27160   0.27844   0.28057   0.31019   0.32562
 Alpha virt. eigenvalues --    0.35400   0.39994   0.41849   0.42049   0.44150
 Alpha virt. eigenvalues --    0.44528   0.48363   0.51226   0.55638   0.56992
 Alpha virt. eigenvalues --    0.58066   0.61171   0.63130   0.65833   0.68117
 Alpha virt. eigenvalues --    0.69107   0.73412   0.74446   0.74966   0.76886
 Alpha virt. eigenvalues --    0.78608   0.79528   0.84663   0.85945   0.88917
 Alpha virt. eigenvalues --    0.90575   0.91345   0.93542   0.96934   0.98268
 Alpha virt. eigenvalues --    1.02192   1.03500   1.04787   1.05977   1.09257
 Alpha virt. eigenvalues --    1.10887   1.12326   1.14349   1.14379   1.16278
 Alpha virt. eigenvalues --    1.17621   1.18837   1.21623   1.26079   1.29524
 Alpha virt. eigenvalues --    1.31146   1.32638   1.33258   1.34563   1.36042
 Alpha virt. eigenvalues --    1.37963   1.40153   1.40457   1.43809   1.44308
 Alpha virt. eigenvalues --    1.45917   1.48736   1.53368   1.56840   1.61665
 Alpha virt. eigenvalues --    1.61956   1.62694   1.64995   1.65491   1.65910
 Alpha virt. eigenvalues --    1.66707   1.68180   1.69172   1.71038   1.71977
 Alpha virt. eigenvalues --    1.74409   1.77990   1.78275   1.82422   1.87926
 Alpha virt. eigenvalues --    1.91038   1.93667   1.95305   1.99318   2.01313
 Alpha virt. eigenvalues --    2.02270   2.06034   2.07410   2.10411   2.11252
 Alpha virt. eigenvalues --    2.13073   2.13361   2.16828   2.19644   2.21723
 Alpha virt. eigenvalues --    2.23852   2.24063   2.25898   2.29537   2.31632
 Alpha virt. eigenvalues --    2.32336   2.33905   2.36019   2.36440   2.37146
 Alpha virt. eigenvalues --    2.40065   2.44035   2.45160   2.46920   2.47471
 Alpha virt. eigenvalues --    2.48745   2.53884   2.58657   2.62280   2.63594
 Alpha virt. eigenvalues --    2.68482   2.70379   2.76511   2.84564   2.85880
 Alpha virt. eigenvalues --    2.86885   2.91060   2.93256   2.94592   2.94919
 Alpha virt. eigenvalues --    3.02008   3.08517   3.11232   3.18749   3.23892
 Alpha virt. eigenvalues --    3.31191   3.38470   3.39526   3.44223   3.45596
 Alpha virt. eigenvalues --    3.50839   3.72976   4.07145   4.40434   4.45818
 Alpha virt. eigenvalues --    4.48089   4.51154   4.62905   4.65694   4.69686
 Alpha virt. eigenvalues --    4.83526   5.02966   5.16827   5.59749   6.02918
          Condensed to atoms (all electrons):
              1          2          3          4          5          6
     1  F    9.166077   0.265445  -0.033915   0.002217  -0.000015   0.000000
     2  C    0.265445   4.577778   0.568431  -0.027285   0.000832  -0.000019
     3  C   -0.033915   0.568431   5.066100   0.358153  -0.012694   0.002182
     4  C    0.002217  -0.027285   0.358153   5.214577   0.418781  -0.045356
     5  C   -0.000015   0.000832  -0.012694   0.418781   3.554578   0.288120
     6  F    0.000000  -0.000019   0.002182  -0.045356   0.288120   9.191556
     7  F    0.000000   0.000294   0.005046  -0.055800   0.283473  -0.030703
     8  F    0.000000   0.000293   0.005033  -0.055780   0.283508  -0.030704
     9  C    0.000129  -0.022242  -0.054262   0.583984  -0.021303   0.005289
    10  N    0.001389  -0.054345  -0.021757  -0.036439   0.001220   0.000237
    11  C   -0.040748   0.390530  -0.077458  -0.001312   0.000069   0.000002
    12  S    0.003299  -0.086084   0.002029  -0.000038   0.000006   0.000000
    13  H   -0.000244  -0.017879   0.369298  -0.030424  -0.000283   0.000035
    14  H    0.000001  -0.000099   0.001818  -0.025373  -0.000084   0.004940
    15  H   -0.000016   0.002116  -0.000332   0.002091  -0.000019   0.000001
    16  O    0.000000  -0.000008   0.000000   0.000014   0.000000   0.000000
    17  H    0.000000   0.000001   0.000000   0.000000   0.000000   0.000000
    18  H    0.000000   0.000003   0.000000   0.000000   0.000000   0.000000
              7          8          9         10         11         12
     1  F    0.000000   0.000000   0.000129   0.001389  -0.040748   0.003299
     2  C    0.000294   0.000293  -0.022242  -0.054345   0.390530  -0.086084
     3  C    0.005046   0.005033  -0.054262  -0.021757  -0.077458   0.002029
     4  C   -0.055800  -0.055780   0.583984  -0.036439  -0.001312  -0.000038
     5  C    0.283473   0.283508  -0.021303   0.001220   0.000069   0.000006
     6  F   -0.030703  -0.030704   0.005289   0.000237   0.000002   0.000000
     7  F    9.205448  -0.033972   0.000528  -0.000006  -0.000001   0.000000
     8  F   -0.033972   9.205344   0.000528  -0.000006  -0.000002   0.000000
     9  C    0.000528   0.000528   4.726843   0.279016  -0.040910   0.003406
    10  N   -0.000006  -0.000006   0.279016   7.300060   0.225501  -0.095472
    11  C   -0.000001  -0.000002  -0.040910   0.225501   4.926292   0.443350
    12  S    0.000000   0.000000   0.003406  -0.095472   0.443350  15.986790
    13  H    0.000906   0.000903   0.002396  -0.000274   0.002628  -0.000064
    14  H    0.000082   0.000082   0.382070  -0.031519   0.001019  -0.000120
    15  H    0.000000   0.000000  -0.015160   0.270512  -0.014835   0.004877
    16  O    0.000000   0.000000   0.000616  -0.012215  -0.000411  -0.000850
    17  H    0.000000   0.000000  -0.000027   0.000597   0.000016   0.000220
    18  H    0.000000   0.000000  -0.000023   0.000508   0.000045   0.001040
             13         14         15         16         17         18
     1  F   -0.000244   0.000001  -0.000016   0.000000   0.000000   0.000000
     2  C   -0.017879  -0.000099   0.002116  -0.000008   0.000001   0.000003
     3  C    0.369298   0.001818  -0.000332   0.000000   0.000000   0.000000
     4  C   -0.030424  -0.025373   0.002091   0.000014   0.000000   0.000000
     5  C   -0.000283  -0.000084  -0.000019   0.000000   0.000000   0.000000
     6  F    0.000035   0.004940   0.000001   0.000000   0.000000   0.000000
     7  F    0.000906   0.000082   0.000000   0.000000   0.000000   0.000000
     8  F    0.000903   0.000082   0.000000   0.000000   0.000000   0.000000
     9  C    0.002396   0.382070  -0.015160   0.000616  -0.000027  -0.000023
    10  N   -0.000274  -0.031519   0.270512  -0.012215   0.000597   0.000508
    11  C    0.002628   0.001019  -0.014835  -0.000411   0.000016   0.000045
    12  S   -0.000064  -0.000120   0.004877  -0.000850   0.000220   0.001040
    13  H    0.398783  -0.000065   0.000006   0.000000   0.000000   0.000000
    14  H   -0.000065   0.388520  -0.001378   0.000227  -0.000014  -0.000006
    15  H    0.000006  -0.001378   0.197848   0.027124  -0.000851  -0.000733
    16  O    0.000000   0.000227   0.027124   8.340879   0.264424   0.266930
    17  H    0.000000  -0.000014  -0.000851   0.264424   0.302852  -0.016249
    18  H    0.000000  -0.000006  -0.000733   0.266930  -0.016249   0.286315
 Mulliken atomic charges:
              1
     1  F   -0.363620
     2  C    0.402239
     3  C   -0.177671
     4  C   -0.302010
     5  C    1.203811
     6  F   -0.385579
     7  F   -0.375294
     8  F   -0.375227
     9  C    0.169121
    10  N   -0.827005
    11  C    0.186227
    12  S   -0.262390
    13  H    0.274278
    14  H    0.279900
    15  H    0.528748
    16  O   -0.886730
    17  H    0.449032
    18  H    0.462171
 Sum of Mulliken atomic charges =   0.00000
 Mulliken charges with hydrogens summed into heavy atoms:
              1
     1  F   -0.363620
     2  C    0.402239
     3  C    0.096607
     4  C   -0.302010
     5  C    1.203811
     6  F   -0.385579
     7  F   -0.375294
     8  F   -0.375227
     9  C    0.449020
    10  N   -0.298257
    11  C    0.186227
    12  S   -0.262390
    16  O    0.024473
 Sum of Mulliken charges with hydrogens summed into heavy atoms =   0.00000
 Electronic spatial extent (au):  <R**2>=           3459.7238
 Charge=              0.0000 electrons
 Dipole moment (field-independent basis, Debye):
    X=              2.2300    Y=             -5.5561    Z=              0.0051  Tot=              5.9870
 Quadrupole moment (field-independent basis, Debye-Ang):
   XX=           -100.2258   YY=            -51.1604   ZZ=            -81.0476
   XY=             13.4204   XZ=             -1.4041   YZ=              0.6384
 Traceless Quadrupole moment (field-independent basis, Debye-Ang):
   XX=            -22.7479   YY=             26.3175   ZZ=             -3.5696
   XY=             13.4204   XZ=             -1.4041   YZ=              0.6384
 Octapole moment (field-independent basis, Debye-Ang**2):
  XXX=            127.5471  YYY=            -53.8441  ZZZ=             -0.0101  XYY=            -29.8006
  XXY=            -12.4348  XXZ=              7.3759  XZZ=             30.3463  YZZ=             26.5224
  YYZ=             -5.9826  XYZ=              4.5854
 Hexadecapole moment (field-independent basis, Debye-Ang**3):
 XXXX=          -2840.3052 YYYY=           -404.1497 ZZZZ=           -144.2269 XXXY=            -80.4735
 XXXZ=            -28.8648 YYYX=            182.6156 YYYZ=             40.5914 ZZZX=              0.0771
 ZZZY=             -0.0966 XXYY=           -433.1482 XXZZ=           -478.6596 YYZZ=           -200.9559
 XXYZ=            -28.5306 YYXZ=            -12.1230 ZZXY=            -69.4047
 N-N= 9.193946090594D+02 E-N=-4.577716399998D+03  KE= 1.152561268577D+03
 Calling FoFJK, ICntrl=      2127 FMM=F ISym2X=0 I1Cent= 0 IOpClX= 0 NMat=1 NMatS=1 NMatT=0.
 -------------------------------------------------------------------
 Center     Atomic                   Forces (Hartrees/Bohr)
 Number     Number              X              Y              Z
 -------------------------------------------------------------------
      1        9           0.000000000    0.000000000    0.000000000
      2        6           0.000000000    0.000000000    0.000000000
      3        6           0.000000000    0.000000000    0.000000000
      4        6           0.000000000    0.000000000    0.000000000
      5        6           0.000000000    0.000000000    0.000000000
      6        9           0.000000000    0.000000000    0.000000000
      7        9           0.000000000    0.000000000    0.000000000
      8        9           0.000000000    0.000000000    0.000000000
      9        6           0.000000000    0.000000000    0.000000000
     10        7           0.000000000    0.000000000    0.000000000
     11        6           0.000000000    0.000000000    0.000000000
     12       16           0.000000000    0.000000000    0.000000000
     13        1           0.000000000    0.000000000    0.000000000
     14        1           0.000000000    0.000000000    0.000000000
     15        1           0.000000000    0.000000000    0.000000000
     16        8          -0.002060346   -0.018101367   -0.000064243
     17        1          -0.001045334    0.008827668    0.003775264
     18        1           0.006012499    0.008266492   -0.004261784
 -------------------------------------------------------------------
 Cartesian Forces:  Max     0.018101367 RMS     0.003185120
 -----------------------------------------------------------------------------------------------
                       Internal Coordinate Forces (Hartree/Bohr or radian)
  Cent   Atom   N1       Length/X         N2         Alpha/Y        N3         Beta/Z          J
 -----------------------------------------------------------------------------------------------
      1  F 
      2  C 
      3  C 
      4  C 
      5  C 
      6  F 
      7  F 
      8  F 
      9  C 
     10  N 
     11  C 
     12  S 
     13  H 
     14  H 
     15  H 
         X       15   0.000000(     1)     10   0.004657(     6)      9   0.001523(    11)     0
         X       16   0.000000(     2)     15   0.000000(     7)     10   0.000201(    12)     0
     16  O       15  -0.000437(     3)     16   0.004657(     8)     17  -0.000201(    13)     0
     17  H       18  -0.009402(     4)     15  -0.003689(     9)     16  -0.001213(    14)     0
     18  H       18  -0.009437(     5)     15  -0.009896(    10)     16   0.002737(    15)     0
 -----------------------------------------------------------------------------------------------
 Internal  Forces:  Max     0.009895993 RMS     0.004788274

 GradGradGradGradGradGradGradGradGradGradGradGradGradGradGradGradGradGrad
 Berny optimization.
 Search for a local minimum.
 Step number   1 out of a maximum of   20
 All quantities printed in internal units (Hartrees-Bohrs-Radians)
 Second derivative matrix not updated -- first step.
 The second derivative matrix:
                          RX       RDUM       ROH      ADUM      AHOA
           RX           0.04703
           RDUM         0.00000   0.00000
           ROH          0.00000   0.00000   1.12160
           ADUM         0.00000   0.00000   0.00000   1.00452
           AHOA         0.00000   0.00000   0.00000   0.00000   0.96000
           DOH          0.00000   0.00000   0.00000   0.00000   0.00000
           DD1          0.00000   0.00000   0.00000   0.00227   0.00000
           DD2          0.00000   0.00000   0.00000  -0.00227   0.00000
           DH1          0.00000   0.00000   0.00000   0.01128   0.00000
           DH2          0.00000   0.00000   0.00000  -0.01128   0.00000
                          DOH       DD1       DD2       DH1       DH2
           DOH          0.00000
           DD1          0.00000   0.31758
           DD2          0.00000  -0.31758   0.31758
           DH1          0.00000   0.00564  -0.00564   0.02814
           DH2          0.00000  -0.00564   0.00564  -0.02814   0.02814
     Eigenvalues ---    0.047031000.000001000.000001000.000001000.00000
     Eigenvalues --- 1000.000001000.000001000.000001000.000001000.00000
 RFO step:  Lambda=-4.05675630D-06 EMin= 4.70251910D-02
 Linear search not attempted -- first point.
 Variable       Old X    -DE/DX   Delta X   Delta X   Delta X     New X
                                 (Linear)    (Quad)   (Total)
    RX        3.68043  -0.00044   0.00000  -0.00929  -0.00929   3.67114
   RDUM       1.88973   0.00000   0.00000   0.00000   0.00000   1.88973
   ROH        1.80885  -0.01884   0.00000   0.00000   0.00000   1.80885
   ADUM       1.57080   0.00931   0.00000   0.00000   0.00000   1.57080
   AHOA       2.22948  -0.01358   0.00000   0.00000   0.00000   2.22948
   DOH        3.14159   0.00152   0.00000   0.00000   0.00000   3.14159
   DD1        0.00000   0.00020   0.00000   0.00000   0.00000   0.00000
   DD2        3.14159  -0.00020   0.00000   0.00000   0.00000   3.14159
   DH1        2.35619  -0.00121   0.00000   0.00000   0.00000   2.35619
   DH2       -0.78540   0.00274   0.00000   0.00000   0.00000  -0.78540
         Item               Value     Threshold  Converged?
 Maximum Force            0.000437     0.000450     YES
 RMS     Force            0.000437     0.000300     NO 
 Maximum Displacement     0.009287     0.001800     NO 
 RMS     Displacement     0.002937     0.001200     NO 
 Predicted change in Energy=-2.028378D-06
 GradGradGradGradGradGradGradGradGradGradGradGradGradGradGradGradGradGrad

 ---------------------------------------------------------------------------------------------------
                            Z-MATRIX (ANGSTROMS AND DEGREES)
   CD    Cent   Atom    N1       Length/X        N2       Alpha/Y        N3        Beta/Z          J
 ---------------------------------------------------------------------------------------------------
      1      1  F       -1  -1.969300          2.053680          0.000070
      2      2  C       -1  -1.222250          0.944230          0.000030
      3      3  C       -1   0.140030          1.057400         -0.000020
      4      4  C       -1   0.927950         -0.123640         -0.000080
      5      5  C       -1   2.414660         -0.018650         -0.000010
      6      6  F       -1   3.007080         -1.234610         -0.000560
      7      7  F       -1   2.858290          0.654480         -1.086020
      8      8  F       -1   2.858270          0.653500          1.086650
      9      9  C       -1   0.306540         -1.341490         -0.000090
     10     10  N       -1  -1.054170         -1.389970         -0.000060
     11     11  C       -1  -1.930500         -0.312100          0.000000
     12     12  S       -1  -3.570980         -0.506610          0.000030
     13     13  H       -1   0.596860          2.043100         -0.000020
     14     14  H       -1   0.831760         -2.288990         -0.000150
     15     15  H       -1  -1.521480         -2.296390         -0.000090
     16         X       15   1.000000(    15)     10   90.000(    33)      9  180.000(    50)      0
     17         X       16   1.000000(    16)     15   90.000(    34)     10    0.000(    51)      0
     18     16  O       15   1.942685(    17)     16   90.000(    35)     17  180.000(    52)      0
     19     17  H       18   0.957200(    18)     15  127.740(    36)     16  135.000(    53)      0
     20     18  H       18   0.957200(    19)     15  127.740(    37)     16  -45.000(    54)      0
 ---------------------------------------------------------------------------------------------------
                         Z-Matrix orientation:                         
 ---------------------------------------------------------------------
 Center     Atomic      Atomic             Coordinates (Angstroms)
 Number     Number       Type             X           Y           Z
 ---------------------------------------------------------------------
      1          9           0       -1.969300    2.053680    0.000070
      2          6           0       -1.222250    0.944230    0.000030
      3          6           0        0.140030    1.057400   -0.000020
      4          6           0        0.927950   -0.123640   -0.000080
      5          6           0        2.414660   -0.018650   -0.000010
      6          9           0        3.007080   -1.234610   -0.000560
      7          9           0        2.858290    0.654480   -1.086020
      8          9           0        2.858270    0.653500    1.086650
      9          6           0        0.306540   -1.341490   -0.000090
     10          7           0       -1.054170   -1.389970   -0.000060
     11          6           0       -1.930500   -0.312100    0.000000
     12         16           0       -3.570980   -0.506610    0.000030
     13          1           0        0.596860    2.043100   -0.000020
     14          1           0        0.831760   -2.288990   -0.000150
     15          1           0       -1.521480   -2.296390   -0.000090
     16         -1           0       -2.410308   -1.838150   -0.000048
     17         -1           0       -1.952068   -0.949321   -0.000019
     18          8           0       -2.411697   -4.023104   -0.000147
     19          1           0       -2.204444   -4.789099   -0.535431
     20          1           0       -3.155900   -4.298606    0.535103
 ---------------------------------------------------------------------
                    Distance matrix (angstroms):
                    1          2          3          4          5
     1  F    0.000000
     2  C    1.337521   0.000000
     3  C    2.332777   1.366973   0.000000
     4  C    3.624194   2.400772   1.419744   0.000000
     5  C    4.849088   3.762214   2.516312   1.490413   0.000000
     6  F    5.964663   4.757581   3.670597   2.357337   1.352598
     7  F    5.142274   4.232525   2.954772   2.347541   1.352527
     8  F    5.142625   4.232719   2.955134   2.347566   1.352555
     9  C    4.087374   2.749857   2.404662   1.367227   2.488790
    10  N    3.563171   2.340244   2.723184   2.352104   3.730054
    11  C    2.366098   1.442215   2.482463   2.864656   4.355058
    12  S    3.020011   2.760701   4.027123   4.515201   6.005497
    13  H    2.566182   2.125247   1.086415   2.191890   2.748674
    14  H    5.167661   3.830492   3.417136   2.167485   2.767673
    15  H    4.373060   3.254406   3.742796   3.274225   4.547669
    16  X    3.916737   3.025412   3.858553   3.752800   5.156636
    17  X    3.003051   2.029328   2.898931   2.996039   4.464802
    18  O    6.092866   5.107758   5.685317   5.134107   6.271313
    19  H    6.867727   5.841445   6.321770   5.644909   6.661830
    20  H    6.484274   5.613611   6.311601   5.864690   7.045247
                    6          7          8          9         10
     6  F    0.000000
     7  F    2.183809   0.000000
     8  F    2.183834   2.172670   0.000000
     9  C    2.702654   3.416807   3.416477   0.000000
    10  N    4.064221   4.546034   4.545756   1.361573   0.000000
    11  C    5.023019   5.004620   5.004549   2.462517   1.389157
    12  S    6.618222   6.622926   6.622828   3.966382   2.667332
    13  H    4.068482   2.867355   2.868068   3.397019   3.809445
    14  H    2.417382   3.734964   3.734451   1.083334   2.089251
    15  H    4.651369   5.391592   5.391203   2.062399   1.019792
    16  X    5.450904   5.928800   5.928503   2.761872   1.428277
    17  X    4.967347   5.185665   5.185483   2.292402   1.000196
    18  O    6.094165   7.129633   7.129117   3.818359   2.962477
    19  H    6.330913   7.454326   7.608160   4.298562   3.628199
    20  H    6.903429   7.958114   7.810109   4.584698   3.628199
                   11         12         13         14         15
    11  C    0.000000
    12  S    1.651971   0.000000
    13  H    3.454637   4.885889   0.000000
    14  H    3.396789   4.749842   4.338454   0.000000
    15  H    2.026007   2.720986   4.828927   2.353252   0.000000
    16  X    1.599701   1.766396   4.909904   3.273265   1.000000
    17  X    0.637586   1.678353   3.930855   3.089403   1.414214
    18  O    3.742071   3.702656   6.771281   3.677929   1.942685
    19  H    4.517217   4.527013   7.403574   3.969333   2.639437
    20  H    4.204779   3.851990   7.388288   4.497386   2.639437
                   16         17         18         19         20
    16  X    0.000000
    17  X    1.000000   0.000000
    18  O    2.184955   3.107957   0.000000
    19  H    3.006180   3.885132   0.957200   0.000000
    20  H    2.626050   3.599066   0.957200   1.513901   0.000000
 Symmetry turned off by external request.
 Stoichiometry    C6H5F4NOS
 Framework group  C1[X(C6H5F4NOS)]
 Deg. of freedom    48
 Full point group                 C1      NOp   1
 Rotational constants (GHZ):      0.9861070      0.3864275      0.2922132
 Standard basis: 6-31G(d) (6D, 7F)
 Integral buffers will be    131072 words long.
 Raffenetti 1 integral format.
 Two-electron integral symmetry is turned off.
   209 basis functions,   408 primitive gaussians,   209 cartesian basis functions
    54 alpha electrons       54 beta electrons
       nuclear repulsion energy       919.5006037140 Hartrees.
 NAtoms=   18 NActive=   18 NUniq=   18 SFac= 7.50D-01 NAtFMM=   80 NAOKFM=F Big=F
 One-electron integrals computed using PRISM.
 NBasis=   209 RedAO= T  NBF=   209
 NBsUse=   209 1.00D-06 NBFU=   209
 Initial guess read from the read-write file.
 B after Tr=     0.000000    0.000000    0.000000
         Rot=    1.000000    0.000000    0.000000    0.000000 Ang=   0.00 deg.
 Requested convergence on RMS density matrix=1.00D-08 within 128 cycles.
 Requested convergence on MAX density matrix=1.00D-06.
 Requested convergence on             energy=1.00D-06.
 No special actions if energy rises.
 SCF Done:  E(RHF) =  -1154.68475342     A.U. after    8 cycles
             Convg  =    0.5415D-08             -V/T =  2.0018
 Calling FoFJK, ICntrl=      2127 FMM=F ISym2X=0 I1Cent= 0 IOpClX= 0 NMat=1 NMatS=1 NMatT=0.
 -------------------------------------------------------------------
 Center     Atomic                   Forces (Hartrees/Bohr)
 Number     Number              X              Y              Z
 -------------------------------------------------------------------
      1        9           0.000000000    0.000000000    0.000000000
      2        6           0.000000000    0.000000000    0.000000000
      3        6           0.000000000    0.000000000    0.000000000
      4        6           0.000000000    0.000000000    0.000000000
      5        6           0.000000000    0.000000000    0.000000000
      6        9           0.000000000    0.000000000    0.000000000
      7        9           0.000000000    0.000000000    0.000000000
      8        9           0.000000000    0.000000000    0.000000000
      9        6           0.000000000    0.000000000    0.000000000
     10        7           0.000000000    0.000000000    0.000000000
     11        6           0.000000000    0.000000000    0.000000000
     12       16           0.000000000    0.000000000    0.000000000
     13        1           0.000000000    0.000000000    0.000000000
     14        1           0.000000000    0.000000000    0.000000000
     15        1           0.000000000    0.000000000    0.000000000
     16        8          -0.002098842   -0.018232371   -0.000065242
     17        1          -0.001037067    0.008825665    0.003764083
     18        1           0.005998522    0.008284228   -0.004252431
 -------------------------------------------------------------------
 Cartesian Forces:  Max     0.018232371 RMS     0.003199128
 -----------------------------------------------------------------------------------------------
                       Internal Coordinate Forces (Hartree/Bohr or radian)
  Cent   Atom   N1       Length/X         N2         Alpha/Y        N3         Beta/Z          J
 -----------------------------------------------------------------------------------------------
      1  F 
      2  C 
      3  C 
      4  C 
      5  C 
      6  F 
      7  F 
      8  F 
      9  C 
     10  N 
     11  C 
     12  S 
     13  H 
     14  H 
     15  H 
         X       15   0.000000(     1)     10   0.004657(     6)      9   0.001532(    11)     0
         X       16   0.000000(     2)     15   0.000000(     7)     10   0.000201(    12)     0
     16  O       15  -0.000314(     3)     16   0.004657(     8)     17  -0.000201(    13)     0
     17  H       18  -0.009392(     4)     15  -0.003707(     9)     16  -0.001216(    14)     0
     18  H       18  -0.009426(     5)     15  -0.009933(    10)     16   0.002748(    15)     0
 -----------------------------------------------------------------------------------------------
 Internal  Forces:  Max     0.009932791 RMS     0.004791644

 GradGradGradGradGradGradGradGradGradGradGradGradGradGradGradGradGradGrad
 Berny optimization.
 Search for a local minimum.
 Step number   2 out of a maximum of   20
 All quantities printed in internal units (Hartrees-Bohrs-Radians)
 Update second derivatives using D2CorN and points    1    2
 DE= -3.49D-06 DEPred=-2.03D-06 R= 1.72D+00
 SS=  1.41D+00  RLast= 9.29D-03 DXNew= 5.0454D-01 2.7862D-02
 Trust test= 1.72D+00 RLast= 9.29D-03 DXMaxT set to 3.00D-01
 The second derivative matrix:
                          RX       RDUM       ROH      ADUM      AHOA
           RX           0.01321
           RDUM         0.00000   0.00000
           ROH          0.00111   0.00000   1.12160
           ADUM         0.00004   0.00000   0.00000   1.00452
           AHOA        -0.00296   0.00000   0.00000   0.00000   0.96000
           DOH          0.00045   0.00000   0.00000   0.00000   0.00000
           DD1          0.00001   0.00000   0.00000   0.00227   0.00000
           DD2         -0.00001   0.00000   0.00000  -0.00227   0.00000
           DH1         -0.00016   0.00000   0.00000   0.01128   0.00000
           DH2          0.00061   0.00000   0.00000  -0.01128   0.00000
                          DOH       DD1       DD2       DH1       DH2
           DOH          0.00000
           DD1          0.00000   0.31758
           DD2          0.00000  -0.31758   0.31758
           DH1          0.00000   0.00564  -0.00564   0.02814
           DH2          0.00000  -0.00564   0.00564  -0.02814   0.02814
     Eigenvalues ---    0.013211000.000001000.000001000.000001000.00000
     Eigenvalues --- 1000.000001000.000001000.000001000.000001000.00000
 RFO step:  Lambda= 0.00000000D+00 EMin= 1.32130696D-02
 Quartic linear search produced a step of  2.00000.
 Variable       Old X    -DE/DX   Delta X   Delta X   Delta X     New X
                                 (Linear)    (Quad)   (Total)
    RX        3.67114  -0.00031  -0.01857   0.00000  -0.01857   3.65257
   RDUM       1.88973   0.00000   0.00000   0.00000   0.00000   1.88973
   ROH        1.80885  -0.01882   0.00000   0.00000   0.00000   1.80885
   ADUM       1.57080   0.00931   0.00000   0.00000   0.00000   1.57080
   AHOA       2.22948  -0.01364   0.00000   0.00000   0.00000   2.22948
   DOH        3.14159   0.00153   0.00000   0.00000   0.00000   3.14159
   DD1        0.00000   0.00020   0.00000   0.00000   0.00000   0.00000
   DD2        3.14159  -0.00020   0.00000   0.00000   0.00000   3.14159
   DH1        2.35619  -0.00122   0.00000   0.00000   0.00000   2.35619
   DH2       -0.78540   0.00275   0.00000   0.00000   0.00000  -0.78540
         Item               Value     Threshold  Converged?
 Maximum Force            0.000314     0.000450     YES
 RMS     Force            0.000314     0.000300     NO 
 Maximum Displacement     0.018574     0.001800     NO 
 RMS     Displacement     0.005874     0.001200     NO 
 Predicted change in Energy=-3.554153D-06
 GradGradGradGradGradGradGradGradGradGradGradGradGradGradGradGradGradGrad

 ---------------------------------------------------------------------------------------------------
                            Z-MATRIX (ANGSTROMS AND DEGREES)
   CD    Cent   Atom    N1       Length/X        N2       Alpha/Y        N3        Beta/Z          J
 ---------------------------------------------------------------------------------------------------
      1      1  F       -1  -1.969300          2.053680          0.000070
      2      2  C       -1  -1.222250          0.944230          0.000030
      3      3  C       -1   0.140030          1.057400         -0.000020
      4      4  C       -1   0.927950         -0.123640         -0.000080
      5      5  C       -1   2.414660         -0.018650         -0.000010
      6      6  F       -1   3.007080         -1.234610         -0.000560
      7      7  F       -1   2.858290          0.654480         -1.086020
      8      8  F       -1   2.858270          0.653500          1.086650
      9      9  C       -1   0.306540         -1.341490         -0.000090
     10     10  N       -1  -1.054170         -1.389970         -0.000060
     11     11  C       -1  -1.930500         -0.312100          0.000000
     12     12  S       -1  -3.570980         -0.506610          0.000030
     13     13  H       -1   0.596860          2.043100         -0.000020
     14     14  H       -1   0.831760         -2.288990         -0.000150
     15     15  H       -1  -1.521480         -2.296390         -0.000090
     16         X       15   1.000000(    15)     10   90.000(    33)      9  180.000(    50)      0
     17         X       16   1.000000(    16)     15   90.000(    34)     10    0.000(    51)      0
     18     16  O       15   1.932856(    17)     16   90.000(    35)     17  180.000(    52)      0
     19     17  H       18   0.957200(    18)     15  127.740(    36)     16  135.000(    53)      0
     20     18  H       18   0.957200(    19)     15  127.740(    37)     16  -45.000(    54)      0
 ---------------------------------------------------------------------------------------------------
                         Z-Matrix orientation:                         
 ---------------------------------------------------------------------
 Center     Atomic      Atomic             Coordinates (Angstroms)
 Number     Number       Type             X           Y           Z
 ---------------------------------------------------------------------
      1          9           0       -1.969300    2.053680    0.000070
      2          6           0       -1.222250    0.944230    0.000030
      3          6           0        0.140030    1.057400   -0.000020
      4          6           0        0.927950   -0.123640   -0.000080
      5          6           0        2.414660   -0.018650   -0.000010
      6          9           0        3.007080   -1.234610   -0.000560
      7          9           0        2.858290    0.654480   -1.086020
      8          9           0        2.858270    0.653500    1.086650
      9          6           0        0.306540   -1.341490   -0.000090
     10          7           0       -1.054170   -1.389970   -0.000060
     11          6           0       -1.930500   -0.312100    0.000000
     12         16           0       -3.570980   -0.506610    0.000030
     13          1           0        0.596860    2.043100   -0.000020
     14          1           0        0.831760   -2.288990   -0.000150
     15          1           0       -1.521480   -2.296390   -0.000090
     16         -1           0       -2.410308   -1.838150   -0.000048
     17         -1           0       -1.952068   -0.949321   -0.000019
     18          8           0       -2.407193   -4.014367   -0.000147
     19          1           0       -2.199940   -4.780362   -0.535431
     20          1           0       -3.151396   -4.289869    0.535103
 ---------------------------------------------------------------------
                    Distance matrix (angstroms):
                    1          2          3          4          5
     1  F    0.000000
     2  C    1.337521   0.000000
     3  C    2.332777   1.366973   0.000000
     4  C    3.624194   2.400772   1.419744   0.000000
     5  C    4.849088   3.762214   2.516312   1.490413   0.000000
     6  F    5.964663   4.757581   3.670597   2.357337   1.352598
     7  F    5.142274   4.232525   2.954772   2.347541   1.352527
     8  F    5.142625   4.232719   2.955134   2.347566   1.352555
     9  C    4.087374   2.749857   2.404662   1.367227   2.488790
    10  N    3.563171   2.340244   2.723184   2.352104   3.730054
    11  C    2.366098   1.442215   2.482463   2.864656   4.355058
    12  S    3.020011   2.760701   4.027123   4.515201   6.005497
    13  H    2.566182   2.125247   1.086415   2.191890   2.748674
    14  H    5.167661   3.830492   3.417136   2.167485   2.767673
    15  H    4.373060   3.254406   3.742796   3.274225   4.547669
    16  X    3.916737   3.025412   3.858553   3.752800   5.156636
    17  X    3.003051   2.029328   2.898931   2.996039   4.464802
    18  O    6.083827   5.098213   5.675488   5.124543   6.262270
    19  H    6.858870   5.832114   6.312020   5.635190   6.652452
    20  H    6.474892   5.603901   6.301836   5.855335   7.036380
                    6          7          8          9         10
     6  F    0.000000
     7  F    2.183809   0.000000
     8  F    2.183834   2.172670   0.000000
     9  C    2.702654   3.416807   3.416477   0.000000
    10  N    4.064221   4.546034   4.545756   1.361573   0.000000
    11  C    5.023019   5.004620   5.004549   2.462517   1.389157
    12  S    6.618222   6.622926   6.622828   3.966382   2.667332
    13  H    4.068482   2.867355   2.868068   3.397019   3.809445
    14  H    2.417382   3.734964   3.734451   1.083334   2.089251
    15  H    4.651369   5.391592   5.391203   2.062399   1.019792
    16  X    5.450904   5.928800   5.928503   2.761872   1.428277
    17  X    4.967347   5.185665   5.185483   2.292402   1.000196
    18  O    6.086165   7.120573   7.120057   3.809018   2.952648
    19  H    6.322302   7.444888   7.598914   4.288925   3.618587
    20  H    6.895533   7.949274   7.801102   4.575663   3.618587
                   11         12         13         14         15
    11  C    0.000000
    12  S    1.651971   0.000000
    13  H    3.454637   4.885889   0.000000
    14  H    3.396789   4.749842   4.338454   0.000000
    15  H    2.026007   2.720986   4.828927   2.353252   0.000000
    16  X    1.599701   1.766396   4.909904   3.273265   1.000000
    17  X    0.637586   1.678353   3.930855   3.089403   1.414214
    18  O    3.732830   3.695776   6.761453   3.669842   1.932856
    19  H    4.508287   4.520114   7.393808   3.960387   2.630022
    20  H    4.195184   3.843879   7.378501   4.489493   2.630022
                   16         17         18         19         20
    16  X    0.000000
    17  X    1.000000   0.000000
    18  O    2.176220   3.098652   0.000000
    19  H    2.997917   3.876207   0.957200   0.000000
    20  H    2.616587   3.589430   0.957200   1.513901   0.000000
 Symmetry turned off by external request.
 Stoichiometry    C6H5F4NOS
 Framework group  C1[X(C6H5F4NOS)]
 Deg. of freedom    48
 Full point group                 C1      NOp   1
 Rotational constants (GHZ):      0.9878047      0.3866253      0.2924754
 Standard basis: 6-31G(d) (6D, 7F)
 Integral buffers will be    131072 words long.
 Raffenetti 1 integral format.
 Two-electron integral symmetry is turned off.
   209 basis functions,   408 primitive gaussians,   209 cartesian basis functions
    54 alpha electrons       54 beta electrons
       nuclear repulsion energy       919.7132365878 Hartrees.
 NAtoms=   18 NActive=   18 NUniq=   18 SFac= 7.50D-01 NAtFMM=   80 NAOKFM=F Big=F
 One-electron integrals computed using PRISM.
 NBasis=   209 RedAO= T  NBF=   209
 NBsUse=   209 1.00D-06 NBFU=   209
 Initial guess read from the read-write file.
 B after Tr=     0.000000    0.000000    0.000000
         Rot=    1.000000    0.000000    0.000000    0.000000 Ang=   0.00 deg.
 Requested convergence on RMS density matrix=1.00D-08 within 128 cycles.
 Requested convergence on MAX density matrix=1.00D-06.
 Requested convergence on             energy=1.00D-06.
 No special actions if energy rises.
 SCF Done:  E(RHF) =  -1154.68475691     A.U. after    9 cycles
             Convg  =    0.4234D-08             -V/T =  2.0018
 Calling FoFJK, ICntrl=      2127 FMM=F ISym2X=0 I1Cent= 0 IOpClX= 0 NMat=1 NMatS=1 NMatT=0.
 -------------------------------------------------------------------
 Center     Atomic                   Forces (Hartrees/Bohr)
 Number     Number              X              Y              Z
 -------------------------------------------------------------------
      1        9           0.000000000    0.000000000    0.000000000
      2        6           0.000000000    0.000000000    0.000000000
      3        6           0.000000000    0.000000000    0.000000000
      4        6           0.000000000    0.000000000    0.000000000
      5        6           0.000000000    0.000000000    0.000000000
      6        9           0.000000000    0.000000000    0.000000000
      7        9           0.000000000    0.000000000    0.000000000
      8        9           0.000000000    0.000000000    0.000000000
      9        6           0.000000000    0.000000000    0.000000000
     10        7           0.000000000    0.000000000    0.000000000
     11        6           0.000000000    0.000000000    0.000000000
     12       16           0.000000000    0.000000000    0.000000000
     13        1           0.000000000    0.000000000    0.000000000
     14        1           0.000000000    0.000000000    0.000000000
     15        1           0.000000000    0.000000000    0.000000000
     16        8          -0.002179915   -0.018502812   -0.000067204
     17        1          -0.001020256    0.008821467    0.003741329
     18        1           0.005970083    0.008319864   -0.004233399
 -------------------------------------------------------------------
 Cartesian Forces:  Max     0.018502812 RMS     0.003228206
 -----------------------------------------------------------------------------------------------
                       Internal Coordinate Forces (Hartree/Bohr or radian)
  Cent   Atom   N1       Length/X         N2         Alpha/Y        N3         Beta/Z          J
 -----------------------------------------------------------------------------------------------
      1  F 
      2  C 
      3  C 
      4  C 
      5  C 
      6  F 
      7  F 
      8  F 
      9  C 
     10  N 
     11  C 
     12  S 
     13  H 
     14  H 
     15  H 
         X       15   0.000000(     1)     10   0.004657(     6)      9   0.001549(    11)     0
         X       16   0.000000(     2)     15   0.000000(     7)     10   0.000201(    12)     0
     16  O       15  -0.000059(     3)     16   0.004657(     8)     17  -0.000201(    13)     0
     17  H       18  -0.009372(     4)     15  -0.003744(     9)     16  -0.001222(    14)     0
     18  H       18  -0.009403(     5)     15  -0.010007(    10)     16   0.002771(    15)     0
 -----------------------------------------------------------------------------------------------
 Internal  Forces:  Max     0.010006930 RMS     0.004798986

 GradGradGradGradGradGradGradGradGradGradGradGradGradGradGradGradGradGrad
 Berny optimization.
 Search for a local minimum.
 Step number   3 out of a maximum of   20
 All quantities printed in internal units (Hartrees-Bohrs-Radians)
 Update second derivatives using D2CorN and points    2    3
 DE= -3.49D-06 DEPred=-3.55D-06 R= 9.81D-01
 SS=  1.41D+00  RLast= 1.86D-02 DXNew= 5.0454D-01 5.5723D-02
 Trust test= 9.81D-01 RLast= 1.86D-02 DXMaxT set to 3.00D-01
 The second derivative matrix:
                          RX       RDUM       ROH      ADUM      AHOA
           RX           0.01372
           RDUM         0.00000   0.00000
           ROH          0.00169   0.00000   1.12160
           ADUM         0.00002   0.00000   0.00000   1.00452
           AHOA        -0.00446   0.00000   0.00000   0.00000   0.96000
           DOH          0.00068   0.00000   0.00000   0.00000   0.00000
           DD1          0.00001   0.00000   0.00000   0.00227   0.00000
           DD2         -0.00001   0.00000   0.00000  -0.00227   0.00000
           DH1         -0.00024   0.00000   0.00000   0.01128   0.00000
           DH2          0.00092   0.00000   0.00000  -0.01128   0.00000
                          DOH       DD1       DD2       DH1       DH2
           DOH          0.00000
           DD1          0.00000   0.31758
           DD2          0.00000  -0.31758   0.31758
           DH1          0.00000   0.00564  -0.00564   0.02814
           DH2          0.00000  -0.00564   0.00564  -0.02814   0.02814
     Eigenvalues ---    0.013721000.000001000.000001000.000001000.00000
     Eigenvalues --- 1000.000001000.000001000.000001000.000001000.00000
 RFO step:  Lambda= 0.00000000D+00 EMin= 1.37238724D-02
 Quartic linear search produced a step of  0.22504.
 Variable       Old X    -DE/DX   Delta X   Delta X   Delta X     New X
                                 (Linear)    (Quad)   (Total)
    RX        3.65257  -0.00006  -0.00418   0.00000  -0.00418   3.64839
   RDUM       1.88973   0.00000   0.00000   0.00000   0.00000   1.88973
   ROH        1.80885  -0.01878   0.00000   0.00000   0.00000   1.80885
   ADUM       1.57080   0.00931   0.00000   0.00000   0.00000   1.57080
   AHOA       2.22948  -0.01375   0.00000   0.00000   0.00000   2.22948
   DOH        3.14159   0.00155   0.00000   0.00000   0.00000   3.14159
   DD1        0.00000   0.00020   0.00000   0.00000   0.00000   0.00000
   DD2        3.14159  -0.00020   0.00000   0.00000   0.00000   3.14159
   DH1        2.35619  -0.00122   0.00000   0.00000   0.00000   2.35619
   DH2       -0.78540   0.00277   0.00000   0.00000   0.00000  -0.78540
         Item               Value     Threshold  Converged?
 Maximum Force            0.000059     0.000450     YES
 RMS     Force            0.000059     0.000300     YES
 Maximum Displacement     0.004180     0.001800     NO 
 RMS     Displacement     0.001322     0.001200     NO 
 Predicted change in Energy=-1.273324D-07
 GradGradGradGradGradGradGradGradGradGradGradGradGradGradGradGradGradGrad

 ---------------------------------------------------------------------------------------------------
                            Z-MATRIX (ANGSTROMS AND DEGREES)
   CD    Cent   Atom    N1       Length/X        N2       Alpha/Y        N3        Beta/Z          J
 ---------------------------------------------------------------------------------------------------
      1      1  F       -1  -1.969300          2.053680          0.000070
      2      2  C       -1  -1.222250          0.944230          0.000030
      3      3  C       -1   0.140030          1.057400         -0.000020
      4      4  C       -1   0.927950         -0.123640         -0.000080
      5      5  C       -1   2.414660         -0.018650         -0.000010
      6      6  F       -1   3.007080         -1.234610         -0.000560
      7      7  F       -1   2.858290          0.654480         -1.086020
      8      8  F       -1   2.858270          0.653500          1.086650
      9      9  C       -1   0.306540         -1.341490         -0.000090
     10     10  N       -1  -1.054170         -1.389970         -0.000060
     11     11  C       -1  -1.930500         -0.312100          0.000000
     12     12  S       -1  -3.570980         -0.506610          0.000030
     13     13  H       -1   0.596860          2.043100         -0.000020
     14     14  H       -1   0.831760         -2.288990         -0.000150
     15     15  H       -1  -1.521480         -2.296390         -0.000090
     16         X       15   1.000000(    15)     10   90.000(    33)      9  180.000(    50)      0
     17         X       16   1.000000(    16)     15   90.000(    34)     10    0.000(    51)      0
     18     16  O       15   1.930644(    17)     16   90.000(    35)     17  180.000(    52)      0
     19     17  H       18   0.957200(    18)     15  127.740(    36)     16  135.000(    53)      0
     20     18  H       18   0.957200(    19)     15  127.740(    37)     16  -45.000(    54)      0
 ---------------------------------------------------------------------------------------------------
                         Z-Matrix orientation:                         
 ---------------------------------------------------------------------
 Center     Atomic      Atomic             Coordinates (Angstroms)
 Number     Number       Type             X           Y           Z
 ---------------------------------------------------------------------
      1          9           0       -1.969300    2.053680    0.000070
      2          6           0       -1.222250    0.944230    0.000030
      3          6           0        0.140030    1.057400   -0.000020
      4          6           0        0.927950   -0.123640   -0.000080
      5          6           0        2.414660   -0.018650   -0.000010
      6          9           0        3.007080   -1.234610   -0.000560
      7          9           0        2.858290    0.654480   -1.086020
      8          9           0        2.858270    0.653500    1.086650
      9          6           0        0.306540   -1.341490   -0.000090
     10          7           0       -1.054170   -1.389970   -0.000060
     11          6           0       -1.930500   -0.312100    0.000000
     12         16           0       -3.570980   -0.506610    0.000030
     13          1           0        0.596860    2.043100   -0.000020
     14          1           0        0.831760   -2.288990   -0.000150
     15          1           0       -1.521480   -2.296390   -0.000090
     16         -1           0       -2.410308   -1.838150   -0.000048
     17         -1           0       -1.952068   -0.949321   -0.000019
     18          8           0       -2.406179   -4.012401   -0.000147
     19          1           0       -2.198926   -4.778396   -0.535431
     20          1           0       -3.150382   -4.287903    0.535103
 ---------------------------------------------------------------------
                    Distance matrix (angstroms):
                    1          2          3          4          5
     1  F    0.000000
     2  C    1.337521   0.000000
     3  C    2.332777   1.366973   0.000000
     4  C    3.624194   2.400772   1.419744   0.000000
     5  C    4.849088   3.762214   2.516312   1.490413   0.000000
     6  F    5.964663   4.757581   3.670597   2.357337   1.352598
     7  F    5.142274   4.232525   2.954772   2.347541   1.352527
     8  F    5.142625   4.232719   2.955134   2.347566   1.352555
     9  C    4.087374   2.749857   2.404662   1.367227   2.488790
    10  N    3.563171   2.340244   2.723184   2.352104   3.730054
    11  C    2.366098   1.442215   2.482463   2.864656   4.355058
    12  S    3.020011   2.760701   4.027123   4.515201   6.005497
    13  H    2.566182   2.125247   1.086415   2.191890   2.748674
    14  H    5.167661   3.830492   3.417136   2.167485   2.767673
    15  H    4.373060   3.254406   3.742796   3.274225   4.547669
    16  X    3.916737   3.025412   3.858553   3.752800   5.156636
    17  X    3.003051   2.029328   2.898931   2.996039   4.464802
    18  O    6.081793   5.096065   5.673276   5.122390   6.260235
    19  H    6.856877   5.830014   6.309826   5.633002   6.650341
    20  H    6.472781   5.601715   6.299638   5.853230   7.034384
                    6          7          8          9         10
     6  F    0.000000
     7  F    2.183809   0.000000
     8  F    2.183834   2.172670   0.000000
     9  C    2.702654   3.416807   3.416477   0.000000
    10  N    4.064221   4.546034   4.545756   1.361573   0.000000
    11  C    5.023019   5.004620   5.004549   2.462517   1.389157
    12  S    6.618222   6.622926   6.622828   3.966382   2.667332
    13  H    4.068482   2.867355   2.868068   3.397019   3.809445
    14  H    2.417382   3.734964   3.734451   1.083334   2.089251
    15  H    4.651369   5.391592   5.391203   2.062399   1.019792
    16  X    5.450904   5.928800   5.928503   2.761872   1.428277
    17  X    4.967347   5.185665   5.185483   2.292402   1.000196
    18  O    6.084365   7.118535   7.118018   3.806916   2.950436
    19  H    6.320365   7.442764   7.596834   4.286756   3.616424
    20  H    6.893756   7.947285   7.799075   4.573630   3.616424
                   11         12         13         14         15
    11  C    0.000000
    12  S    1.651971   0.000000
    13  H    3.454637   4.885889   0.000000
    14  H    3.396789   4.749842   4.338454   0.000000
    15  H    2.026007   2.720986   4.828927   2.353252   0.000000
    16  X    1.599701   1.766396   4.909904   3.273265   1.000000
    17  X    0.637586   1.678353   3.930855   3.089403   1.414214
    18  O    3.730751   3.694230   6.759241   3.668024   1.930644
    19  H    4.506278   4.518563   7.391610   3.958375   2.627904
    20  H    4.193025   3.842055   7.376299   4.487717   2.627904
                   16         17         18         19         20
    16  X    0.000000
    17  X    1.000000   0.000000
    18  O    2.174256   3.096559   0.000000
    19  H    2.996059   3.874200   0.957200   0.000000
    20  H    2.614458   3.587261   0.957200   1.513901   0.000000
 Symmetry turned off by external request.
 Stoichiometry    C6H5F4NOS
 Framework group  C1[X(C6H5F4NOS)]
 Deg. of freedom    48
 Full point group                 C1      NOp   1
 Rotational constants (GHZ):      0.9881875      0.3866698      0.2925344
 Standard basis: 6-31G(d) (6D, 7F)
 Integral buffers will be    131072 words long.
 Raffenetti 1 integral format.
 Two-electron integral symmetry is turned off.
   209 basis functions,   408 primitive gaussians,   209 cartesian basis functions
    54 alpha electrons       54 beta electrons
       nuclear repulsion energy       919.7612068825 Hartrees.
 NAtoms=   18 NActive=   18 NUniq=   18 SFac= 7.50D-01 NAtFMM=   80 NAOKFM=F Big=F
 One-electron integrals computed using PRISM.
 NBasis=   209 RedAO= T  NBF=   209
 NBsUse=   209 1.00D-06 NBFU=   209
 Initial guess read from the read-write file.
 B after Tr=     0.000000    0.000000    0.000000
         Rot=    1.000000    0.000000    0.000000    0.000000 Ang=   0.00 deg.
 Requested convergence on RMS density matrix=1.00D-08 within 128 cycles.
 Requested convergence on MAX density matrix=1.00D-06.
 Requested convergence on             energy=1.00D-06.
 No special actions if energy rises.
 SCF Done:  E(RHF) =  -1154.68475703     A.U. after    8 cycles
             Convg  =    0.2466D-08             -V/T =  2.0018
 Calling FoFJK, ICntrl=      2127 FMM=F ISym2X=0 I1Cent= 0 IOpClX= 0 NMat=1 NMatS=1 NMatT=0.
 -------------------------------------------------------------------
 Center     Atomic                   Forces (Hartrees/Bohr)
 Number     Number              X              Y              Z
 -------------------------------------------------------------------
      1        9           0.000000000    0.000000000    0.000000000
      2        6           0.000000000    0.000000000    0.000000000
      3        6           0.000000000    0.000000000    0.000000000
      4        6           0.000000000    0.000000000    0.000000000
      5        6           0.000000000    0.000000000    0.000000000
      6        9           0.000000000    0.000000000    0.000000000
      7        9           0.000000000    0.000000000    0.000000000
      8        9           0.000000000    0.000000000    0.000000000
      9        6           0.000000000    0.000000000    0.000000000
     10        7           0.000000000    0.000000000    0.000000000
     11        6           0.000000000    0.000000000    0.000000000
     12       16           0.000000000    0.000000000    0.000000000
     13        1           0.000000000    0.000000000    0.000000000
     14        1           0.000000000    0.000000000    0.000000000
     15        1           0.000000000    0.000000000    0.000000000
     16        8          -0.002198933   -0.018565265   -0.000067637
     17        1          -0.001016425    0.008820492    0.003736141
     18        1           0.005963601    0.008327916   -0.004229063
 -------------------------------------------------------------------
 Cartesian Forces:  Max     0.018565265 RMS     0.003234953
 -----------------------------------------------------------------------------------------------
                       Internal Coordinate Forces (Hartree/Bohr or radian)
  Cent   Atom   N1       Length/X         N2         Alpha/Y        N3         Beta/Z          J
 -----------------------------------------------------------------------------------------------
      1  F 
      2  C 
      3  C 
      4  C 
      5  C 
      6  F 
      7  F 
      8  F 
      9  C 
     10  N 
     11  C 
     12  S 
     13  H 
     14  H 
     15  H 
         X       15   0.000000(     1)     10   0.004657(     6)      9   0.001553(    11)     0
         X       16   0.000000(     2)     15   0.000000(     7)     10   0.000201(    12)     0
     16  O       15   0.000000(     3)     16   0.004657(     8)     17  -0.000201(    13)     0
     17  H       18  -0.009368(     4)     15  -0.003752(     9)     16  -0.001224(    14)     0
     18  H       18  -0.009398(     5)     15  -0.010024(    10)     16   0.002776(    15)     0
 -----------------------------------------------------------------------------------------------
 Internal  Forces:  Max     0.010023712 RMS     0.004800762

 GradGradGradGradGradGradGradGradGradGradGradGradGradGradGradGradGradGrad
 Berny optimization.
 Search for a local minimum.
 Step number   4 out of a maximum of   20
 All quantities printed in internal units (Hartrees-Bohrs-Radians)
 Update second derivatives using D2CorN and points    3    4
 DE= -1.24D-07 DEPred=-1.27D-07 R= 9.73D-01
 Trust test= 9.73D-01 RLast= 4.18D-03 DXMaxT set to 3.00D-01
 The second derivative matrix:
                          RX       RDUM       ROH      ADUM      AHOA
           RX           0.01415
           RDUM         0.00000   0.00000
           ROH          0.00200   0.00000   1.12160
           ADUM        -0.00002   0.00000   0.00000   1.00452
           AHOA        -0.00524   0.00000   0.00000   0.00000   0.96000
           DOH          0.00080   0.00000   0.00000   0.00000   0.00000
           DD1          0.00001   0.00000   0.00000   0.00227   0.00000
           DD2         -0.00001   0.00000   0.00000  -0.00227   0.00000
           DH1         -0.00028   0.00000   0.00000   0.01128   0.00000
           DH2          0.00108   0.00000   0.00000  -0.01128   0.00000
                          DOH       DD1       DD2       DH1       DH2
           DOH          0.00000
           DD1          0.00000   0.31758
           DD2          0.00000  -0.31758   0.31758
           DH1          0.00000   0.00564  -0.00564   0.02814
           DH2          0.00000  -0.00564   0.00564  -0.02814   0.02814
     Eigenvalues ---    0.014151000.000001000.000001000.000001000.00000
     Eigenvalues --- 1000.000001000.000001000.000001000.000001000.00000
 RFO step:  Lambda= 0.00000000D+00 EMin= 1.41500287D-02
 Quartic linear search produced a step of -0.00005.
 Variable       Old X    -DE/DX   Delta X   Delta X   Delta X     New X
                                 (Linear)    (Quad)   (Total)
    RX        3.64839   0.00000   0.00000   0.00000   0.00000   3.64839
   RDUM       1.88973   0.00000   0.00000   0.00000   0.00000   1.88973
   ROH        1.80885  -0.01877   0.00000   0.00000   0.00000   1.80885
   ADUM       1.57080   0.00931   0.00000   0.00000   0.00000   1.57080
   AHOA       2.22948  -0.01378   0.00000   0.00000   0.00000   2.22948
   DOH        3.14159   0.00155   0.00000   0.00000   0.00000   3.14159
   DD1        0.00000   0.00020   0.00000   0.00000   0.00000   0.00000
   DD2        3.14159  -0.00020   0.00000   0.00000   0.00000   3.14159
   DH1        2.35619  -0.00122   0.00000   0.00000   0.00000   2.35619
   DH2       -0.78540   0.00278   0.00000   0.00000   0.00000  -0.78540
         Item               Value     Threshold  Converged?
 Maximum Force            0.000000     0.000450     YES
 RMS     Force            0.000000     0.000300     YES
 Maximum Displacement     0.000000     0.001800     YES
 RMS     Displacement     0.000000     0.001200     YES
 Predicted change in Energy=-2.690572D-16
 Optimization completed.
    -- Stationary point found.
                       ----------------------------
                       !   Optimized Parameters   !
                       ! (Angstroms and Degrees)  !
 ----------------------                            ----------------------
 !      Name          Value   Derivative information (Atomic Units)     !
 ------------------------------------------------------------------------
 !       RX          1.9306   -DE/DX =    0.0                           !
 !      RDUM         1.0      -DE/DX =    0.0                           !
 !       ROH         0.9572   -DE/DX =   -0.0188                        !
 !      ADUM        90.0      -DE/DX =    0.0093                        !
 !      AHOA       127.74     -DE/DX =   -0.0138                        !
 !       DOH       180.0      -DE/DX =    0.0016                        !
 !       DD1         0.0      -DE/DX =    0.0002                        !
 !       DD2       180.0      -DE/DX =   -0.0002                        !
 !       DH1       135.0      -DE/DX =   -0.0012                        !
 !       DH2       -45.0      -DE/DX =    0.0028                        !
 ------------------------------------------------------------------------
 GradGradGradGradGradGradGradGradGradGradGradGradGradGradGradGradGradGrad

 ---------------------------------------------------------------------------------------------------
                            Z-MATRIX (ANGSTROMS AND DEGREES)
   CD    Cent   Atom    N1       Length/X        N2       Alpha/Y        N3        Beta/Z          J
 ---------------------------------------------------------------------------------------------------
      1      1  F       -1  -1.969300          2.053680          0.000070
      2      2  C       -1  -1.222250          0.944230          0.000030
      3      3  C       -1   0.140030          1.057400         -0.000020
      4      4  C       -1   0.927950         -0.123640         -0.000080
      5      5  C       -1   2.414660         -0.018650         -0.000010
      6      6  F       -1   3.007080         -1.234610         -0.000560
      7      7  F       -1   2.858290          0.654480         -1.086020
      8      8  F       -1   2.858270          0.653500          1.086650
      9      9  C       -1   0.306540         -1.341490         -0.000090
     10     10  N       -1  -1.054170         -1.389970         -0.000060
     11     11  C       -1  -1.930500         -0.312100          0.000000
     12     12  S       -1  -3.570980         -0.506610          0.000030
     13     13  H       -1   0.596860          2.043100         -0.000020
     14     14  H       -1   0.831760         -2.288990         -0.000150
     15     15  H       -1  -1.521480         -2.296390         -0.000090
     16         X       15   1.000000(    15)     10   90.000(    33)      9  180.000(    50)      0
     17         X       16   1.000000(    16)     15   90.000(    34)     10    0.000(    51)      0
     18     16  O       15   1.930644(    17)     16   90.000(    35)     17  180.000(    52)      0
     19     17  H       18   0.957200(    18)     15  127.740(    36)     16  135.000(    53)      0
     20     18  H       18   0.957200(    19)     15  127.740(    37)     16  -45.000(    54)      0
 ---------------------------------------------------------------------------------------------------
                         Z-Matrix orientation:                         
 ---------------------------------------------------------------------
 Center     Atomic      Atomic             Coordinates (Angstroms)
 Number     Number       Type             X           Y           Z
 ---------------------------------------------------------------------
      1          9           0       -1.969300    2.053680    0.000070
      2          6           0       -1.222250    0.944230    0.000030
      3          6           0        0.140030    1.057400   -0.000020
      4          6           0        0.927950   -0.123640   -0.000080
      5          6           0        2.414660   -0.018650   -0.000010
      6          9           0        3.007080   -1.234610   -0.000560
      7          9           0        2.858290    0.654480   -1.086020
      8          9           0        2.858270    0.653500    1.086650
      9          6           0        0.306540   -1.341490   -0.000090
     10          7           0       -1.054170   -1.389970   -0.000060
     11          6           0       -1.930500   -0.312100    0.000000
     12         16           0       -3.570980   -0.506610    0.000030
     13          1           0        0.596860    2.043100   -0.000020
     14          1           0        0.831760   -2.288990   -0.000150
     15          1           0       -1.521480   -2.296390   -0.000090
     16         -1           0       -2.410308   -1.838150   -0.000048
     17         -1           0       -1.952068   -0.949321   -0.000019
     18          8           0       -2.406179   -4.012401   -0.000147
     19          1           0       -2.198926   -4.778396   -0.535431
     20          1           0       -3.150382   -4.287903    0.535103
 ---------------------------------------------------------------------
                    Distance matrix (angstroms):
                    1          2          3          4          5
     1  F    0.000000
     2  C    1.337521   0.000000
     3  C    2.332777   1.366973   0.000000
     4  C    3.624194   2.400772   1.419744   0.000000
     5  C    4.849088   3.762214   2.516312   1.490413   0.000000
     6  F    5.964663   4.757581   3.670597   2.357337   1.352598
     7  F    5.142274   4.232525   2.954772   2.347541   1.352527
     8  F    5.142625   4.232719   2.955134   2.347566   1.352555
     9  C    4.087374   2.749857   2.404662   1.367227   2.488790
    10  N    3.563171   2.340244   2.723184   2.352104   3.730054
    11  C    2.366098   1.442215   2.482463   2.864656   4.355058
    12  S    3.020011   2.760701   4.027123   4.515201   6.005497
    13  H    2.566182   2.125247   1.086415   2.191890   2.748674
    14  H    5.167661   3.830492   3.417136   2.167485   2.767673
    15  H    4.373060   3.254406   3.742796   3.274225   4.547669
    16  X    3.916737   3.025412   3.858553   3.752800   5.156636
    17  X    3.003051   2.029328   2.898931   2.996039   4.464802
    18  O    6.081793   5.096065   5.673276   5.122390   6.260235
    19  H    6.856877   5.830014   6.309826   5.633002   6.650341
    20  H    6.472781   5.601715   6.299638   5.853230   7.034384
                    6          7          8          9         10
     6  F    0.000000
     7  F    2.183809   0.000000
     8  F    2.183834   2.172670   0.000000
     9  C    2.702654   3.416807   3.416477   0.000000
    10  N    4.064221   4.546034   4.545756   1.361573   0.000000
    11  C    5.023019   5.004620   5.004549   2.462517   1.389157
    12  S    6.618222   6.622926   6.622828   3.966382   2.667332
    13  H    4.068482   2.867355   2.868068   3.397019   3.809445
    14  H    2.417382   3.734964   3.734451   1.083334   2.089251
    15  H    4.651369   5.391592   5.391203   2.062399   1.019792
    16  X    5.450904   5.928800   5.928503   2.761872   1.428277
    17  X    4.967347   5.185665   5.185483   2.292402   1.000196
    18  O    6.084365   7.118535   7.118018   3.806916   2.950436
    19  H    6.320365   7.442764   7.596834   4.286756   3.616424
    20  H    6.893756   7.947285   7.799075   4.573630   3.616424
                   11         12         13         14         15
    11  C    0.000000
    12  S    1.651971   0.000000
    13  H    3.454637   4.885889   0.000000
    14  H    3.396789   4.749842   4.338454   0.000000
    15  H    2.026007   2.720986   4.828927   2.353252   0.000000
    16  X    1.599701   1.766396   4.909904   3.273265   1.000000
    17  X    0.637586   1.678353   3.930855   3.089403   1.414214
    18  O    3.730751   3.694230   6.759241   3.668024   1.930644
    19  H    4.506278   4.518563   7.391610   3.958375   2.627904
    20  H    4.193025   3.842055   7.376299   4.487717   2.627904
                   16         17         18         19         20
    16  X    0.000000
    17  X    1.000000   0.000000
    18  O    2.174256   3.096559   0.000000
    19  H    2.996059   3.874200   0.957200   0.000000
    20  H    2.614458   3.587261   0.957200   1.513901   0.000000
 Symmetry turned off by external request.
 Stoichiometry    C6H5F4NOS
 Framework group  C1[X(C6H5F4NOS)]
 Deg. of freedom    48
 Full point group                 C1      NOp   1
 Rotational constants (GHZ):      0.9881875      0.3866698      0.2925344

 **********************************************************************

            Population analysis using the SCF density.

 **********************************************************************

 Alpha  occ. eigenvalues --  -91.88663 -26.35847 -26.34890 -26.34884 -26.32132
 Alpha  occ. eigenvalues --  -20.60221 -15.66040 -11.53051 -11.36090 -11.35660
 Alpha  occ. eigenvalues --  -11.34467 -11.29827 -11.28784  -8.89777  -6.58114
 Alpha  occ. eigenvalues --   -6.57835  -6.57708  -1.73086  -1.64105  -1.63416
 Alpha  occ. eigenvalues --   -1.63406  -1.38342  -1.33355  -1.15564  -1.10391
 Alpha  occ. eigenvalues --   -1.01583  -0.95639  -0.91125  -0.86583  -0.83494
 Alpha  occ. eigenvalues --   -0.82627  -0.82331  -0.75425  -0.74680  -0.74474
 Alpha  occ. eigenvalues --   -0.72418  -0.71271  -0.70505  -0.70023  -0.68908
 Alpha  occ. eigenvalues --   -0.66523  -0.66511  -0.65109  -0.62674  -0.61864
 Alpha  occ. eigenvalues --   -0.60470  -0.59215  -0.57563  -0.53979  -0.50897
 Alpha  occ. eigenvalues --   -0.44941  -0.41627  -0.32363  -0.29424
 Alpha virt. eigenvalues --    0.06147   0.10240   0.17449   0.22623   0.26433
 Alpha virt. eigenvalues --    0.27172   0.27809   0.28069   0.31044   0.32629
 Alpha virt. eigenvalues --    0.35418   0.40038   0.41859   0.42173   0.44162
 Alpha virt. eigenvalues --    0.44574   0.48383   0.51246   0.55645   0.57000
 Alpha virt. eigenvalues --    0.58074   0.61181   0.63154   0.65847   0.68127
 Alpha virt. eigenvalues --    0.69115   0.73424   0.74457   0.74976   0.76898
 Alpha virt. eigenvalues --    0.78619   0.79545   0.84667   0.85957   0.88924
 Alpha virt. eigenvalues --    0.90588   0.91356   0.93545   0.96912   0.98229
 Alpha virt. eigenvalues --    1.02219   1.03516   1.04819   1.05982   1.09262
 Alpha virt. eigenvalues --    1.10901   1.12260   1.14351   1.14427   1.16333
 Alpha virt. eigenvalues --    1.17672   1.18886   1.21929   1.26083   1.29591
 Alpha virt. eigenvalues --    1.31203   1.32643   1.33230   1.34572   1.36053
 Alpha virt. eigenvalues --    1.38027   1.40114   1.40467   1.43826   1.44336
 Alpha virt. eigenvalues --    1.45940   1.48752   1.53380   1.56990   1.61672
 Alpha virt. eigenvalues --    1.61974   1.62701   1.65005   1.65501   1.65920
 Alpha virt. eigenvalues --    1.66720   1.68199   1.69189   1.71052   1.71990
 Alpha virt. eigenvalues --    1.74442   1.78008   1.78294   1.82430   1.87924
 Alpha virt. eigenvalues --    1.91048   1.93676   1.95322   1.99251   2.01321
 Alpha virt. eigenvalues --    2.02194   2.06060   2.07423   2.10418   2.11263
 Alpha virt. eigenvalues --    2.13072   2.13368   2.16817   2.19690   2.21736
 Alpha virt. eigenvalues --    2.23862   2.24068   2.25910   2.29546   2.31651
 Alpha virt. eigenvalues --    2.32372   2.33915   2.36028   2.36480   2.37155
 Alpha virt. eigenvalues --    2.40083   2.44145   2.45349   2.47034   2.47493
 Alpha virt. eigenvalues --    2.48799   2.53901   2.58596   2.62298   2.63611
 Alpha virt. eigenvalues --    2.68557   2.70519   2.76522   2.84582   2.85892
 Alpha virt. eigenvalues --    2.86897   2.91006   2.93313   2.94607   2.94935
 Alpha virt. eigenvalues --    3.02032   3.08525   3.11248   3.18773   3.23915
 Alpha virt. eigenvalues --    3.31220   3.38478   3.39536   3.44236   3.45605
 Alpha virt. eigenvalues --    3.50854   3.72990   4.07417   4.40456   4.45854
 Alpha virt. eigenvalues --    4.48151   4.51234   4.62932   4.65707   4.69693
 Alpha virt. eigenvalues --    4.83539   5.02977   5.16840   5.59776   6.02928
          Condensed to atoms (all electrons):
              1          2          3          4          5          6
     1  F    9.166149   0.265416  -0.033916   0.002217  -0.000015   0.000000
     2  C    0.265416   4.577586   0.568465  -0.027312   0.000832  -0.000019
     3  C   -0.033916   0.568465   5.066049   0.358257  -0.012701   0.002182
     4  C    0.002217  -0.027312   0.358257   5.214588   0.418816  -0.045354
     5  C   -0.000015   0.000832  -0.012701   0.418816   3.554679   0.288101
     6  F    0.000000  -0.000019   0.002182  -0.045354   0.288101   9.191601
     7  F    0.000000   0.000294   0.005046  -0.055805   0.283455  -0.030702
     8  F    0.000000   0.000293   0.005032  -0.055784   0.283489  -0.030703
     9  C    0.000129  -0.022244  -0.054241   0.583832  -0.021327   0.005288
    10  N    0.001390  -0.054325  -0.021788  -0.036423   0.001222   0.000237
    11  C   -0.040751   0.390766  -0.077451  -0.001319   0.000068   0.000002
    12  S    0.003304  -0.086094   0.002033  -0.000038   0.000006   0.000000
    13  H   -0.000244  -0.017885   0.369301  -0.030428  -0.000284   0.000035
    14  H    0.000001  -0.000099   0.001818  -0.025392  -0.000083   0.004938
    15  H   -0.000016   0.002101  -0.000330   0.002091  -0.000019   0.000001
    16  O    0.000000  -0.000008   0.000000   0.000015   0.000000   0.000000
    17  H    0.000000   0.000001   0.000000   0.000000   0.000000   0.000000
    18  H    0.000000   0.000003   0.000000   0.000000   0.000000   0.000000
              7          8          9         10         11         12
     1  F    0.000000   0.000000   0.000129   0.001390  -0.040751   0.003304
     2  C    0.000294   0.000293  -0.022244  -0.054325   0.390766  -0.086094
     3  C    0.005046   0.005032  -0.054241  -0.021788  -0.077451   0.002033
     4  C   -0.055805  -0.055784   0.583832  -0.036423  -0.001319  -0.000038
     5  C    0.283455   0.283489  -0.021327   0.001222   0.000068   0.000006
     6  F   -0.030702  -0.030703   0.005288   0.000237   0.000002   0.000000
     7  F    9.205491  -0.033972   0.000529  -0.000006  -0.000001   0.000000
     8  F   -0.033972   9.205387   0.000528  -0.000006  -0.000002   0.000000
     9  C    0.000529   0.000528   4.726825   0.279191  -0.040940   0.003408
    10  N   -0.000006  -0.000006   0.279191   7.302103   0.225776  -0.095372
    11  C   -0.000001  -0.000002  -0.040940   0.225776   4.925868   0.443105
    12  S    0.000000   0.000000   0.003408  -0.095372   0.443105  15.987834
    13  H    0.000906   0.000903   0.002396  -0.000275   0.002629  -0.000064
    14  H    0.000082   0.000082   0.382102  -0.031537   0.001019  -0.000120
    15  H    0.000000   0.000000  -0.015068   0.269576  -0.014763   0.004761
    16  O    0.000000   0.000000   0.000664  -0.013022  -0.000397  -0.000933
    17  H    0.000000   0.000000  -0.000029   0.000635   0.000016   0.000230
    18  H    0.000000   0.000000  -0.000025   0.000540   0.000046   0.001080
             13         14         15         16         17         18
     1  F   -0.000244   0.000001  -0.000016   0.000000   0.000000   0.000000
     2  C   -0.017885  -0.000099   0.002101  -0.000008   0.000001   0.000003
     3  C    0.369301   0.001818  -0.000330   0.000000   0.000000   0.000000
     4  C   -0.030428  -0.025392   0.002091   0.000015   0.000000   0.000000
     5  C   -0.000284  -0.000083  -0.000019   0.000000   0.000000   0.000000
     6  F    0.000035   0.004938   0.000001   0.000000   0.000000   0.000000
     7  F    0.000906   0.000082   0.000000   0.000000   0.000000   0.000000
     8  F    0.000903   0.000082   0.000000   0.000000   0.000000   0.000000
     9  C    0.002396   0.382102  -0.015068   0.000664  -0.000029  -0.000025
    10  N   -0.000275  -0.031537   0.269576  -0.013022   0.000635   0.000540
    11  C    0.002629   0.001019  -0.014763  -0.000397   0.000016   0.000046
    12  S   -0.000064  -0.000120   0.004761  -0.000933   0.000230   0.001080
    13  H    0.398854  -0.000065   0.000006   0.000000   0.000000   0.000000
    14  H   -0.000065   0.388729  -0.001373   0.000237  -0.000014  -0.000006
    15  H    0.000006  -0.001373   0.196585   0.027485  -0.000858  -0.000734
    16  O    0.000000   0.000237   0.027485   8.341837   0.264400   0.266897
    17  H    0.000000  -0.000014  -0.000858   0.264400   0.302412  -0.016184
    18  H    0.000000  -0.000006  -0.000734   0.266897  -0.016184   0.285739
 Mulliken atomic charges:
              1
     1  F   -0.363664
     2  C    0.402230
     3  C   -0.177755
     4  C   -0.301962
     5  C    1.203761
     6  F   -0.385607
     7  F   -0.375317
     8  F   -0.375248
     9  C    0.168981
    10  N   -0.827916
    11  C    0.186331
    12  S   -0.263143
    13  H    0.274214
    14  H    0.279682
    15  H    0.530554
    16  O   -0.887176
    17  H    0.449391
    18  H    0.462644
 Sum of Mulliken atomic charges =   0.00000
 Mulliken charges with hydrogens summed into heavy atoms:
              1
     1  F   -0.363664
     2  C    0.402230
     3  C    0.096459
     4  C   -0.301962
     5  C    1.203761
     6  F   -0.385607
     7  F   -0.375317
     8  F   -0.375248
     9  C    0.448663
    10  N   -0.297362
    11  C    0.186331
    12  S   -0.263143
    16  O    0.024859
 Sum of Mulliken charges with hydrogens summed into heavy atoms =   0.00000
 Electronic spatial extent (au):  <R**2>=           3453.9569
 Charge=              0.0000 electrons
 Dipole moment (field-independent basis, Debye):
    X=              2.2276    Y=             -5.5714    Z=              0.0049  Tot=              6.0002
 Quadrupole moment (field-independent basis, Debye-Ang):
   XX=           -100.2657   YY=            -51.1719   ZZ=            -81.0492
   XY=             13.4227   XZ=             -1.4039   YZ=              0.6387
 Traceless Quadrupole moment (field-independent basis, Debye-Ang):
   XX=            -22.7701   YY=             26.3237   ZZ=             -3.5536
   XY=             13.4227   XZ=             -1.4039   YZ=              0.6387
 Octapole moment (field-independent basis, Debye-Ang**2):
  XXX=            127.6429  YYY=            -53.5566  ZZZ=             -0.0106  XYY=            -29.5555
  XXY=            -12.3618  XXZ=              7.3544  XZZ=             30.3054  YZZ=             26.4279
  YYZ=             -5.9648  XYZ=              4.5712
 Hexadecapole moment (field-independent basis, Debye-Ang**3):
 XXXX=          -2840.3292 YYYY=           -405.3796 ZZZZ=           -144.2335 XXXY=            -80.2758
 XXXZ=            -28.6957 YYYX=            180.8103 YYYZ=             40.3347 ZZZX=              0.0786
 ZZZY=             -0.0953 XXYY=           -433.9209 XXZZ=           -478.4870 YYZZ=           -200.2433
 XXYZ=            -28.3625 YYXZ=            -12.0441 ZZXY=            -69.0088
 N-N= 9.197612068825D+02 E-N=-4.578457119247D+03  KE= 1.152563268763D+03
 1\1\GINC-B1\FOpt\RHF\6-31G(d)\C6H5F4N1O1S1\ANA\24-Sep-2021\1\\#HF/6-31
 G* Opt=Z-matrix NoSymm\\water interaction with atom H15\\0,1\F,-1,-1.9
 693,2.05368,0.00007\C,-1,-1.22225,0.94423,0.00003\C,-1,0.14003,1.0574,
 -0.00002\C,-1,0.92795,-0.12364,-0.00008\C,-1,2.41466,-0.01865,-0.00001
 \F,-1,3.00708,-1.23461,-0.00056\F,-1,2.85829,0.65448,-1.08602\F,-1,2.8
 5827,0.6535,1.08665\C,-1,0.30654,-1.34149,-0.00009\N,-1,-1.05417,-1.38
 997,-0.00006\C,-1,-1.9305,-0.3121,0.\S,-1,-3.57098,-0.50661,0.00003\H,
 -1,0.59686,2.0431,-0.00002\H,-1,0.83176,-2.28899,-0.00015\H,-1,-1.5214
 8,-2.29639,-0.00009\X,15,RDUM,10,ADUM,9,DOH,0\X,16,RDUM,15,ADUM,10,DD1
 ,0\O,15,RX,16,ADUM,17,DD2,0\H,18,ROH,15,AHOA,16,DH1,0\H,18,ROH,15,AHOA
 ,16,DH2,0\\RX=1.93064422\RDUM=1.\ROH=0.9572\ADUM=90.\AHOA=127.74\DOH=1
 80.\DD1=0.\DD2=180.\DH1=135.\DH2=-45.\\Version=EM64L-G09RevA.01\HF=-11
 54.684757\RMSD=2.466e-09\RMSF=3.235e-03\Dipole=0.8763935,-2.1919663,0.
 0019281\Quadrupole=-16.9290292,19.5710214,-2.6419922,9.9794769,-1.0437
 294,0.4748926\PG=C01 [X(C6H5F4N1O1S1)]\\@


 WHEN YOU'VE SEEN ONE NUCLEAR WAR YOU'VE SEEN THEM ALL.
 Job cpu time:  0 days  0 hours  4 minutes 20.2 seconds.
 File lengths (MBytes):  RWF=     26 Int=      0 D2E=      0 Chk=      3 Scr=      1
 Normal termination of Gaussian 09 at Fri Sep 24 08:33:02 2021.
