 Entering Gaussian System, Link 0=g09
 Initial command:
 /home/ana/programs/g09/l1.exe /home/ana/programs/g09/scratch/Gau-709903.inp -scrdir=/home/ana/programs/g09/scratch/
 Entering Link 1 = /home/ana/programs/g09/l1.exe PID=    709905.
  
 Copyright (c) 1988,1990,1992,1993,1995,1998,2003,2009, Gaussian, Inc.
                  All Rights Reserved.
  
 This is part of the Gaussian(R) 09 program.  It is based on
 the Gaussian(R) 03 system (copyright 2003, Gaussian, Inc.),
 the Gaussian(R) 98 system (copyright 1998, Gaussian, Inc.),
 the Gaussian(R) 94 system (copyright 1995, Gaussian, Inc.),
 the Gaussian 92(TM) system (copyright 1992, Gaussian, Inc.),
 the Gaussian 90(TM) system (copyright 1990, Gaussian, Inc.),
 the Gaussian 88(TM) system (copyright 1988, Gaussian, Inc.),
 the Gaussian 86(TM) system (copyright 1986, Carnegie Mellon
 University), and the Gaussian 82(TM) system (copyright 1983,
 Carnegie Mellon University). Gaussian is a federally registered
 trademark of Gaussian, Inc.
  
 This software contains proprietary and confidential information,
 including trade secrets, belonging to Gaussian, Inc.
  
 This software is provided under written license and may be
 used, copied, transmitted, or stored only in accord with that
 written license.
  
 The following legend is applicable only to US Government
 contracts under FAR:
  
                    RESTRICTED RIGHTS LEGEND
  
 Use, reproduction and disclosure by the US Government is
 subject to restrictions as set forth in subparagraphs (a)
 and (c) of the Commercial Computer Software - Restricted
 Rights clause in FAR 52.227-19.
  
 Gaussian, Inc.
 340 Quinnipiac St., Bldg. 40, Wallingford CT 06492
  
  
 ---------------------------------------------------------------
 Warning -- This program may not be used in any manner that
 competes with the business of Gaussian, Inc. or will provide
 assistance to any competitor of Gaussian, Inc.  The licensee
 of this program is prohibited from giving any competitor of
 Gaussian, Inc. access to this program.  By using this program,
 the user acknowledges that Gaussian, Inc. is engaged in the
 business of creating and licensing software in the field of
 computational chemistry and represents and warrants to the
 licensee that it is not a competitor of Gaussian, Inc. and that
 it will not use this program in any manner prohibited above.
 ---------------------------------------------------------------
  

 Cite this work as:
 Gaussian 09, Revision A.01,
 M. J. Frisch, G. W. Trucks, H. B. Schlegel, G. E. Scuseria, 
 M. A. Robb, J. R. Cheeseman, G. Scalmani, V. Barone, B. Mennucci, 
 G. A. Petersson, H. Nakatsuji, M. Caricato, X. Li, H. P. Hratchian, 
 A. F. Izmaylov, J. Bloino, G. Zheng, J. L. Sonnenberg, M. Hada, 
 M. Ehara, K. Toyota, R. Fukuda, J. Hasegawa, M. Ishida, T. Nakajima, 
 Y. Honda, O. Kitao, H. Nakai, T. Vreven, J. A. Montgomery, Jr., 
 J. E. Peralta, F. Ogliaro, M. Bearpark, J. J. Heyd, E. Brothers, 
 K. N. Kudin, V. N. Staroverov, R. Kobayashi, J. Normand, 
 K. Raghavachari, A. Rendell, J. C. Burant, S. S. Iyengar, J. Tomasi, 
 M. Cossi, N. Rega, J. M. Millam, M. Klene, J. E. Knox, J. B. Cross, 
 V. Bakken, C. Adamo, J. Jaramillo, R. Gomperts, R. E. Stratmann, 
 O. Yazyev, A. J. Austin, R. Cammi, C. Pomelli, J. W. Ochterski, 
 R. L. Martin, K. Morokuma, V. G. Zakrzewski, G. A. Voth, 
 P. Salvador, J. J. Dannenberg, S. Dapprich, A. D. Daniels, 
 O. Farkas, J. B. Foresman, J. V. Ortiz, J. Cioslowski, 
 and D. J. Fox, Gaussian, Inc., Wallingford CT, 2009.
 
 ******************************************
 Gaussian 09:  EM64L-G09RevA.01  8-May-2009
                24-Sep-2021 
 ******************************************
 %NPROC=4
 Will use up to    4 processors via shared memory.
 %NoSave
 ------------------------------
 #HF/6-31G* Opt=Z-matrix NoSymm
 ------------------------------
 1/10=7,18=40,38=1/1,3;
 2/12=2,15=1,17=6,18=5,29=3,40=1/2;
 3/5=1,6=6,7=1,11=9,16=1,25=1,30=1,71=1/1,2,3;
 4//1;
 5/5=2,38=5/2;
 6/7=2,8=2,9=2,10=2,28=1/1;
 7/29=1,30=1/1,2,3,16;
 1/10=7,18=40/3(2);
 2/15=1,29=3/2;
 99//99;
 2/15=1,29=3/2;
 3/5=1,6=6,7=1,11=9,16=1,25=1,30=1,71=1/1,2,3;
 4/5=5,16=3/1;
 5/5=2,38=5/2;
 7/30=1/1,2,3,16;
 1/18=40/3(-5);
 2/15=1,29=3/2;
 6/7=2,8=2,9=2,10=2,19=2,28=1/1;
 99/9=1/99;
 -------------------------------
 water interaction with atom H15
 -------------------------------
 Symbolic Z-matrix:
 Charge =  0 Multiplicity = 1
 9                    -1   -1.9693    2.05368   0.00007 
 6                    -1   -1.22225   0.94423   0.00003 
 6                    -1    0.14003   1.0574   -0.00002 
 6                    -1    0.92795  -0.12364  -0.00008 
 6                    -1    2.41466  -0.01865  -0.00001 
 9                    -1    3.00708  -1.23461  -0.00056 
 9                    -1    2.85829   0.65448  -1.08602 
 9                    -1    2.85827   0.6535    1.08665 
 6                    -1    0.30654  -1.34149  -0.00009 
 7                    -1   -1.05417  -1.38997  -0.00006 
 6                    -1   -1.9305   -0.3121    0. 
 16                   -1   -3.57098  -0.50661   0.00003 
 1                    -1    0.59686   2.0431   -0.00002 
 1                    -1    0.83176  -2.28899  -0.00015 
 1                    -1   -1.52148  -2.29639  -0.00009 
 X                    15   RDUM     10   ADUM     9    DOH      0
 X                    16   RDUM     15   ADUM     10   DD1      0
 OH2                  15   RX       16   ADUM     17   DD2      0
 H1                   18   ROH      15   AHOA     16   DH1      0
 H2                   18   ROH      15   AHOA     16   DH2      0
       Variables:
  RX                    1.9136                   
       Constants:
  RDUM                  1.                       
  ROH                   0.9572                   
  ADUM                 90.                       
  AHOA                127.74                     
  DOH                 180.                       
  DD1                   0.                       
  DD2                 180.                       
  DH1                  45.                       
  DH2                -135.                       
 

 GradGradGradGradGradGradGradGradGradGradGradGradGradGradGradGradGradGrad
 Berny optimization.
 Initialization pass.
                       ----------------------------
                       !    Initial Parameters    !
                       ! (Angstroms and Degrees)  !
 ----------------------                            ----------------------
 !      Name          Value   Derivative information (Atomic Units)     !
 ------------------------------------------------------------------------
 !       RX          1.9136   estimate D2E/DX2                          !
 !      RDUM         1.0      Frozen                                    !
 !       ROH         0.9572   Frozen                                    !
 !      ADUM        90.0      Frozen                                    !
 !      AHOA       127.74     Frozen                                    !
 !       DOH       180.0      Frozen                                    !
 !       DD1         0.0      Frozen                                    !
 !       DD2       180.0      Frozen                                    !
 !       DH1        45.0      Frozen                                    !
 !       DH2      -135.0      Frozen                                    !
 ------------------------------------------------------------------------
 Trust Radius=3.00D-01 FncErr=1.00D-07 GrdErr=1.00D-07
 Number of steps in this run=  20 maximum allowed number of steps= 100.
 GradGradGradGradGradGradGradGradGradGradGradGradGradGradGradGradGradGrad

 ---------------------------------------------------------------------------------------------------
                            Z-MATRIX (ANGSTROMS AND DEGREES)
   CD    Cent   Atom    N1       Length/X        N2       Alpha/Y        N3        Beta/Z          J
 ---------------------------------------------------------------------------------------------------
      1      1  F       -1  -1.969300          2.053680          0.000070
      2      2  C       -1  -1.222250          0.944230          0.000030
      3      3  C       -1   0.140030          1.057400         -0.000020
      4      4  C       -1   0.927950         -0.123640         -0.000080
      5      5  C       -1   2.414660         -0.018650         -0.000010
      6      6  F       -1   3.007080         -1.234610         -0.000560
      7      7  F       -1   2.858290          0.654480         -1.086020
      8      8  F       -1   2.858270          0.653500          1.086650
      9      9  C       -1   0.306540         -1.341490         -0.000090
     10     10  N       -1  -1.054170         -1.389970         -0.000060
     11     11  C       -1  -1.930500         -0.312100          0.000000
     12     12  S       -1  -3.570980         -0.506610          0.000030
     13     13  H       -1   0.596860          2.043100         -0.000020
     14     14  H       -1   0.831760         -2.288990         -0.000150
     15     15  H       -1  -1.521480         -2.296390         -0.000090
     16         X       15   1.000000(    15)     10   90.000(    33)      9  180.000(    50)      0
     17         X       16   1.000000(    16)     15   90.000(    34)     10    0.000(    51)      0
     18     16  O       15   1.913600(    17)     16   90.000(    35)     17  180.000(    52)      0
     19     17  H       18   0.957200(    18)     15  127.740(    36)     16   45.000(    53)      0
     20     18  H       18   0.957200(    19)     15  127.740(    37)     16 -135.000(    54)      0
 ---------------------------------------------------------------------------------------------------
                         Z-Matrix orientation:                         
 ---------------------------------------------------------------------
 Center     Atomic      Atomic             Coordinates (Angstroms)
 Number     Number       Type             X           Y           Z
 ---------------------------------------------------------------------
      1          9           0       -1.969300    2.053680    0.000070
      2          6           0       -1.222250    0.944230    0.000030
      3          6           0        0.140030    1.057400   -0.000020
      4          6           0        0.927950   -0.123640   -0.000080
      5          6           0        2.414660   -0.018650   -0.000010
      6          9           0        3.007080   -1.234610   -0.000560
      7          9           0        2.858290    0.654480   -1.086020
      8          9           0        2.858270    0.653500    1.086650
      9          6           0        0.306540   -1.341490   -0.000090
     10          7           0       -1.054170   -1.389970   -0.000060
     11          6           0       -1.930500   -0.312100    0.000000
     12         16           0       -3.570980   -0.506610    0.000030
     13          1           0        0.596860    2.043100   -0.000020
     14          1           0        0.831760   -2.288990   -0.000150
     15          1           0       -1.521480   -2.296390   -0.000090
     16         -1           0       -2.410308   -1.838150   -0.000048
     17         -1           0       -1.952068   -0.949321   -0.000019
     18          8           0       -2.398369   -3.997252   -0.000146
     19          1           0       -3.142597   -4.272705   -0.535386
     20          1           0       -2.191091   -4.763296    0.535059
 ---------------------------------------------------------------------
                    Distance matrix (angstroms):
                    1          2          3          4          5
     1  F    0.000000
     2  C    1.337521   0.000000
     3  C    2.332777   1.366973   0.000000
     4  C    3.624194   2.400772   1.419744   0.000000
     5  C    4.849088   3.762214   2.516312   1.490413   0.000000
     6  F    5.964663   4.757581   3.670597   2.357337   1.352598
     7  F    5.142274   4.232525   2.954772   2.347541   1.352527
     8  F    5.142625   4.232719   2.955134   2.347566   1.352555
     9  C    4.087374   2.749857   2.404662   1.367227   2.488790
    10  N    3.563171   2.340244   2.723184   2.352104   3.730054
    11  C    2.366098   1.442215   2.482463   2.864656   4.355058
    12  S    3.020011   2.760701   4.027123   4.515201   6.005497
    13  H    2.566182   2.125247   1.086415   2.191890   2.748674
    14  H    5.167661   3.830492   3.417136   2.167485   2.767673
    15  H    4.373060   3.254406   3.742796   3.274225   4.547669
    16  X    3.916737   3.025412   3.858553   3.752800   5.156636
    17  X    3.003051   2.029328   2.898931   2.996039   4.464802
    18  O    6.066125   5.079517   5.656233   5.105807   6.244559
    19  H    6.456508   5.584874   6.282697   5.837007   7.019026
    20  H    6.841532   5.813842   6.292927   5.616155   6.634071
                    6          7          8          9         10
     6  F    0.000000
     7  F    2.183809   0.000000
     8  F    2.183834   2.172670   0.000000
     9  C    2.702654   3.416807   3.416477   0.000000
    10  N    4.064221   4.546034   4.545756   1.361573   0.000000
    11  C    5.023019   5.004620   5.004549   2.462517   1.389157
    12  S    6.618222   6.622926   6.622828   3.966382   2.667332
    13  H    4.068482   2.867355   2.868068   3.397019   3.809445
    14  H    2.417382   3.734964   3.734451   1.083334   2.089251
    15  H    4.651369   5.391592   5.391203   2.062399   1.019792
    16  X    5.450904   5.928800   5.928503   2.761872   1.428277
    17  X    4.967347   5.185665   5.185483   2.292402   1.000196
    18  O    6.070508   7.102830   7.102315   3.790726   2.933392
    19  H    6.880014   7.784022   7.931514   4.557972   3.599759
    20  H    6.305512   7.581321   7.425764   4.270046   3.599759
                   11         12         13         14         15
    11  C    0.000000
    12  S    1.651971   0.000000
    13  H    3.454637   4.885889   0.000000
    14  H    3.396789   4.749842   4.338454   0.000000
    15  H    2.026007   2.720986   4.828927   2.353252   0.000000
    16  X    1.599701   1.766396   4.909904   3.273265   1.000000
    17  X    0.637586   1.678353   3.930855   3.089403   1.414214
    18  O    3.714733   3.682336   6.742199   3.654024   1.913600
    19  H    4.176388   3.828010   7.359318   4.474050   2.611587
    20  H    4.490806   4.506631   7.374686   3.942875   2.611587
                   16         17         18         19         20
    16  X    0.000000
    17  X    1.000000   0.000000
    18  O    2.159135   3.080433   0.000000
    19  H    2.598056   3.570555   0.957200   0.000000
    20  H    2.981757   3.858735   0.957200   1.513901   0.000000
 Symmetry turned off by external request.
 Stoichiometry    C6H5F4NOS
 Framework group  C1[X(C6H5F4NOS)]
 Deg. of freedom    48
 Full point group                 C1      NOp   1
 Rotational constants (GHZ):      0.9911453      0.3870113      0.2929888
 Standard basis: 6-31G(d) (6D, 7F)
 Integral buffers will be    131072 words long.
 Raffenetti 1 integral format.
 Two-electron integral symmetry is turned off.
   209 basis functions,   408 primitive gaussians,   209 cartesian basis functions
    54 alpha electrons       54 beta electrons
       nuclear repulsion energy       920.1323102085 Hartrees.
 NAtoms=   18 NActive=   18 NUniq=   18 SFac= 7.50D-01 NAtFMM=   80 NAOKFM=F Big=F
 One-electron integrals computed using PRISM.
 NBasis=   209 RedAO= T  NBF=   209
 NBsUse=   209 1.00D-06 NBFU=   209
 Harris functional with IExCor=  205 diagonalized for initial guess.
 ExpMin= 1.17D-01 ExpMax= 2.19D+04 ExpMxC= 3.30D+03 IAcc=1 IRadAn=         1 AccDes= 0.00D+00
 HarFok:  IExCor=  205 AccDes= 0.00D+00 IRadAn=         1 IDoV= 1
 ScaDFX=  1.000000  1.000000  1.000000  1.000000
 FoFCou: FMM=F IPFlag=           0 FMFlag=      100000 FMFlg1=           0
         NFxFlg=           0 DoJE=T BraDBF=F KetDBF=T FulRan=T
         Omega=  0.000000  0.000000  1.000000  0.000000  0.000000 ICntrl=     500 IOpCl=  0
         NMat0=    1 NMatS0=    1 NMatT0=    0 NMatD0=    1 NMtDS0=    0 NMtDT0=    0
         I1Cent=           4 NGrid=           0.
 Symmetry not used in FoFCou.
 Requested convergence on RMS density matrix=1.00D-08 within 128 cycles.
 Requested convergence on MAX density matrix=1.00D-06.
 Requested convergence on             energy=1.00D-06.
 No special actions if energy rises.
 Integral accuracy reduced to 1.0D-05 until final iterations.
 Initial convergence to 1.0D-05 achieved.  Increase integral accuracy.
 SCF Done:  E(RHF) =  -1154.68474944     A.U. after   15 cycles
             Convg  =    0.6989D-08             -V/T =  2.0018

 **********************************************************************

            Population analysis using the SCF density.

 **********************************************************************

 Alpha  occ. eigenvalues --  -91.88647 -26.35840 -26.34881 -26.34877 -26.32120
 Alpha  occ. eigenvalues --  -20.60287 -15.65995 -11.53041 -11.36072 -11.35646
 Alpha  occ. eigenvalues --  -11.34450 -11.29815 -11.28770  -8.89761  -6.58099
 Alpha  occ. eigenvalues --   -6.57819  -6.57693  -1.73079  -1.64098  -1.63405
 Alpha  occ. eigenvalues --   -1.63398  -1.38419  -1.33328  -1.15549  -1.10375
 Alpha  occ. eigenvalues --   -1.01571  -0.95627  -0.91113  -0.86569  -0.83486
 Alpha  occ. eigenvalues --   -0.82619  -0.82324  -0.75411  -0.74747  -0.74475
 Alpha  occ. eigenvalues --   -0.72416  -0.71264  -0.70500  -0.70011  -0.68912
 Alpha  occ. eigenvalues --   -0.66516  -0.66506  -0.65101  -0.62663  -0.61919
 Alpha  occ. eigenvalues --   -0.60446  -0.59201  -0.57534  -0.54051  -0.50880
 Alpha  occ. eigenvalues --   -0.44924  -0.41611  -0.32350  -0.29411
 Alpha virt. eigenvalues --    0.06164   0.10252   0.17430   0.22650   0.26443
 Alpha virt. eigenvalues --    0.27185   0.27774   0.28082   0.31068   0.32696
 Alpha virt. eigenvalues --    0.35435   0.40078   0.41868   0.42301   0.44175
 Alpha virt. eigenvalues --    0.44625   0.48403   0.51267   0.55653   0.57008
 Alpha virt. eigenvalues --    0.58082   0.61192   0.63178   0.65861   0.68138
 Alpha virt. eigenvalues --    0.69124   0.73435   0.74469   0.74987   0.76911
 Alpha virt. eigenvalues --    0.78631   0.79561   0.84669   0.85969   0.88930
 Alpha virt. eigenvalues --    0.90601   0.91366   0.93546   0.96887   0.98192
 Alpha virt. eigenvalues --    1.02246   1.03532   1.04851   1.05986   1.09266
 Alpha virt. eigenvalues --    1.10914   1.12193   1.14354   1.14469   1.16383
 Alpha virt. eigenvalues --    1.17724   1.18930   1.22233   1.26086   1.29663
 Alpha virt. eigenvalues --    1.31272   1.32648   1.33204   1.34581   1.36064
 Alpha virt. eigenvalues --    1.38092   1.40073   1.40482   1.43843   1.44366
 Alpha virt. eigenvalues --    1.45962   1.48767   1.53393   1.57140   1.61680
 Alpha virt. eigenvalues --    1.61992   1.62707   1.65015   1.65511   1.65931
 Alpha virt. eigenvalues --    1.66734   1.68219   1.69206   1.71066   1.72003
 Alpha virt. eigenvalues --    1.74476   1.78027   1.78312   1.82439   1.87926
 Alpha virt. eigenvalues --    1.91058   1.93686   1.95340   1.99182   2.01327
 Alpha virt. eigenvalues --    2.02117   2.06088   2.07437   2.10425   2.11274
 Alpha virt. eigenvalues --    2.13065   2.13375   2.16782   2.19734   2.21750
 Alpha virt. eigenvalues --    2.23872   2.24072   2.25922   2.29554   2.31670
 Alpha virt. eigenvalues --    2.32407   2.33925   2.36037   2.36518   2.37164
 Alpha virt. eigenvalues --    2.40101   2.44226   2.45544   2.47177   2.47516
 Alpha virt. eigenvalues --    2.48869   2.53918   2.58535   2.62317   2.63629
 Alpha virt. eigenvalues --    2.68629   2.70681   2.76533   2.84601   2.85905
 Alpha virt. eigenvalues --    2.86910   2.90950   2.93374   2.94622   2.94951
 Alpha virt. eigenvalues --    3.02057   3.08534   3.11265   3.18798   3.23939
 Alpha virt. eigenvalues --    3.31250   3.38486   3.39547   3.44249   3.45615
 Alpha virt. eigenvalues --    3.50869   3.73006   4.07692   4.40478   4.45888
 Alpha virt. eigenvalues --    4.48211   4.51316   4.62958   4.65720   4.69700
 Alpha virt. eigenvalues --    4.83552   5.02987   5.16853   5.59803   6.02938
          Condensed to atoms (all electrons):
              1          2          3          4          5          6
     1  F    9.166223   0.265387  -0.033918   0.002217  -0.000015   0.000000
     2  C    0.265387   4.577385   0.568501  -0.027339   0.000831  -0.000019
     3  C   -0.033918   0.568501   5.065995   0.358364  -0.012709   0.002182
     4  C    0.002217  -0.027339   0.358364   5.214591   0.418852  -0.045353
     5  C   -0.000015   0.000831  -0.012709   0.418852   3.554784   0.288083
     6  F    0.000000  -0.000019   0.002182  -0.045353   0.288083   9.191647
     7  F    0.000000   0.000294   0.005038  -0.055780   0.283463  -0.030702
     8  F    0.000000   0.000293   0.005040  -0.055816   0.283442  -0.030702
     9  C    0.000129  -0.022247  -0.054220   0.583679  -0.021352   0.005287
    10  N    0.001390  -0.054304  -0.021820  -0.036405   0.001223   0.000237
    11  C   -0.040755   0.391007  -0.077444  -0.001328   0.000068   0.000002
    12  S    0.003310  -0.086103   0.002036  -0.000037   0.000006   0.000000
    13  H   -0.000244  -0.017891   0.369305  -0.030433  -0.000285   0.000035
    14  H    0.000001  -0.000099   0.001819  -0.025410  -0.000082   0.004937
    15  H   -0.000016   0.002085  -0.000329   0.002090  -0.000019   0.000001
    16  O    0.000000  -0.000008   0.000000   0.000017   0.000000   0.000000
    17  H    0.000000   0.000003   0.000000   0.000000   0.000000   0.000000
    18  H    0.000000   0.000001   0.000000   0.000000   0.000000   0.000000
              7          8          9         10         11         12
     1  F    0.000000   0.000000   0.000129   0.001390  -0.040755   0.003310
     2  C    0.000294   0.000293  -0.022247  -0.054304   0.391007  -0.086103
     3  C    0.005038   0.005040  -0.054220  -0.021820  -0.077444   0.002036
     4  C   -0.055780  -0.055816   0.583679  -0.036405  -0.001328  -0.000037
     5  C    0.283463   0.283442  -0.021352   0.001223   0.000068   0.000006
     6  F   -0.030702  -0.030702   0.005287   0.000237   0.000002   0.000000
     7  F    9.205411  -0.033971   0.000533  -0.000006  -0.000002   0.000000
     8  F   -0.033971   9.205557   0.000526  -0.000006  -0.000001   0.000000
     9  C    0.000533   0.000526   4.726809   0.279363  -0.040968   0.003409
    10  N   -0.000006  -0.000006   0.279363   7.304184   0.226056  -0.095273
    11  C   -0.000002  -0.000001  -0.040968   0.226056   4.925437   0.442851
    12  S    0.000000   0.000000   0.003409  -0.095273   0.442851  15.988912
    13  H    0.000906   0.000903   0.002397  -0.000275   0.002630  -0.000064
    14  H    0.000082   0.000082   0.382135  -0.031557   0.001020  -0.000120
    15  H    0.000000   0.000000  -0.014977   0.268642  -0.014691   0.004644
    16  O    0.000000   0.000000   0.000716  -0.013895  -0.000379  -0.001021
    17  H    0.000000   0.000000  -0.000027   0.000575   0.000046   0.001122
    18  H    0.000000   0.000000  -0.000031   0.000676   0.000016   0.000242
             13         14         15         16         17         18
     1  F   -0.000244   0.000001  -0.000016   0.000000   0.000000   0.000000
     2  C   -0.017891  -0.000099   0.002085  -0.000008   0.000003   0.000001
     3  C    0.369305   0.001819  -0.000329   0.000000   0.000000   0.000000
     4  C   -0.030433  -0.025410   0.002090   0.000017   0.000000   0.000000
     5  C   -0.000285  -0.000082  -0.000019   0.000000   0.000000   0.000000
     6  F    0.000035   0.004937   0.000001   0.000000   0.000000   0.000000
     7  F    0.000906   0.000082   0.000000   0.000000   0.000000   0.000000
     8  F    0.000903   0.000082   0.000000   0.000000   0.000000   0.000000
     9  C    0.002397   0.382135  -0.014977   0.000716  -0.000027  -0.000031
    10  N   -0.000275  -0.031557   0.268642  -0.013895   0.000575   0.000676
    11  C    0.002630   0.001020  -0.014691  -0.000379   0.000046   0.000016
    12  S   -0.000064  -0.000120   0.004644  -0.001021   0.001122   0.000242
    13  H    0.398928  -0.000065   0.000006   0.000000   0.000000   0.000000
    14  H   -0.000065   0.388945  -0.001369   0.000247  -0.000007  -0.000015
    15  H    0.000006  -0.001369   0.195327   0.027840  -0.000734  -0.000863
    16  O    0.000000   0.000247   0.027840   8.342886   0.266861   0.264374
    17  H    0.000000  -0.000007  -0.000734   0.266861   0.285148  -0.016116
    18  H    0.000000  -0.000015  -0.000863   0.264374  -0.016116   0.301959
 Mulliken atomic charges:
              1
     1  F   -0.363709
     2  C    0.402223
     3  C   -0.177841
     4  C   -0.301910
     5  C    1.203709
     6  F   -0.385635
     7  F   -0.375266
     8  F   -0.375344
     9  C    0.168839
    10  N   -0.828806
    11  C    0.186437
    12  S   -0.263915
    13  H    0.274148
    14  H    0.279458
    15  H    0.532362
    16  O   -0.887637
    17  H    0.463129
    18  H    0.449759
 Sum of Mulliken atomic charges =   0.00000
 Mulliken charges with hydrogens summed into heavy atoms:
              1
     1  F   -0.363709
     2  C    0.402223
     3  C    0.096307
     4  C   -0.301910
     5  C    1.203709
     6  F   -0.385635
     7  F   -0.375266
     8  F   -0.375344
     9  C    0.448297
    10  N   -0.296444
    11  C    0.186437
    12  S   -0.263915
    16  O    0.025251
 Sum of Mulliken charges with hydrogens summed into heavy atoms =   0.00000
 Electronic spatial extent (au):  <R**2>=           3448.1804
 Charge=              0.0000 electrons
 Dipole moment (field-independent basis, Debye):
    X=              2.2250    Y=             -5.5871    Z=             -0.0057  Tot=              6.0139
 Quadrupole moment (field-independent basis, Debye-Ang):
   XX=           -100.3063   YY=            -51.1823   ZZ=            -81.0511
   XY=             13.4255   XZ=              1.4040   YZ=             -0.6371
 Traceless Quadrupole moment (field-independent basis, Debye-Ang):
   XX=            -22.7931   YY=             26.3309   ZZ=             -3.5378
   XY=             13.4255   XZ=              1.4040   YZ=             -0.6371
 Octapole moment (field-independent basis, Debye-Ang**2):
  XXX=            127.7408  YYY=            -53.2752  ZZZ=              0.0138  XYY=            -29.3113
  XXY=            -12.2896  XXZ=             -7.3376  XZZ=             30.2642  YZZ=             26.3343
  YYZ=              5.9417  XYZ=             -4.5620
 Hexadecapole moment (field-independent basis, Debye-Ang**3):
 XXXX=          -2840.3663 YYYY=           -406.5652 ZZZZ=           -144.2404 XXXY=            -80.0735
 XXXZ=             28.5332 YYYX=            179.0146 YYYZ=            -40.0637 ZZZX=             -0.0899
 ZZZY=              0.0617 XXYY=           -434.6908 XXZZ=           -478.3122 YYZZ=           -199.5380
 XXYZ=             28.1958 YYXZ=             12.0009 ZZXY=            -68.6121
 N-N= 9.201323102085D+02 E-N=-4.579207053065D+03  KE= 1.152565411906D+03
 Calling FoFJK, ICntrl=      2127 FMM=F ISym2X=0 I1Cent= 0 IOpClX= 0 NMat=1 NMatS=1 NMatT=0.
 -------------------------------------------------------------------
 Center     Atomic                   Forces (Hartrees/Bohr)
 Number     Number              X              Y              Z
 -------------------------------------------------------------------
      1        9           0.000000000    0.000000000    0.000000000
      2        6           0.000000000    0.000000000    0.000000000
      3        6           0.000000000    0.000000000    0.000000000
      4        6           0.000000000    0.000000000    0.000000000
      5        6           0.000000000    0.000000000    0.000000000
      6        9           0.000000000    0.000000000    0.000000000
      7        9           0.000000000    0.000000000    0.000000000
      8        9           0.000000000    0.000000000    0.000000000
      9        6           0.000000000    0.000000000    0.000000000
     10        7           0.000000000    0.000000000    0.000000000
     11        6           0.000000000    0.000000000    0.000000000
     12       16           0.000000000    0.000000000    0.000000000
     13        1           0.000000000    0.000000000    0.000000000
     14        1           0.000000000    0.000000000    0.000000000
     15        1           0.000000000    0.000000000    0.000000000
     16        8          -0.002355349   -0.019066708    0.000069321
     17        1           0.005912797    0.008389974    0.004195369
     18        1          -0.000986436    0.008812895   -0.003694453
 -------------------------------------------------------------------
 Cartesian Forces:  Max     0.019066708 RMS     0.003289532
 -----------------------------------------------------------------------------------------------
                       Internal Coordinate Forces (Hartree/Bohr or radian)
  Cent   Atom   N1       Length/X         N2         Alpha/Y        N3         Beta/Z          J
 -----------------------------------------------------------------------------------------------
      1  F 
      2  C 
      3  C 
      4  C 
      5  C 
      6  F 
      7  F 
      8  F 
      9  C 
     10  N 
     11  C 
     12  S 
     13  H 
     14  H 
     15  H 
         X       15   0.000000(     1)     10   0.004654(     6)      9  -0.001582(    11)     0
         X       16   0.000000(     2)     15   0.000000(     7)     10  -0.000201(    12)     0
     16  O       15   0.000478(     3)     16   0.004654(     8)     17   0.000201(    13)     0
     17  H       18  -0.009358(     4)     15  -0.010154(     9)     16  -0.002816(    14)     0
     18  H       18  -0.009332(     5)     15  -0.003818(    10)     16   0.001234(    15)     0
 -----------------------------------------------------------------------------------------------
 Internal  Forces:  Max     0.010154309 RMS     0.004816178

 GradGradGradGradGradGradGradGradGradGradGradGradGradGradGradGradGradGrad
 Berny optimization.
 Search for a local minimum.
 Step number   1 out of a maximum of   20
 All quantities printed in internal units (Hartrees-Bohrs-Radians)
 Second derivative matrix not updated -- first step.
 The second derivative matrix:
                          RX       RDUM       ROH      ADUM      AHOA
           RX           0.04986
           RDUM         0.00000   0.00000
           ROH          0.00000   0.00000   1.12160
           ADUM         0.00000   0.00000   0.00000   1.00452
           AHOA         0.00000   0.00000   0.00000   0.00000   0.96000
           DOH          0.00000   0.00000   0.00000   0.00000   0.00000
           DD1          0.00000   0.00000   0.00000  -0.00226   0.00000
           DD2          0.00000   0.00000   0.00000   0.00226   0.00000
           DH1          0.00000   0.00000   0.00000   0.01128   0.00000
           DH2          0.00000   0.00000   0.00000  -0.01128   0.00000
                          DOH       DD1       DD2       DH1       DH2
           DOH          0.00000
           DD1          0.00000   0.31758
           DD2          0.00000  -0.31758   0.31758
           DH1          0.00000  -0.00564   0.00564   0.02814
           DH2          0.00000   0.00564  -0.00564  -0.02814   0.02814
     Eigenvalues ---    0.049861000.000001000.000001000.000001000.00000
     Eigenvalues --- 1000.000001000.000001000.000001000.000001000.00000
 RFO step:  Lambda=-4.59186172D-06 EMin= 4.98570782D-02
 Linear search not attempted -- first point.
 Variable       Old X    -DE/DX   Delta X   Delta X   Delta X     New X
                                 (Linear)    (Quad)   (Total)
    RX        3.61618   0.00048   0.00000   0.00960   0.00960   3.62578
   RDUM       1.88973   0.00000   0.00000   0.00000   0.00000   1.88973
   ROH        1.80885  -0.01869   0.00000   0.00000   0.00000   1.80885
   ADUM       1.57080   0.00931   0.00000   0.00000   0.00000   1.57080
   AHOA       2.22948  -0.01397   0.00000   0.00000   0.00000   2.22948
   DOH        3.14159  -0.00158   0.00000   0.00000   0.00000   3.14159
   DD1        0.00000  -0.00020   0.00000   0.00000   0.00000   0.00000
   DD2        3.14159   0.00020   0.00000   0.00000   0.00000   3.14159
   DH1        0.78540  -0.00282   0.00000   0.00000   0.00000   0.78540
   DH2       -2.35619   0.00123   0.00000   0.00000   0.00000  -2.35619
         Item               Value     Threshold  Converged?
 Maximum Force            0.000478     0.000450     NO 
 RMS     Force            0.000478     0.000300     NO 
 Maximum Displacement     0.009596     0.001800     NO 
 RMS     Displacement     0.003035     0.001200     NO 
 Predicted change in Energy=-2.295931D-06
 GradGradGradGradGradGradGradGradGradGradGradGradGradGradGradGradGradGrad

 ---------------------------------------------------------------------------------------------------
                            Z-MATRIX (ANGSTROMS AND DEGREES)
   CD    Cent   Atom    N1       Length/X        N2       Alpha/Y        N3        Beta/Z          J
 ---------------------------------------------------------------------------------------------------
      1      1  F       -1  -1.969300          2.053680          0.000070
      2      2  C       -1  -1.222250          0.944230          0.000030
      3      3  C       -1   0.140030          1.057400         -0.000020
      4      4  C       -1   0.927950         -0.123640         -0.000080
      5      5  C       -1   2.414660         -0.018650         -0.000010
      6      6  F       -1   3.007080         -1.234610         -0.000560
      7      7  F       -1   2.858290          0.654480         -1.086020
      8      8  F       -1   2.858270          0.653500          1.086650
      9      9  C       -1   0.306540         -1.341490         -0.000090
     10     10  N       -1  -1.054170         -1.389970         -0.000060
     11     11  C       -1  -1.930500         -0.312100          0.000000
     12     12  S       -1  -3.570980         -0.506610          0.000030
     13     13  H       -1   0.596860          2.043100         -0.000020
     14     14  H       -1   0.831760         -2.288990         -0.000150
     15     15  H       -1  -1.521480         -2.296390         -0.000090
     16         X       15   1.000000(    15)     10   90.000(    33)      9  180.000(    50)      0
     17         X       16   1.000000(    16)     15   90.000(    34)     10    0.000(    51)      0
     18     16  O       15   1.918678(    17)     16   90.000(    35)     17  180.000(    52)      0
     19     17  H       18   0.957200(    18)     15  127.740(    36)     16   45.000(    53)      0
     20     18  H       18   0.957200(    19)     15  127.740(    37)     16 -135.000(    54)      0
 ---------------------------------------------------------------------------------------------------
                         Z-Matrix orientation:                         
 ---------------------------------------------------------------------
 Center     Atomic      Atomic             Coordinates (Angstroms)
 Number     Number       Type             X           Y           Z
 ---------------------------------------------------------------------
      1          9           0       -1.969300    2.053680    0.000070
      2          6           0       -1.222250    0.944230    0.000030
      3          6           0        0.140030    1.057400   -0.000020
      4          6           0        0.927950   -0.123640   -0.000080
      5          6           0        2.414660   -0.018650   -0.000010
      6          9           0        3.007080   -1.234610   -0.000560
      7          9           0        2.858290    0.654480   -1.086020
      8          9           0        2.858270    0.653500    1.086650
      9          6           0        0.306540   -1.341490   -0.000090
     10          7           0       -1.054170   -1.389970   -0.000060
     11          6           0       -1.930500   -0.312100    0.000000
     12         16           0       -3.570980   -0.506610    0.000030
     13          1           0        0.596860    2.043100   -0.000020
     14          1           0        0.831760   -2.288990   -0.000150
     15          1           0       -1.521480   -2.296390   -0.000090
     16         -1           0       -2.410308   -1.838150   -0.000048
     17         -1           0       -1.952068   -0.949321   -0.000019
     18          8           0       -2.400696   -4.001765   -0.000146
     19          1           0       -3.144924   -4.277219   -0.535386
     20          1           0       -2.193418   -4.767809    0.535059
 ---------------------------------------------------------------------
                    Distance matrix (angstroms):
                    1          2          3          4          5
     1  F    0.000000
     2  C    1.337521   0.000000
     3  C    2.332777   1.366973   0.000000
     4  C    3.624194   2.400772   1.419744   0.000000
     5  C    4.849088   3.762214   2.516312   1.490413   0.000000
     6  F    5.964663   4.757581   3.670597   2.357337   1.352598
     7  F    5.142274   4.232525   2.954772   2.347541   1.352527
     8  F    5.142625   4.232719   2.955134   2.347566   1.352555
     9  C    4.087374   2.749857   2.404662   1.367227   2.488790
    10  N    3.563171   2.340244   2.723184   2.352104   3.730054
    11  C    2.366098   1.442215   2.482463   2.864656   4.355058
    12  S    3.020011   2.760701   4.027123   4.515201   6.005497
    13  H    2.566182   2.125247   1.086415   2.191890   2.748674
    14  H    5.167661   3.830492   3.417136   2.167485   2.767673
    15  H    4.373060   3.254406   3.742796   3.274225   4.547669
    16  X    3.916737   3.025412   3.858553   3.752800   5.156636
    17  X    3.003051   2.029328   2.898931   2.996039   4.464802
    18  O    6.070792   5.084447   5.661311   5.110747   6.249229
    19  H    6.461353   5.589890   6.287742   5.841838   7.023604
    20  H    6.846105   5.818661   6.297964   5.621176   6.638915
                    6          7          8          9         10
     6  F    0.000000
     7  F    2.183809   0.000000
     8  F    2.183834   2.172670   0.000000
     9  C    2.702654   3.416807   3.416477   0.000000
    10  N    4.064221   4.546034   4.545756   1.361573   0.000000
    11  C    5.023019   5.004620   5.004549   2.462517   1.389157
    12  S    6.618222   6.622926   6.622828   3.966382   2.667332
    13  H    4.068482   2.867355   2.868068   3.397019   3.809445
    14  H    2.417382   3.734964   3.734451   1.083334   2.089251
    15  H    4.651369   5.391592   5.391203   2.062399   1.019792
    16  X    5.450904   5.928800   5.928503   2.761872   1.428277
    17  X    4.967347   5.185665   5.185483   2.292402   1.000196
    18  O    6.074635   7.107508   7.106993   3.795549   2.938470
    19  H    6.884088   7.788673   7.936078   4.562636   3.604724
    20  H    6.309957   7.586097   7.430639   4.275024   3.604724
                   11         12         13         14         15
    11  C    0.000000
    12  S    1.651971   0.000000
    13  H    3.454637   4.885889   0.000000
    14  H    3.396789   4.749842   4.338454   0.000000
    15  H    2.026007   2.720986   4.828927   2.353252   0.000000
    16  X    1.599701   1.766396   4.909904   3.273265   1.000000
    17  X    0.637586   1.678353   3.930855   3.089403   1.414214
    18  O    3.719504   3.685875   6.747276   3.658192   1.918678
    19  H    4.181343   3.832191   7.364373   4.478119   2.616447
    20  H    4.495415   4.510183   7.379732   3.947492   2.616447
                   16         17         18         19         20
    16  X    0.000000
    17  X    1.000000   0.000000
    18  O    2.163637   3.085236   0.000000
    19  H    2.602942   3.575532   0.957200   0.000000
    20  H    2.986015   3.863341   0.957200   1.513901   0.000000
 Symmetry turned off by external request.
 Stoichiometry    C6H5F4NOS
 Framework group  C1[X(C6H5F4NOS)]
 Deg. of freedom    48
 Full point group                 C1      NOp   1
 Rotational constants (GHZ):      0.9902625      0.3869097      0.2928534
 Standard basis: 6-31G(d) (6D, 7F)
 Integral buffers will be    131072 words long.
 Raffenetti 1 integral format.
 Two-electron integral symmetry is turned off.
   209 basis functions,   408 primitive gaussians,   209 cartesian basis functions
    54 alpha electrons       54 beta electrons
       nuclear repulsion energy       920.0214738293 Hartrees.
 NAtoms=   18 NActive=   18 NUniq=   18 SFac= 7.50D-01 NAtFMM=   80 NAOKFM=F Big=F
 One-electron integrals computed using PRISM.
 NBasis=   209 RedAO= T  NBF=   209
 NBsUse=   209 1.00D-06 NBFU=   209
 Initial guess read from the read-write file.
 B after Tr=     0.000000    0.000000    0.000000
         Rot=    1.000000    0.000000    0.000000    0.000000 Ang=   0.00 deg.
 Requested convergence on RMS density matrix=1.00D-08 within 128 cycles.
 Requested convergence on MAX density matrix=1.00D-06.
 Requested convergence on             energy=1.00D-06.
 No special actions if energy rises.
 SCF Done:  E(RHF) =  -1154.68475332     A.U. after    8 cycles
             Convg  =    0.5739D-08             -V/T =  2.0018
 Calling FoFJK, ICntrl=      2127 FMM=F ISym2X=0 I1Cent= 0 IOpClX= 0 NMat=1 NMatS=1 NMatT=0.
 -------------------------------------------------------------------
 Center     Atomic                   Forces (Hartrees/Bohr)
 Number     Number              X              Y              Z
 -------------------------------------------------------------------
      1        9           0.000000000    0.000000000    0.000000000
      2        6           0.000000000    0.000000000    0.000000000
      3        6           0.000000000    0.000000000    0.000000000
      4        6           0.000000000    0.000000000    0.000000000
      5        6           0.000000000    0.000000000    0.000000000
      6        9           0.000000000    0.000000000    0.000000000
      7        9           0.000000000    0.000000000    0.000000000
      8        9           0.000000000    0.000000000    0.000000000
      9        6           0.000000000    0.000000000    0.000000000
     10        7           0.000000000    0.000000000    0.000000000
     11        6           0.000000000    0.000000000    0.000000000
     12       16           0.000000000    0.000000000    0.000000000
     13        1           0.000000000    0.000000000    0.000000000
     14        1           0.000000000    0.000000000    0.000000000
     15        1           0.000000000    0.000000000    0.000000000
     16        8          -0.002306877   -0.018913492    0.000068366
     17        1           0.005928181    0.008371300    0.004205683
     18        1          -0.000995541    0.008815326   -0.003706779
 -------------------------------------------------------------------
 Cartesian Forces:  Max     0.018913492 RMS     0.003272777
 -----------------------------------------------------------------------------------------------
                       Internal Coordinate Forces (Hartree/Bohr or radian)
  Cent   Atom   N1       Length/X         N2         Alpha/Y        N3         Beta/Z          J
 -----------------------------------------------------------------------------------------------
      1  F 
      2  C 
      3  C 
      4  C 
      5  C 
      6  F 
      7  F 
      8  F 
      9  C 
     10  N 
     11  C 
     12  S 
     13  H 
     14  H 
     15  H 
         X       15   0.000000(     1)     10   0.004655(     6)      9  -0.001573(    11)     0
         X       16   0.000000(     2)     15   0.000000(     7)     10  -0.000201(    12)     0
     16  O       15   0.000332(     3)     16   0.004655(     8)     17   0.000201(    13)     0
     17  H       18  -0.009370(     4)     15  -0.010115(     9)     16  -0.002804(    14)     0
     18  H       18  -0.009343(     5)     15  -0.003798(    10)     16   0.001231(    15)     0
 -----------------------------------------------------------------------------------------------
 Internal  Forces:  Max     0.010115172 RMS     0.004811236

 GradGradGradGradGradGradGradGradGradGradGradGradGradGradGradGradGradGrad
 Berny optimization.
 Search for a local minimum.
 Step number   2 out of a maximum of   20
 All quantities printed in internal units (Hartrees-Bohrs-Radians)
 Update second derivatives using D2CorN and points    1    2
 DE= -3.88D-06 DEPred=-2.30D-06 R= 1.69D+00
 SS=  1.41D+00  RLast= 9.60D-03 DXNew= 5.0454D-01 2.8788D-02
 Trust test= 1.69D+00 RLast= 9.60D-03 DXMaxT set to 3.00D-01
 The second derivative matrix:
                          RX       RDUM       ROH      ADUM      AHOA
           RX           0.01530
           RDUM         0.00000   0.00000
           ROH          0.00121   0.00000   1.12160
           ADUM        -0.00011   0.00000   0.00000   1.00452
           AHOA        -0.00307   0.00000   0.00000   0.00000   0.96000
           DOH         -0.00046   0.00000   0.00000   0.00000   0.00000
           DD1          0.00000   0.00000   0.00000  -0.00226   0.00000
           DD2          0.00000   0.00000   0.00000   0.00226   0.00000
           DH1         -0.00063   0.00000   0.00000   0.01128   0.00000
           DH2          0.00016   0.00000   0.00000  -0.01128   0.00000
                          DOH       DD1       DD2       DH1       DH2
           DOH          0.00000
           DD1          0.00000   0.31758
           DD2          0.00000  -0.31758   0.31758
           DH1          0.00000  -0.00564   0.00564   0.02814
           DH2          0.00000   0.00564  -0.00564  -0.02814   0.02814
     Eigenvalues ---    0.015301000.000001000.000001000.000001000.00000
     Eigenvalues --- 1000.000001000.000001000.000001000.000001000.00000
 RFO step:  Lambda= 0.00000000D+00 EMin= 1.53015919D-02
 Quartic linear search produced a step of  2.00000.
 Variable       Old X    -DE/DX   Delta X   Delta X   Delta X     New X
                                 (Linear)    (Quad)   (Total)
    RX        3.62578   0.00033   0.01919   0.00000   0.01919   3.64497
   RDUM       1.88973   0.00000   0.00000   0.00000   0.00000   1.88973
   ROH        1.80885  -0.01871   0.00000   0.00000   0.00000   1.80885
   ADUM       1.57080   0.00931   0.00000   0.00000   0.00000   1.57080
   AHOA       2.22948  -0.01391   0.00000   0.00000   0.00000   2.22948
   DOH        3.14159  -0.00157   0.00000   0.00000   0.00000   3.14159
   DD1        0.00000  -0.00020   0.00000   0.00000   0.00000   0.00000
   DD2        3.14159   0.00020   0.00000   0.00000   0.00000   3.14159
   DH1        0.78540  -0.00280   0.00000   0.00000   0.00000   0.78540
   DH2       -2.35619   0.00123   0.00000   0.00000   0.00000  -2.35619
         Item               Value     Threshold  Converged?
 Maximum Force            0.000332     0.000450     YES
 RMS     Force            0.000332     0.000300     NO 
 Maximum Displacement     0.019192     0.001800     NO 
 RMS     Displacement     0.006069     0.001200     NO 
 Predicted change in Energy=-3.546779D-06
 GradGradGradGradGradGradGradGradGradGradGradGradGradGradGradGradGradGrad

 ---------------------------------------------------------------------------------------------------
                            Z-MATRIX (ANGSTROMS AND DEGREES)
   CD    Cent   Atom    N1       Length/X        N2       Alpha/Y        N3        Beta/Z          J
 ---------------------------------------------------------------------------------------------------
      1      1  F       -1  -1.969300          2.053680          0.000070
      2      2  C       -1  -1.222250          0.944230          0.000030
      3      3  C       -1   0.140030          1.057400         -0.000020
      4      4  C       -1   0.927950         -0.123640         -0.000080
      5      5  C       -1   2.414660         -0.018650         -0.000010
      6      6  F       -1   3.007080         -1.234610         -0.000560
      7      7  F       -1   2.858290          0.654480         -1.086020
      8      8  F       -1   2.858270          0.653500          1.086650
      9      9  C       -1   0.306540         -1.341490         -0.000090
     10     10  N       -1  -1.054170         -1.389970         -0.000060
     11     11  C       -1  -1.930500         -0.312100          0.000000
     12     12  S       -1  -3.570980         -0.506610          0.000030
     13     13  H       -1   0.596860          2.043100         -0.000020
     14     14  H       -1   0.831760         -2.288990         -0.000150
     15     15  H       -1  -1.521480         -2.296390         -0.000090
     16         X       15   1.000000(    15)     10   90.000(    33)      9  180.000(    50)      0
     17         X       16   1.000000(    16)     15   90.000(    34)     10    0.000(    51)      0
     18     16  O       15   1.928834(    17)     16   90.000(    35)     17  180.000(    52)      0
     19     17  H       18   0.957200(    18)     15  127.740(    36)     16   45.000(    53)      0
     20     18  H       18   0.957200(    19)     15  127.740(    37)     16 -135.000(    54)      0
 ---------------------------------------------------------------------------------------------------
                         Z-Matrix orientation:                         
 ---------------------------------------------------------------------
 Center     Atomic      Atomic             Coordinates (Angstroms)
 Number     Number       Type             X           Y           Z
 ---------------------------------------------------------------------
      1          9           0       -1.969300    2.053680    0.000070
      2          6           0       -1.222250    0.944230    0.000030
      3          6           0        0.140030    1.057400   -0.000020
      4          6           0        0.927950   -0.123640   -0.000080
      5          6           0        2.414660   -0.018650   -0.000010
      6          9           0        3.007080   -1.234610   -0.000560
      7          9           0        2.858290    0.654480   -1.086020
      8          9           0        2.858270    0.653500    1.086650
      9          6           0        0.306540   -1.341490   -0.000090
     10          7           0       -1.054170   -1.389970   -0.000060
     11          6           0       -1.930500   -0.312100    0.000000
     12         16           0       -3.570980   -0.506610    0.000030
     13          1           0        0.596860    2.043100   -0.000020
     14          1           0        0.831760   -2.288990   -0.000150
     15          1           0       -1.521480   -2.296390   -0.000090
     16         -1           0       -2.410308   -1.838150   -0.000048
     17         -1           0       -1.952068   -0.949321   -0.000019
     18          8           0       -2.405350   -4.010792   -0.000147
     19          1           0       -3.149578   -4.286246   -0.535386
     20          1           0       -2.198071   -4.776836    0.535058
 ---------------------------------------------------------------------
                    Distance matrix (angstroms):
                    1          2          3          4          5
     1  F    0.000000
     2  C    1.337521   0.000000
     3  C    2.332777   1.366973   0.000000
     4  C    3.624194   2.400772   1.419744   0.000000
     5  C    4.849088   3.762214   2.516312   1.490413   0.000000
     6  F    5.964663   4.757581   3.670597   2.357337   1.352598
     7  F    5.142274   4.232525   2.954772   2.347541   1.352527
     8  F    5.142625   4.232719   2.955134   2.347566   1.352555
     9  C    4.087374   2.749857   2.404662   1.367227   2.488790
    10  N    3.563171   2.340244   2.723184   2.352104   3.730054
    11  C    2.366098   1.442215   2.482463   2.864656   4.355058
    12  S    3.020011   2.760701   4.027123   4.515201   6.005497
    13  H    2.566182   2.125247   1.086415   2.191890   2.748674
    14  H    5.167661   3.830492   3.417136   2.167485   2.767673
    15  H    4.373060   3.254406   3.742796   3.274225   4.547669
    16  X    3.916737   3.025412   3.858553   3.752800   5.156636
    17  X    3.003051   2.029328   2.898931   2.996039   4.464802
    18  O    6.080128   5.094308   5.671466   5.120629   6.258570
    19  H    6.471045   5.599923   6.297832   5.851502   7.032762
    20  H    6.855253   5.828300   6.308037   5.631218   6.648603
                    6          7          8          9         10
     6  F    0.000000
     7  F    2.183809   0.000000
     8  F    2.183834   2.172670   0.000000
     9  C    2.702654   3.416807   3.416477   0.000000
    10  N    4.064221   4.546034   4.545756   1.361573   0.000000
    11  C    5.023019   5.004620   5.004549   2.462517   1.389157
    12  S    6.618222   6.622926   6.622828   3.966382   2.667332
    13  H    4.068482   2.867355   2.868068   3.397019   3.809445
    14  H    2.417382   3.734964   3.734451   1.083334   2.089251
    15  H    4.651369   5.391592   5.391203   2.062399   1.019792
    16  X    5.450904   5.928800   5.928503   2.761872   1.428277
    17  X    4.967347   5.185665   5.185483   2.292402   1.000196
    18  O    6.082893   7.116867   7.116350   3.805196   2.948626
    19  H    6.892239   7.797977   7.945208   4.571967   3.614654
    20  H    6.318849   7.595649   7.440389   4.284981   3.614654
                   11         12         13         14         15
    11  C    0.000000
    12  S    1.651971   0.000000
    13  H    3.454637   4.885889   0.000000
    14  H    3.396789   4.749842   4.338454   0.000000
    15  H    2.026007   2.720986   4.828927   2.353252   0.000000
    16  X    1.599701   1.766396   4.909904   3.273265   1.000000
    17  X    0.637586   1.678353   3.930855   3.089403   1.414214
    18  O    3.729049   3.692964   6.757431   3.666535   1.928834
    19  H    4.191256   3.840559   7.374485   4.486264   2.626171
    20  H    4.504636   4.517296   7.389822   3.956729   2.626171
                   16         17         18         19         20
    16  X    0.000000
    17  X    1.000000   0.000000
    18  O    2.172648   3.094845   0.000000
    19  H    2.612715   3.585487   0.957200   0.000000
    20  H    2.994539   3.872556   0.957200   1.513901   0.000000
 Symmetry turned off by external request.
 Stoichiometry    C6H5F4NOS
 Framework group  C1[X(C6H5F4NOS)]
 Deg. of freedom    48
 Full point group                 C1      NOp   1
 Rotational constants (GHZ):      0.9885009      0.3867062      0.2925826
 Standard basis: 6-31G(d) (6D, 7F)
 Integral buffers will be    131072 words long.
 Raffenetti 1 integral format.
 Two-electron integral symmetry is turned off.
   209 basis functions,   408 primitive gaussians,   209 cartesian basis functions
    54 alpha electrons       54 beta electrons
       nuclear repulsion energy       919.8004981668 Hartrees.
 NAtoms=   18 NActive=   18 NUniq=   18 SFac= 7.50D-01 NAtFMM=   80 NAOKFM=F Big=F
 One-electron integrals computed using PRISM.
 NBasis=   209 RedAO= T  NBF=   209
 NBsUse=   209 1.00D-06 NBFU=   209
 Initial guess read from the read-write file.
 B after Tr=     0.000000    0.000000    0.000000
         Rot=    1.000000    0.000000    0.000000    0.000000 Ang=   0.00 deg.
 Requested convergence on RMS density matrix=1.00D-08 within 128 cycles.
 Requested convergence on MAX density matrix=1.00D-06.
 Requested convergence on             energy=1.00D-06.
 No special actions if energy rises.
 SCF Done:  E(RHF) =  -1154.68475695     A.U. after    9 cycles
             Convg  =    0.4495D-08             -V/T =  2.0018
 Calling FoFJK, ICntrl=      2127 FMM=F ISym2X=0 I1Cent= 0 IOpClX= 0 NMat=1 NMatS=1 NMatT=0.
 -------------------------------------------------------------------
 Center     Atomic                   Forces (Hartrees/Bohr)
 Number     Number              X              Y              Z
 -------------------------------------------------------------------
      1        9           0.000000000    0.000000000    0.000000000
      2        6           0.000000000    0.000000000    0.000000000
      3        6           0.000000000    0.000000000    0.000000000
      4        6           0.000000000    0.000000000    0.000000000
      5        6           0.000000000    0.000000000    0.000000000
      6        9           0.000000000    0.000000000    0.000000000
      7        9           0.000000000    0.000000000    0.000000000
      8        9           0.000000000    0.000000000    0.000000000
      9        6           0.000000000    0.000000000    0.000000000
     10        7           0.000000000    0.000000000    0.000000000
     11        6           0.000000000    0.000000000    0.000000000
     12       16           0.000000000    0.000000000    0.000000000
     13        1           0.000000000    0.000000000    0.000000000
     14        1           0.000000000    0.000000000    0.000000000
     15        1           0.000000000    0.000000000    0.000000000
     16        8          -0.002214705   -0.018616808    0.000066418
     17        1           0.005958464    0.008334136    0.004225968
     18        1          -0.001013453    0.008820013   -0.003731025
 -------------------------------------------------------------------
 Cartesian Forces:  Max     0.018616808 RMS     0.003240528
 -----------------------------------------------------------------------------------------------
                       Internal Coordinate Forces (Hartree/Bohr or radian)
  Cent   Atom   N1       Length/X         N2         Alpha/Y        N3         Beta/Z          J
 -----------------------------------------------------------------------------------------------
      1  F 
      2  C 
      3  C 
      4  C 
      5  C 
      6  F 
      7  F 
      8  F 
      9  C 
     10  N 
     11  C 
     12  S 
     13  H 
     14  H 
     15  H 
         X       15   0.000000(     1)     10   0.004657(     6)      9  -0.001556(    11)     0
         X       16   0.000000(     2)     15   0.000000(     7)     10  -0.000201(    12)     0
     16  O       15   0.000049(     3)     16   0.004657(     8)     17   0.000201(    13)     0
     17  H       18  -0.009394(     4)     15  -0.010037(     9)     16  -0.002780(    14)     0
     18  H       18  -0.009364(     5)     15  -0.003759(    10)     16   0.001225(    15)     0
 -----------------------------------------------------------------------------------------------
 Internal  Forces:  Max     0.010037484 RMS     0.004802243

 GradGradGradGradGradGradGradGradGradGradGradGradGradGradGradGradGradGrad
 Berny optimization.
 Search for a local minimum.
 Step number   3 out of a maximum of   20
 All quantities printed in internal units (Hartrees-Bohrs-Radians)
 Update second derivatives using D2CorN and points    2    3
 DE= -3.63D-06 DEPred=-3.55D-06 R= 1.02D+00
 SS=  1.41D+00  RLast= 1.92D-02 DXNew= 5.0454D-01 5.7576D-02
 Trust test= 1.02D+00 RLast= 1.92D-02 DXMaxT set to 3.00D-01
 The second derivative matrix:
                          RX       RDUM       ROH      ADUM      AHOA
           RX           0.01473
           RDUM         0.00000   0.00000
           ROH          0.00179   0.00000   1.12160
           ADUM        -0.00012   0.00000   0.00000   1.00452
           AHOA        -0.00457   0.00000   0.00000   0.00000   0.96000
           DOH         -0.00069   0.00000   0.00000   0.00000   0.00000
           DD1         -0.00001   0.00000   0.00000  -0.00226   0.00000
           DD2          0.00001   0.00000   0.00000   0.00226   0.00000
           DH1         -0.00094   0.00000   0.00000   0.01128   0.00000
           DH2          0.00025   0.00000   0.00000  -0.01128   0.00000
                          DOH       DD1       DD2       DH1       DH2
           DOH          0.00000
           DD1          0.00000   0.31758
           DD2          0.00000  -0.31758   0.31758
           DH1          0.00000  -0.00564   0.00564   0.02814
           DH2          0.00000   0.00564  -0.00564  -0.02814   0.02814
     Eigenvalues ---    0.014731000.000001000.000001000.000001000.00000
     Eigenvalues --- 1000.000001000.000001000.000001000.000001000.00000
 RFO step:  Lambda= 0.00000000D+00 EMin= 1.47321152D-02
 Quartic linear search produced a step of  0.17826.
 Variable       Old X    -DE/DX   Delta X   Delta X   Delta X     New X
                                 (Linear)    (Quad)   (Total)
    RX        3.64497   0.00005   0.00342   0.00000   0.00342   3.64839
   RDUM       1.88973   0.00000   0.00000   0.00000   0.00000   1.88973
   ROH        1.80885  -0.01876   0.00000   0.00000   0.00000   1.80885
   ADUM       1.57080   0.00931   0.00000   0.00000   0.00000   1.57080
   AHOA       2.22948  -0.01380   0.00000   0.00000   0.00000   2.22948
   DOH        3.14159  -0.00156   0.00000   0.00000   0.00000   3.14159
   DD1        0.00000  -0.00020   0.00000   0.00000   0.00000   0.00000
   DD2        3.14159   0.00020   0.00000   0.00000   0.00000   3.14159
   DH1        0.78540  -0.00278   0.00000   0.00000   0.00000   0.78540
   DH2       -2.35619   0.00122   0.00000   0.00000   0.00000  -2.35619
         Item               Value     Threshold  Converged?
 Maximum Force            0.000049     0.000450     YES
 RMS     Force            0.000049     0.000300     YES
 Maximum Displacement     0.003421     0.001800     NO 
 RMS     Displacement     0.001082     0.001200     YES
 Predicted change in Energy=-8.107926D-08
 GradGradGradGradGradGradGradGradGradGradGradGradGradGradGradGradGradGrad

 ---------------------------------------------------------------------------------------------------
                            Z-MATRIX (ANGSTROMS AND DEGREES)
   CD    Cent   Atom    N1       Length/X        N2       Alpha/Y        N3        Beta/Z          J
 ---------------------------------------------------------------------------------------------------
      1      1  F       -1  -1.969300          2.053680          0.000070
      2      2  C       -1  -1.222250          0.944230          0.000030
      3      3  C       -1   0.140030          1.057400         -0.000020
      4      4  C       -1   0.927950         -0.123640         -0.000080
      5      5  C       -1   2.414660         -0.018650         -0.000010
      6      6  F       -1   3.007080         -1.234610         -0.000560
      7      7  F       -1   2.858290          0.654480         -1.086020
      8      8  F       -1   2.858270          0.653500          1.086650
      9      9  C       -1   0.306540         -1.341490         -0.000090
     10     10  N       -1  -1.054170         -1.389970         -0.000060
     11     11  C       -1  -1.930500         -0.312100          0.000000
     12     12  S       -1  -3.570980         -0.506610          0.000030
     13     13  H       -1   0.596860          2.043100         -0.000020
     14     14  H       -1   0.831760         -2.288990         -0.000150
     15     15  H       -1  -1.521480         -2.296390         -0.000090
     16         X       15   1.000000(    15)     10   90.000(    33)      9  180.000(    50)      0
     17         X       16   1.000000(    16)     15   90.000(    34)     10    0.000(    51)      0
     18     16  O       15   1.930644(    17)     16   90.000(    35)     17  180.000(    52)      0
     19     17  H       18   0.957200(    18)     15  127.740(    36)     16   45.000(    53)      0
     20     18  H       18   0.957200(    19)     15  127.740(    37)     16 -135.000(    54)      0
 ---------------------------------------------------------------------------------------------------
                         Z-Matrix orientation:                         
 ---------------------------------------------------------------------
 Center     Atomic      Atomic             Coordinates (Angstroms)
 Number     Number       Type             X           Y           Z
 ---------------------------------------------------------------------
      1          9           0       -1.969300    2.053680    0.000070
      2          6           0       -1.222250    0.944230    0.000030
      3          6           0        0.140030    1.057400   -0.000020
      4          6           0        0.927950   -0.123640   -0.000080
      5          6           0        2.414660   -0.018650   -0.000010
      6          9           0        3.007080   -1.234610   -0.000560
      7          9           0        2.858290    0.654480   -1.086020
      8          9           0        2.858270    0.653500    1.086650
      9          6           0        0.306540   -1.341490   -0.000090
     10          7           0       -1.054170   -1.389970   -0.000060
     11          6           0       -1.930500   -0.312100    0.000000
     12         16           0       -3.570980   -0.506610    0.000030
     13          1           0        0.596860    2.043100   -0.000020
     14          1           0        0.831760   -2.288990   -0.000150
     15          1           0       -1.521480   -2.296390   -0.000090
     16         -1           0       -2.410308   -1.838150   -0.000048
     17         -1           0       -1.952068   -0.949321   -0.000019
     18          8           0       -2.406179   -4.012401   -0.000147
     19          1           0       -3.150408   -4.287855   -0.535386
     20          1           0       -2.198901   -4.778445    0.535058
 ---------------------------------------------------------------------
                    Distance matrix (angstroms):
                    1          2          3          4          5
     1  F    0.000000
     2  C    1.337521   0.000000
     3  C    2.332777   1.366973   0.000000
     4  C    3.624194   2.400772   1.419744   0.000000
     5  C    4.849088   3.762214   2.516312   1.490413   0.000000
     6  F    5.964663   4.757581   3.670597   2.357337   1.352598
     7  F    5.142274   4.232525   2.954772   2.347541   1.352527
     8  F    5.142625   4.232719   2.955134   2.347566   1.352555
     9  C    4.087374   2.749857   2.404662   1.367227   2.488790
    10  N    3.563171   2.340244   2.723184   2.352104   3.730054
    11  C    2.366098   1.442215   2.482463   2.864656   4.355058
    12  S    3.020011   2.760701   4.027123   4.515201   6.005497
    13  H    2.566182   2.125247   1.086415   2.191890   2.748674
    14  H    5.167661   3.830492   3.417136   2.167485   2.767673
    15  H    4.373060   3.254406   3.742796   3.274225   4.547669
    16  X    3.916737   3.025412   3.858553   3.752800   5.156636
    17  X    3.003051   2.029328   2.898931   2.996039   4.464802
    18  O    6.081793   5.096065   5.673277   5.122390   6.260235
    19  H    6.472773   5.601712   6.299631   5.853225   7.034395
    20  H    6.856884   5.830018   6.309833   5.633008   6.650330
                    6          7          8          9         10
     6  F    0.000000
     7  F    2.183809   0.000000
     8  F    2.183834   2.172670   0.000000
     9  C    2.702654   3.416807   3.416477   0.000000
    10  N    4.064221   4.546034   4.545756   1.361573   0.000000
    11  C    5.023019   5.004620   5.004549   2.462517   1.389157
    12  S    6.618222   6.622926   6.622828   3.966382   2.667332
    13  H    4.068482   2.867355   2.868068   3.397019   3.809445
    14  H    2.417382   3.734964   3.734451   1.083334   2.089251
    15  H    4.651369   5.391592   5.391203   2.062399   1.019792
    16  X    5.450904   5.928800   5.928503   2.761872   1.428277
    17  X    4.967347   5.185665   5.185483   2.292402   1.000196
    18  O    6.084365   7.118535   7.118019   3.806917   2.950436
    19  H    6.893693   7.799636   7.946836   4.573631   3.616424
    20  H    6.320435   7.597352   7.442127   4.286756   3.616424
                   11         12         13         14         15
    11  C    0.000000
    12  S    1.651971   0.000000
    13  H    3.454637   4.885889   0.000000
    14  H    3.396789   4.749842   4.338454   0.000000
    15  H    2.026007   2.720986   4.828927   2.353252   0.000000
    16  X    1.599701   1.766396   4.909904   3.273265   1.000000
    17  X    0.637586   1.678353   3.930855   3.089403   1.414214
    18  O    3.730751   3.694230   6.759241   3.668024   1.930644
    19  H    4.193023   3.842052   7.376288   4.487716   2.627904
    20  H    4.506281   4.518565   7.391621   3.958376   2.627904
                   16         17         18         19         20
    16  X    0.000000
    17  X    1.000000   0.000000
    18  O    2.174256   3.096559   0.000000
    19  H    2.614458   3.587261   0.957200   0.000000
    20  H    2.996059   3.874200   0.957200   1.513901   0.000000
 Symmetry turned off by external request.
 Stoichiometry    C6H5F4NOS
 Framework group  C1[X(C6H5F4NOS)]
 Deg. of freedom    48
 Full point group                 C1      NOp   1
 Rotational constants (GHZ):      0.9881875      0.3866698      0.2925344
 Standard basis: 6-31G(d) (6D, 7F)
 Integral buffers will be    131072 words long.
 Raffenetti 1 integral format.
 Two-electron integral symmetry is turned off.
   209 basis functions,   408 primitive gaussians,   209 cartesian basis functions
    54 alpha electrons       54 beta electrons
       nuclear repulsion energy       919.7612035522 Hartrees.
 NAtoms=   18 NActive=   18 NUniq=   18 SFac= 7.50D-01 NAtFMM=   80 NAOKFM=F Big=F
 One-electron integrals computed using PRISM.
 NBasis=   209 RedAO= T  NBF=   209
 NBsUse=   209 1.00D-06 NBFU=   209
 Initial guess read from the read-write file.
 B after Tr=     0.000000    0.000000    0.000000
         Rot=    1.000000    0.000000    0.000000    0.000000 Ang=   0.00 deg.
 Requested convergence on RMS density matrix=1.00D-08 within 128 cycles.
 Requested convergence on MAX density matrix=1.00D-06.
 Requested convergence on             energy=1.00D-06.
 No special actions if energy rises.
 SCF Done:  E(RHF) =  -1154.68475703     A.U. after    8 cycles
             Convg  =    0.2022D-08             -V/T =  2.0018
 Calling FoFJK, ICntrl=      2127 FMM=F ISym2X=0 I1Cent= 0 IOpClX= 0 NMat=1 NMatS=1 NMatT=0.
 -------------------------------------------------------------------
 Center     Atomic                   Forces (Hartrees/Bohr)
 Number     Number              X              Y              Z
 -------------------------------------------------------------------
      1        9           0.000000000    0.000000000    0.000000000
      2        6           0.000000000    0.000000000    0.000000000
      3        6           0.000000000    0.000000000    0.000000000
      4        6           0.000000000    0.000000000    0.000000000
      5        6           0.000000000    0.000000000    0.000000000
      6        9           0.000000000    0.000000000    0.000000000
      7        9           0.000000000    0.000000000    0.000000000
      8        9           0.000000000    0.000000000    0.000000000
      9        6           0.000000000    0.000000000    0.000000000
     10        7           0.000000000    0.000000000    0.000000000
     11        6           0.000000000    0.000000000    0.000000000
     12       16           0.000000000    0.000000000    0.000000000
     13        1           0.000000000    0.000000000    0.000000000
     14        1           0.000000000    0.000000000    0.000000000
     15        1           0.000000000    0.000000000    0.000000000
     16        8          -0.002198927   -0.018565253    0.000066071
     17        1           0.005963793    0.008327536    0.004229531
     18        1          -0.001016602    0.008820821   -0.003735289
 -------------------------------------------------------------------
 Cartesian Forces:  Max     0.018565253 RMS     0.003234950
 -----------------------------------------------------------------------------------------------
                       Internal Coordinate Forces (Hartree/Bohr or radian)
  Cent   Atom   N1       Length/X         N2         Alpha/Y        N3         Beta/Z          J
 -----------------------------------------------------------------------------------------------
      1  F 
      2  C 
      3  C 
      4  C 
      5  C 
      6  F 
      7  F 
      8  F 
      9  C 
     10  N 
     11  C 
     12  S 
     13  H 
     14  H 
     15  H 
         X       15   0.000000(     1)     10   0.004657(     6)      9  -0.001553(    11)     0
         X       16   0.000000(     2)     15   0.000000(     7)     10  -0.000201(    12)     0
     16  O       15   0.000000(     3)     16   0.004657(     8)     17   0.000201(    13)     0
     17  H       18  -0.009398(     4)     15  -0.010024(     9)     16  -0.002776(    14)     0
     18  H       18  -0.009368(     5)     15  -0.003752(    10)     16   0.001224(    15)     0
 -----------------------------------------------------------------------------------------------
 Internal  Forces:  Max     0.010023721 RMS     0.004800754

 GradGradGradGradGradGradGradGradGradGradGradGradGradGradGradGradGradGrad
 Berny optimization.
 Search for a local minimum.
 Step number   4 out of a maximum of   20
 All quantities printed in internal units (Hartrees-Bohrs-Radians)
 Update second derivatives using D2CorN and points    3    4
 DE= -8.35D-08 DEPred=-8.11D-08 R= 1.03D+00
 Trust test= 1.03D+00 RLast= 3.42D-03 DXMaxT set to 3.00D-01
 The second derivative matrix:
                          RX       RDUM       ROH      ADUM      AHOA
           RX           0.01429
           RDUM         0.00000   0.00000
           ROH          0.00205   0.00000   1.12160
           ADUM        -0.00010   0.00000   0.00000   1.00452
           AHOA        -0.00530   0.00000   0.00000   0.00000   0.96000
           DOH         -0.00080   0.00000   0.00000   0.00000   0.00000
           DD1         -0.00001   0.00000   0.00000  -0.00226   0.00000
           DD2          0.00001   0.00000   0.00000   0.00226   0.00000
           DH1         -0.00109   0.00000   0.00000   0.01128   0.00000
           DH2          0.00028   0.00000   0.00000  -0.01128   0.00000
                          DOH       DD1       DD2       DH1       DH2
           DOH          0.00000
           DD1          0.00000   0.31758
           DD2          0.00000  -0.31758   0.31758
           DH1          0.00000  -0.00564   0.00564   0.02814
           DH2          0.00000   0.00564  -0.00564  -0.02814   0.02814
     Eigenvalues ---    0.014291000.000001000.000001000.000001000.00000
     Eigenvalues --- 1000.000001000.000001000.000001000.000001000.00000
 RFO step:  Lambda= 0.00000000D+00 EMin= 1.42946242D-02
 Quartic linear search produced a step of -0.00011.
 Variable       Old X    -DE/DX   Delta X   Delta X   Delta X     New X
                                 (Linear)    (Quad)   (Total)
    RX        3.64839   0.00000   0.00000   0.00000   0.00000   3.64839
   RDUM       1.88973   0.00000   0.00000   0.00000   0.00000   1.88973
   ROH        1.80885  -0.01877   0.00000   0.00000   0.00000   1.80885
   ADUM       1.57080   0.00931   0.00000   0.00000   0.00000   1.57080
   AHOA       2.22948  -0.01378   0.00000   0.00000   0.00000   2.22948
   DOH        3.14159  -0.00155   0.00000   0.00000   0.00000   3.14159
   DD1        0.00000  -0.00020   0.00000   0.00000   0.00000   0.00000
   DD2        3.14159   0.00020   0.00000   0.00000   0.00000   3.14159
   DH1        0.78540  -0.00278   0.00000   0.00000   0.00000   0.78540
   DH2       -2.35619   0.00122   0.00000   0.00000   0.00000  -2.35619
         Item               Value     Threshold  Converged?
 Maximum Force            0.000000     0.000450     YES
 RMS     Force            0.000000     0.000300     YES
 Maximum Displacement     0.000000     0.001800     YES
 RMS     Displacement     0.000000     0.001200     YES
 Predicted change in Energy=-1.025342D-15
 Optimization completed.
    -- Stationary point found.
                       ----------------------------
                       !   Optimized Parameters   !
                       ! (Angstroms and Degrees)  !
 ----------------------                            ----------------------
 !      Name          Value   Derivative information (Atomic Units)     !
 ------------------------------------------------------------------------
 !       RX          1.9306   -DE/DX =    0.0                           !
 !      RDUM         1.0      -DE/DX =    0.0                           !
 !       ROH         0.9572   -DE/DX =   -0.0188                        !
 !      ADUM        90.0      -DE/DX =    0.0093                        !
 !      AHOA       127.74     -DE/DX =   -0.0138                        !
 !       DOH       180.0      -DE/DX =   -0.0016                        !
 !       DD1         0.0      -DE/DX =   -0.0002                        !
 !       DD2       180.0      -DE/DX =    0.0002                        !
 !       DH1        45.0      -DE/DX =   -0.0028                        !
 !       DH2      -135.0      -DE/DX =    0.0012                        !
 ------------------------------------------------------------------------
 GradGradGradGradGradGradGradGradGradGradGradGradGradGradGradGradGradGrad

 ---------------------------------------------------------------------------------------------------
                            Z-MATRIX (ANGSTROMS AND DEGREES)
   CD    Cent   Atom    N1       Length/X        N2       Alpha/Y        N3        Beta/Z          J
 ---------------------------------------------------------------------------------------------------
      1      1  F       -1  -1.969300          2.053680          0.000070
      2      2  C       -1  -1.222250          0.944230          0.000030
      3      3  C       -1   0.140030          1.057400         -0.000020
      4      4  C       -1   0.927950         -0.123640         -0.000080
      5      5  C       -1   2.414660         -0.018650         -0.000010
      6      6  F       -1   3.007080         -1.234610         -0.000560
      7      7  F       -1   2.858290          0.654480         -1.086020
      8      8  F       -1   2.858270          0.653500          1.086650
      9      9  C       -1   0.306540         -1.341490         -0.000090
     10     10  N       -1  -1.054170         -1.389970         -0.000060
     11     11  C       -1  -1.930500         -0.312100          0.000000
     12     12  S       -1  -3.570980         -0.506610          0.000030
     13     13  H       -1   0.596860          2.043100         -0.000020
     14     14  H       -1   0.831760         -2.288990         -0.000150
     15     15  H       -1  -1.521480         -2.296390         -0.000090
     16         X       15   1.000000(    15)     10   90.000(    33)      9  180.000(    50)      0
     17         X       16   1.000000(    16)     15   90.000(    34)     10    0.000(    51)      0
     18     16  O       15   1.930644(    17)     16   90.000(    35)     17  180.000(    52)      0
     19     17  H       18   0.957200(    18)     15  127.740(    36)     16   45.000(    53)      0
     20     18  H       18   0.957200(    19)     15  127.740(    37)     16 -135.000(    54)      0
 ---------------------------------------------------------------------------------------------------
                         Z-Matrix orientation:                         
 ---------------------------------------------------------------------
 Center     Atomic      Atomic             Coordinates (Angstroms)
 Number     Number       Type             X           Y           Z
 ---------------------------------------------------------------------
      1          9           0       -1.969300    2.053680    0.000070
      2          6           0       -1.222250    0.944230    0.000030
      3          6           0        0.140030    1.057400   -0.000020
      4          6           0        0.927950   -0.123640   -0.000080
      5          6           0        2.414660   -0.018650   -0.000010
      6          9           0        3.007080   -1.234610   -0.000560
      7          9           0        2.858290    0.654480   -1.086020
      8          9           0        2.858270    0.653500    1.086650
      9          6           0        0.306540   -1.341490   -0.000090
     10          7           0       -1.054170   -1.389970   -0.000060
     11          6           0       -1.930500   -0.312100    0.000000
     12         16           0       -3.570980   -0.506610    0.000030
     13          1           0        0.596860    2.043100   -0.000020
     14          1           0        0.831760   -2.288990   -0.000150
     15          1           0       -1.521480   -2.296390   -0.000090
     16         -1           0       -2.410308   -1.838150   -0.000048
     17         -1           0       -1.952068   -0.949321   -0.000019
     18          8           0       -2.406179   -4.012401   -0.000147
     19          1           0       -3.150408   -4.287855   -0.535386
     20          1           0       -2.198901   -4.778445    0.535058
 ---------------------------------------------------------------------
                    Distance matrix (angstroms):
                    1          2          3          4          5
     1  F    0.000000
     2  C    1.337521   0.000000
     3  C    2.332777   1.366973   0.000000
     4  C    3.624194   2.400772   1.419744   0.000000
     5  C    4.849088   3.762214   2.516312   1.490413   0.000000
     6  F    5.964663   4.757581   3.670597   2.357337   1.352598
     7  F    5.142274   4.232525   2.954772   2.347541   1.352527
     8  F    5.142625   4.232719   2.955134   2.347566   1.352555
     9  C    4.087374   2.749857   2.404662   1.367227   2.488790
    10  N    3.563171   2.340244   2.723184   2.352104   3.730054
    11  C    2.366098   1.442215   2.482463   2.864656   4.355058
    12  S    3.020011   2.760701   4.027123   4.515201   6.005497
    13  H    2.566182   2.125247   1.086415   2.191890   2.748674
    14  H    5.167661   3.830492   3.417136   2.167485   2.767673
    15  H    4.373060   3.254406   3.742796   3.274225   4.547669
    16  X    3.916737   3.025412   3.858553   3.752800   5.156636
    17  X    3.003051   2.029328   2.898931   2.996039   4.464802
    18  O    6.081793   5.096065   5.673277   5.122390   6.260235
    19  H    6.472773   5.601712   6.299631   5.853225   7.034395
    20  H    6.856884   5.830018   6.309833   5.633008   6.650330
                    6          7          8          9         10
     6  F    0.000000
     7  F    2.183809   0.000000
     8  F    2.183834   2.172670   0.000000
     9  C    2.702654   3.416807   3.416477   0.000000
    10  N    4.064221   4.546034   4.545756   1.361573   0.000000
    11  C    5.023019   5.004620   5.004549   2.462517   1.389157
    12  S    6.618222   6.622926   6.622828   3.966382   2.667332
    13  H    4.068482   2.867355   2.868068   3.397019   3.809445
    14  H    2.417382   3.734964   3.734451   1.083334   2.089251
    15  H    4.651369   5.391592   5.391203   2.062399   1.019792
    16  X    5.450904   5.928800   5.928503   2.761872   1.428277
    17  X    4.967347   5.185665   5.185483   2.292402   1.000196
    18  O    6.084365   7.118535   7.118019   3.806917   2.950436
    19  H    6.893693   7.799636   7.946836   4.573631   3.616424
    20  H    6.320435   7.597352   7.442127   4.286756   3.616424
                   11         12         13         14         15
    11  C    0.000000
    12  S    1.651971   0.000000
    13  H    3.454637   4.885889   0.000000
    14  H    3.396789   4.749842   4.338454   0.000000
    15  H    2.026007   2.720986   4.828927   2.353252   0.000000
    16  X    1.599701   1.766396   4.909904   3.273265   1.000000
    17  X    0.637586   1.678353   3.930855   3.089403   1.414214
    18  O    3.730751   3.694230   6.759241   3.668024   1.930644
    19  H    4.193023   3.842052   7.376288   4.487716   2.627904
    20  H    4.506281   4.518565   7.391621   3.958376   2.627904
                   16         17         18         19         20
    16  X    0.000000
    17  X    1.000000   0.000000
    18  O    2.174256   3.096559   0.000000
    19  H    2.614458   3.587261   0.957200   0.000000
    20  H    2.996059   3.874200   0.957200   1.513901   0.000000
 Symmetry turned off by external request.
 Stoichiometry    C6H5F4NOS
 Framework group  C1[X(C6H5F4NOS)]
 Deg. of freedom    48
 Full point group                 C1      NOp   1
 Rotational constants (GHZ):      0.9881875      0.3866698      0.2925344

 **********************************************************************

            Population analysis using the SCF density.

 **********************************************************************

 Alpha  occ. eigenvalues --  -91.88663 -26.35847 -26.34889 -26.34885 -26.32132
 Alpha  occ. eigenvalues --  -20.60221 -15.66040 -11.53051 -11.36090 -11.35660
 Alpha  occ. eigenvalues --  -11.34467 -11.29827 -11.28784  -8.89777  -6.58114
 Alpha  occ. eigenvalues --   -6.57835  -6.57708  -1.73086  -1.64105  -1.63416
 Alpha  occ. eigenvalues --   -1.63406  -1.38342  -1.33355  -1.15564  -1.10391
 Alpha  occ. eigenvalues --   -1.01583  -0.95639  -0.91125  -0.86583  -0.83494
 Alpha  occ. eigenvalues --   -0.82627  -0.82331  -0.75425  -0.74680  -0.74474
 Alpha  occ. eigenvalues --   -0.72418  -0.71271  -0.70505  -0.70023  -0.68908
 Alpha  occ. eigenvalues --   -0.66523  -0.66511  -0.65109  -0.62674  -0.61864
 Alpha  occ. eigenvalues --   -0.60470  -0.59215  -0.57563  -0.53979  -0.50897
 Alpha  occ. eigenvalues --   -0.44941  -0.41627  -0.32363  -0.29424
 Alpha virt. eigenvalues --    0.06147   0.10240   0.17449   0.22623   0.26433
 Alpha virt. eigenvalues --    0.27172   0.27810   0.28069   0.31044   0.32629
 Alpha virt. eigenvalues --    0.35418   0.40037   0.41859   0.42173   0.44162
 Alpha virt. eigenvalues --    0.44574   0.48383   0.51246   0.55645   0.57000
 Alpha virt. eigenvalues --    0.58074   0.61181   0.63154   0.65847   0.68127
 Alpha virt. eigenvalues --    0.69115   0.73424   0.74457   0.74976   0.76898
 Alpha virt. eigenvalues --    0.78619   0.79545   0.84667   0.85957   0.88924
 Alpha virt. eigenvalues --    0.90588   0.91356   0.93545   0.96912   0.98229
 Alpha virt. eigenvalues --    1.02219   1.03516   1.04819   1.05982   1.09262
 Alpha virt. eigenvalues --    1.10901   1.12260   1.14352   1.14427   1.16333
 Alpha virt. eigenvalues --    1.17672   1.18886   1.21929   1.26083   1.29592
 Alpha virt. eigenvalues --    1.31202   1.32643   1.33230   1.34571   1.36053
 Alpha virt. eigenvalues --    1.38027   1.40114   1.40467   1.43826   1.44336
 Alpha virt. eigenvalues --    1.45940   1.48752   1.53380   1.56990   1.61672
 Alpha virt. eigenvalues --    1.61974   1.62701   1.65005   1.65501   1.65920
 Alpha virt. eigenvalues --    1.66720   1.68199   1.69189   1.71052   1.71990
 Alpha virt. eigenvalues --    1.74442   1.78008   1.78294   1.82430   1.87924
 Alpha virt. eigenvalues --    1.91048   1.93676   1.95322   1.99251   2.01321
 Alpha virt. eigenvalues --    2.02194   2.06060   2.07423   2.10418   2.11263
 Alpha virt. eigenvalues --    2.13072   2.13368   2.16817   2.19690   2.21736
 Alpha virt. eigenvalues --    2.23862   2.24068   2.25910   2.29546   2.31651
 Alpha virt. eigenvalues --    2.32372   2.33915   2.36028   2.36480   2.37155
 Alpha virt. eigenvalues --    2.40083   2.44145   2.45349   2.47034   2.47493
 Alpha virt. eigenvalues --    2.48799   2.53901   2.58596   2.62298   2.63611
 Alpha virt. eigenvalues --    2.68557   2.70519   2.76522   2.84582   2.85892
 Alpha virt. eigenvalues --    2.86897   2.91006   2.93313   2.94607   2.94935
 Alpha virt. eigenvalues --    3.02032   3.08525   3.11248   3.18773   3.23915
 Alpha virt. eigenvalues --    3.31220   3.38478   3.39536   3.44236   3.45605
 Alpha virt. eigenvalues --    3.50854   3.72990   4.07417   4.40456   4.45854
 Alpha virt. eigenvalues --    4.48151   4.51234   4.62932   4.65707   4.69693
 Alpha virt. eigenvalues --    4.83539   5.02977   5.16840   5.59776   6.02928
          Condensed to atoms (all electrons):
              1          2          3          4          5          6
     1  F    9.166149   0.265416  -0.033916   0.002217  -0.000015   0.000000
     2  C    0.265416   4.577586   0.568465  -0.027312   0.000832  -0.000019
     3  C   -0.033916   0.568465   5.066049   0.358257  -0.012701   0.002182
     4  C    0.002217  -0.027312   0.358257   5.214587   0.418816  -0.045354
     5  C   -0.000015   0.000832  -0.012701   0.418816   3.554679   0.288101
     6  F    0.000000  -0.000019   0.002182  -0.045354   0.288101   9.191600
     7  F    0.000000   0.000294   0.005039  -0.055776   0.283482  -0.030703
     8  F    0.000000   0.000293   0.005040  -0.055812   0.283461  -0.030703
     9  C    0.000129  -0.022244  -0.054241   0.583832  -0.021327   0.005288
    10  N    0.001390  -0.054325  -0.021788  -0.036423   0.001222   0.000237
    11  C   -0.040751   0.390766  -0.077451  -0.001319   0.000068   0.000002
    12  S    0.003304  -0.086094   0.002033  -0.000038   0.000006   0.000000
    13  H   -0.000244  -0.017885   0.369301  -0.030428  -0.000284   0.000035
    14  H    0.000001  -0.000099   0.001818  -0.025392  -0.000083   0.004938
    15  H   -0.000016   0.002101  -0.000330   0.002091  -0.000019   0.000001
    16  O    0.000000  -0.000008   0.000000   0.000015   0.000000   0.000000
    17  H    0.000000   0.000003   0.000000   0.000000   0.000000   0.000000
    18  H    0.000000   0.000001   0.000000   0.000000   0.000000   0.000000
              7          8          9         10         11         12
     1  F    0.000000   0.000000   0.000129   0.001390  -0.040751   0.003304
     2  C    0.000294   0.000293  -0.022244  -0.054325   0.390766  -0.086094
     3  C    0.005039   0.005040  -0.054241  -0.021788  -0.077451   0.002033
     4  C   -0.055776  -0.055812   0.583832  -0.036423  -0.001319  -0.000038
     5  C    0.283482   0.283461  -0.021327   0.001222   0.000068   0.000006
     6  F   -0.030703  -0.030703   0.005288   0.000237   0.000002   0.000000
     7  F    9.205367  -0.033972   0.000532  -0.000006  -0.000002   0.000000
     8  F   -0.033972   9.205512   0.000525  -0.000006  -0.000001   0.000000
     9  C    0.000532   0.000525   4.726825   0.279191  -0.040940   0.003408
    10  N   -0.000006  -0.000006   0.279191   7.302103   0.225776  -0.095372
    11  C   -0.000002  -0.000001  -0.040940   0.225776   4.925868   0.443105
    12  S    0.000000   0.000000   0.003408  -0.095372   0.443105  15.987835
    13  H    0.000906   0.000902   0.002396  -0.000275   0.002629  -0.000064
    14  H    0.000082   0.000082   0.382102  -0.031537   0.001019  -0.000120
    15  H    0.000000   0.000000  -0.015068   0.269576  -0.014763   0.004761
    16  O    0.000000   0.000000   0.000664  -0.013022  -0.000397  -0.000933
    17  H    0.000000   0.000000  -0.000025   0.000540   0.000046   0.001080
    18  H    0.000000   0.000000  -0.000029   0.000635   0.000016   0.000230
             13         14         15         16         17         18
     1  F   -0.000244   0.000001  -0.000016   0.000000   0.000000   0.000000
     2  C   -0.017885  -0.000099   0.002101  -0.000008   0.000003   0.000001
     3  C    0.369301   0.001818  -0.000330   0.000000   0.000000   0.000000
     4  C   -0.030428  -0.025392   0.002091   0.000015   0.000000   0.000000
     5  C   -0.000284  -0.000083  -0.000019   0.000000   0.000000   0.000000
     6  F    0.000035   0.004938   0.000001   0.000000   0.000000   0.000000
     7  F    0.000906   0.000082   0.000000   0.000000   0.000000   0.000000
     8  F    0.000902   0.000082   0.000000   0.000000   0.000000   0.000000
     9  C    0.002396   0.382102  -0.015068   0.000664  -0.000025  -0.000029
    10  N   -0.000275  -0.031537   0.269576  -0.013022   0.000540   0.000635
    11  C    0.002629   0.001019  -0.014763  -0.000397   0.000046   0.000016
    12  S   -0.000064  -0.000120   0.004761  -0.000933   0.001080   0.000230
    13  H    0.398854  -0.000065   0.000006   0.000000   0.000000   0.000000
    14  H   -0.000065   0.388729  -0.001373   0.000237  -0.000006  -0.000014
    15  H    0.000006  -0.001373   0.196585   0.027485  -0.000734  -0.000858
    16  O    0.000000   0.000237   0.027485   8.341837   0.266897   0.264400
    17  H    0.000000  -0.000006  -0.000734   0.266897   0.285739  -0.016184
    18  H    0.000000  -0.000014  -0.000858   0.264400  -0.016184   0.302412
 Mulliken atomic charges:
              1
     1  F   -0.363664
     2  C    0.402230
     3  C   -0.177755
     4  C   -0.301962
     5  C    1.203761
     6  F   -0.385607
     7  F   -0.375244
     8  F   -0.375321
     9  C    0.168981
    10  N   -0.827916
    11  C    0.186331
    12  S   -0.263143
    13  H    0.274214
    14  H    0.279682
    15  H    0.530554
    16  O   -0.887176
    17  H    0.462644
    18  H    0.449391
 Sum of Mulliken atomic charges =   0.00000
 Mulliken charges with hydrogens summed into heavy atoms:
              1
     1  F   -0.363664
     2  C    0.402230
     3  C    0.096459
     4  C   -0.301962
     5  C    1.203761
     6  F   -0.385607
     7  F   -0.375244
     8  F   -0.375321
     9  C    0.448663
    10  N   -0.297362
    11  C    0.186331
    12  S   -0.263143
    16  O    0.024859
 Sum of Mulliken charges with hydrogens summed into heavy atoms =   0.00000
 Electronic spatial extent (au):  <R**2>=           3453.9570
 Charge=              0.0000 electrons
 Dipole moment (field-independent basis, Debye):
    X=              2.2276    Y=             -5.5714    Z=             -0.0059  Tot=              6.0002
 Quadrupole moment (field-independent basis, Debye-Ang):
   XX=           -100.2656   YY=            -51.1718   ZZ=            -81.0494
   XY=             13.4226   XZ=              1.4043   YZ=             -0.6367
 Traceless Quadrupole moment (field-independent basis, Debye-Ang):
   XX=            -22.7700   YY=             26.3238   ZZ=             -3.5538
   XY=             13.4226   XZ=              1.4043   YZ=             -0.6367
 Octapole moment (field-independent basis, Debye-Ang**2):
  XXX=            127.6419  YYY=            -53.5582  ZZZ=              0.0132  XYY=            -29.5544
  XXY=            -12.3616  XXZ=             -7.3592  XZZ=             30.3052  YZZ=             26.4295
  YYZ=              5.9594  XYZ=             -4.5763
 Hexadecapole moment (field-independent basis, Debye-Ang**3):
 XXXX=          -2840.3239 YYYY=           -405.3650 ZZZZ=           -144.2335 XXXY=            -80.2744
 XXXZ=             28.7028 YYYX=            180.8051 YYYZ=            -40.3200 ZZZX=             -0.0885
 ZZZY=              0.0629 XXYY=           -433.9249 XXZZ=           -478.4840 YYZZ=           -200.2523
 XXYZ=             28.3643 YYXZ=             12.0802 ZZXY=            -69.0089
 N-N= 9.197612035522D+02 E-N=-4.578457111587D+03  KE= 1.152563268908D+03
 1\1\GINC-B1\FOpt\RHF\6-31G(d)\C6H5F4N1O1S1\ANA\24-Sep-2021\1\\#HF/6-31
 G* Opt=Z-matrix NoSymm\\water interaction with atom H15\\0,1\F,-1,-1.9
 693,2.05368,0.00007\C,-1,-1.22225,0.94423,0.00003\C,-1,0.14003,1.0574,
 -0.00002\C,-1,0.92795,-0.12364,-0.00008\C,-1,2.41466,-0.01865,-0.00001
 \F,-1,3.00708,-1.23461,-0.00056\F,-1,2.85829,0.65448,-1.08602\F,-1,2.8
 5827,0.6535,1.08665\C,-1,0.30654,-1.34149,-0.00009\N,-1,-1.05417,-1.38
 997,-0.00006\C,-1,-1.9305,-0.3121,0.\S,-1,-3.57098,-0.50661,0.00003\H,
 -1,0.59686,2.0431,-0.00002\H,-1,0.83176,-2.28899,-0.00015\H,-1,-1.5214
 8,-2.29639,-0.00009\X,15,RDUM,10,ADUM,9,DOH,0\X,16,RDUM,15,ADUM,10,DD1
 ,0\O,15,RX,16,ADUM,17,DD2,0\H,18,ROH,15,AHOA,16,DH1,0\H,18,ROH,15,AHOA
 ,16,DH2,0\\RX=1.93064442\RDUM=1.\ROH=0.9572\ADUM=90.\AHOA=127.74\DOH=1
 80.\DD1=0.\DD2=180.\DH1=45.\DH2=-135.\\Version=EM64L-G09RevA.01\HF=-11
 54.684757\RMSD=2.022e-09\RMSF=3.235e-03\Dipole=0.8763947,-2.1919657,-0
 .0023275\Quadrupole=-16.9289338,19.5711098,-2.642176,9.9793563,1.04409
 34,-0.4733836\PG=C01 [X(C6H5F4N1O1S1)]\\@


 Boundary, n.  In political geography, an imaginary
 line between two nations, separating the imaginary
 rights of one from the imaginary rights of another.
                               -- Ambrose Bierce
 Job cpu time:  0 days  0 hours  3 minutes 37.0 seconds.
 File lengths (MBytes):  RWF=     26 Int=      0 D2E=      0 Chk=      3 Scr=      1
 Normal termination of Gaussian 09 at Fri Sep 24 08:31:02 2021.
