 Entering Gaussian System, Link 0=g09
 Initial command:
 /home/ana/programs/g09/l1.exe /home/ana/programs/g09/scratch/Gau-710305.inp -scrdir=/home/ana/programs/g09/scratch/
 Entering Link 1 = /home/ana/programs/g09/l1.exe PID=    710307.
  
 Copyright (c) 1988,1990,1992,1993,1995,1998,2003,2009, Gaussian, Inc.
                  All Rights Reserved.
  
 This is part of the Gaussian(R) 09 program.  It is based on
 the Gaussian(R) 03 system (copyright 2003, Gaussian, Inc.),
 the Gaussian(R) 98 system (copyright 1998, Gaussian, Inc.),
 the Gaussian(R) 94 system (copyright 1995, Gaussian, Inc.),
 the Gaussian 92(TM) system (copyright 1992, Gaussian, Inc.),
 the Gaussian 90(TM) system (copyright 1990, Gaussian, Inc.),
 the Gaussian 88(TM) system (copyright 1988, Gaussian, Inc.),
 the Gaussian 86(TM) system (copyright 1986, Carnegie Mellon
 University), and the Gaussian 82(TM) system (copyright 1983,
 Carnegie Mellon University). Gaussian is a federally registered
 trademark of Gaussian, Inc.
  
 This software contains proprietary and confidential information,
 including trade secrets, belonging to Gaussian, Inc.
  
 This software is provided under written license and may be
 used, copied, transmitted, or stored only in accord with that
 written license.
  
 The following legend is applicable only to US Government
 contracts under FAR:
  
                    RESTRICTED RIGHTS LEGEND
  
 Use, reproduction and disclosure by the US Government is
 subject to restrictions as set forth in subparagraphs (a)
 and (c) of the Commercial Computer Software - Restricted
 Rights clause in FAR 52.227-19.
  
 Gaussian, Inc.
 340 Quinnipiac St., Bldg. 40, Wallingford CT 06492
  
  
 ---------------------------------------------------------------
 Warning -- This program may not be used in any manner that
 competes with the business of Gaussian, Inc. or will provide
 assistance to any competitor of Gaussian, Inc.  The licensee
 of this program is prohibited from giving any competitor of
 Gaussian, Inc. access to this program.  By using this program,
 the user acknowledges that Gaussian, Inc. is engaged in the
 business of creating and licensing software in the field of
 computational chemistry and represents and warrants to the
 licensee that it is not a competitor of Gaussian, Inc. and that
 it will not use this program in any manner prohibited above.
 ---------------------------------------------------------------
  

 Cite this work as:
 Gaussian 09, Revision A.01,
 M. J. Frisch, G. W. Trucks, H. B. Schlegel, G. E. Scuseria, 
 M. A. Robb, J. R. Cheeseman, G. Scalmani, V. Barone, B. Mennucci, 
 G. A. Petersson, H. Nakatsuji, M. Caricato, X. Li, H. P. Hratchian, 
 A. F. Izmaylov, J. Bloino, G. Zheng, J. L. Sonnenberg, M. Hada, 
 M. Ehara, K. Toyota, R. Fukuda, J. Hasegawa, M. Ishida, T. Nakajima, 
 Y. Honda, O. Kitao, H. Nakai, T. Vreven, J. A. Montgomery, Jr., 
 J. E. Peralta, F. Ogliaro, M. Bearpark, J. J. Heyd, E. Brothers, 
 K. N. Kudin, V. N. Staroverov, R. Kobayashi, J. Normand, 
 K. Raghavachari, A. Rendell, J. C. Burant, S. S. Iyengar, J. Tomasi, 
 M. Cossi, N. Rega, J. M. Millam, M. Klene, J. E. Knox, J. B. Cross, 
 V. Bakken, C. Adamo, J. Jaramillo, R. Gomperts, R. E. Stratmann, 
 O. Yazyev, A. J. Austin, R. Cammi, C. Pomelli, J. W. Ochterski, 
 R. L. Martin, K. Morokuma, V. G. Zakrzewski, G. A. Voth, 
 P. Salvador, J. J. Dannenberg, S. Dapprich, A. D. Daniels, 
 O. Farkas, J. B. Foresman, J. V. Ortiz, J. Cioslowski, 
 and D. J. Fox, Gaussian, Inc., Wallingford CT, 2009.
 
 ******************************************
 Gaussian 09:  EM64L-G09RevA.01  8-May-2009
                24-Sep-2021 
 ******************************************
 %NPROC=4
 Will use up to    4 processors via shared memory.
 %NoSave
 ------------------------------
 #HF/6-31G* Opt=Z-matrix NoSymm
 ------------------------------
 1/10=7,18=40,38=1/1,3;
 2/12=2,15=1,17=6,18=5,29=3,40=1/2;
 3/5=1,6=6,7=1,11=9,16=1,25=1,30=1,71=1/1,2,3;
 4//1;
 5/5=2,38=5/2;
 6/7=2,8=2,9=2,10=2,28=1/1;
 7/29=1,30=1/1,2,3,16;
 1/10=7,18=40/3(2);
 2/15=1,29=3/2;
 99//99;
 2/15=1,29=3/2;
 3/5=1,6=6,7=1,11=9,16=1,25=1,30=1,71=1/1,2,3;
 4/5=5,16=3/1;
 5/5=2,38=5/2;
 7/30=1/1,2,3,16;
 1/18=40/3(-5);
 2/15=1,29=3/2;
 6/7=2,8=2,9=2,10=2,19=2,28=1/1;
 99/9=1/99;
 -------------------------------
 water interaction with atom H15
 -------------------------------
 Symbolic Z-matrix:
 Charge =  0 Multiplicity = 1
 9                    -1   -1.9693    2.05368   0.00007 
 6                    -1   -1.22225   0.94423   0.00003 
 6                    -1    0.14003   1.0574   -0.00002 
 6                    -1    0.92795  -0.12364  -0.00008 
 6                    -1    2.41466  -0.01865  -0.00001 
 9                    -1    3.00708  -1.23461  -0.00056 
 9                    -1    2.85829   0.65448  -1.08602 
 9                    -1    2.85827   0.6535    1.08665 
 6                    -1    0.30654  -1.34149  -0.00009 
 7                    -1   -1.05417  -1.38997  -0.00006 
 6                    -1   -1.9305   -0.3121    0. 
 16                   -1   -3.57098  -0.50661   0.00003 
 1                    -1    0.59686   2.0431   -0.00002 
 1                    -1    0.83176  -2.28899  -0.00015 
 1                    -1   -1.52148  -2.29639  -0.00009 
 X                    15   RDUM     10   ADUM     9    DOH      0
 X                    16   RDUM     15   ADUM     10   DD1      0
 OH2                  15   RX       16   ADUM     17   DD2      0
 H1                   18   ROH      15   AHOA     16   DH1      0
 H2                   18   ROH      15   AHOA     16   DH2      0
       Variables:
  RX                    1.9306                   
       Constants:
  RDUM                  1.                       
  ROH                   0.9572                   
  ADUM                 90.                       
  AHOA                127.74                     
  DOH                 180.                       
  DD1                   0.                       
  DD2                 180.                       
  DH1                  90.                       
  DH2                 -90.                       
 

 GradGradGradGradGradGradGradGradGradGradGradGradGradGradGradGradGradGrad
 Berny optimization.
 Initialization pass.
                       ----------------------------
                       !    Initial Parameters    !
                       ! (Angstroms and Degrees)  !
 ----------------------                            ----------------------
 !      Name          Value   Derivative information (Atomic Units)     !
 ------------------------------------------------------------------------
 !       RX          1.9306   estimate D2E/DX2                          !
 !      RDUM         1.0      Frozen                                    !
 !       ROH         0.9572   Frozen                                    !
 !      ADUM        90.0      Frozen                                    !
 !      AHOA       127.74     Frozen                                    !
 !       DOH       180.0      Frozen                                    !
 !       DD1         0.0      Frozen                                    !
 !       DD2       180.0      Frozen                                    !
 !       DH1        90.0      Frozen                                    !
 !       DH2       -90.0      Frozen                                    !
 ------------------------------------------------------------------------
 Trust Radius=3.00D-01 FncErr=1.00D-07 GrdErr=1.00D-07
 Number of steps in this run=  20 maximum allowed number of steps= 100.
 GradGradGradGradGradGradGradGradGradGradGradGradGradGradGradGradGradGrad

 ---------------------------------------------------------------------------------------------------
                            Z-MATRIX (ANGSTROMS AND DEGREES)
   CD    Cent   Atom    N1       Length/X        N2       Alpha/Y        N3        Beta/Z          J
 ---------------------------------------------------------------------------------------------------
      1      1  F       -1  -1.969300          2.053680          0.000070
      2      2  C       -1  -1.222250          0.944230          0.000030
      3      3  C       -1   0.140030          1.057400         -0.000020
      4      4  C       -1   0.927950         -0.123640         -0.000080
      5      5  C       -1   2.414660         -0.018650         -0.000010
      6      6  F       -1   3.007080         -1.234610         -0.000560
      7      7  F       -1   2.858290          0.654480         -1.086020
      8      8  F       -1   2.858270          0.653500          1.086650
      9      9  C       -1   0.306540         -1.341490         -0.000090
     10     10  N       -1  -1.054170         -1.389970         -0.000060
     11     11  C       -1  -1.930500         -0.312100          0.000000
     12     12  S       -1  -3.570980         -0.506610          0.000030
     13     13  H       -1   0.596860          2.043100         -0.000020
     14     14  H       -1   0.831760         -2.288990         -0.000150
     15     15  H       -1  -1.521480         -2.296390         -0.000090
     16         X       15   1.000000(    15)     10   90.000(    33)      9  180.000(    50)      0
     17         X       16   1.000000(    16)     15   90.000(    34)     10    0.000(    51)      0
     18     16  O       15   1.930600(    17)     16   90.000(    35)     17  180.000(    52)      0
     19     17  H       18   0.957200(    18)     15  127.740(    36)     16   90.000(    53)      0
     20     18  H       18   0.957200(    19)     15  127.740(    37)     16  -90.000(    54)      0
 ---------------------------------------------------------------------------------------------------
                         Z-Matrix orientation:                         
 ---------------------------------------------------------------------
 Center     Atomic      Atomic             Coordinates (Angstroms)
 Number     Number       Type             X           Y           Z
 ---------------------------------------------------------------------
      1          9           0       -1.969300    2.053680    0.000070
      2          6           0       -1.222250    0.944230    0.000030
      3          6           0        0.140030    1.057400   -0.000020
      4          6           0        0.927950   -0.123640   -0.000080
      5          6           0        2.414660   -0.018650   -0.000010
      6          9           0        3.007080   -1.234610   -0.000560
      7          9           0        2.858290    0.654480   -1.086020
      8          9           0        2.858270    0.653500    1.086650
      9          6           0        0.306540   -1.341490   -0.000090
     10          7           0       -1.054170   -1.389970   -0.000060
     11          6           0       -1.930500   -0.312100    0.000000
     12         16           0       -3.570980   -0.506610    0.000030
     13          1           0        0.596860    2.043100   -0.000020
     14          1           0        0.831760   -2.288990   -0.000150
     15          1           0       -1.521480   -2.296390   -0.000090
     16         -1           0       -2.410308   -1.838150   -0.000048
     17         -1           0       -1.952068   -0.949321   -0.000019
     18          8           0       -2.406159   -4.012362   -0.000147
     19          1           0       -2.674652   -4.533076   -0.757114
     20          1           0       -2.674616   -4.533145    0.756786
 ---------------------------------------------------------------------
                    Distance matrix (angstroms):
                    1          2          3          4          5
     1  F    0.000000
     2  C    1.337521   0.000000
     3  C    2.332777   1.366973   0.000000
     4  C    3.624194   2.400772   1.419744   0.000000
     5  C    4.849088   3.762214   2.516312   1.490413   0.000000
     6  F    5.964663   4.757581   3.670597   2.357337   1.352598
     7  F    5.142274   4.232525   2.954772   2.347541   1.352527
     8  F    5.142625   4.232719   2.955134   2.347566   1.352555
     9  C    4.087374   2.749857   2.404662   1.367227   2.488790
    10  N    3.563171   2.340244   2.723184   2.352104   3.730054
    11  C    2.366098   1.442215   2.482463   2.864656   4.355058
    12  S    3.020011   2.760701   4.027123   4.515201   6.005497
    13  H    2.566182   2.125247   1.086415   2.191890   2.748674
    14  H    5.167661   3.830492   3.417136   2.167485   2.767673
    15  H    4.373060   3.254406   3.742796   3.274225   4.547669
    16  X    3.916737   3.025412   3.858553   3.752800   5.156636
    17  X    3.003051   2.029328   2.898931   2.996039   4.464802
    18  O    6.081752   5.096022   5.673232   5.122347   6.260194
    19  H    6.667549   5.716959   6.304685   5.744125   6.845024
    20  H    6.667560   5.716964   6.304695   5.744133   6.845008
                    6          7          8          9         10
     6  F    0.000000
     7  F    2.183809   0.000000
     8  F    2.183834   2.172670   0.000000
     9  C    2.702654   3.416807   3.416477   0.000000
    10  N    4.064221   4.546034   4.545756   1.361573   0.000000
    11  C    5.023019   5.004620   5.004549   2.462517   1.389157
    12  S    6.618222   6.622926   6.622828   3.966382   2.667332
    13  H    4.068482   2.867355   2.868068   3.397019   3.809445
    14  H    2.417382   3.734964   3.734451   1.083334   2.089251
    15  H    4.651369   5.391592   5.391203   2.062399   1.019792
    16  X    5.450904   5.928800   5.928503   2.761872   1.428277
    17  X    4.967347   5.185665   5.185483   2.292402   1.000196
    18  O    6.084329   7.118494   7.117978   3.806874   2.950392
    19  H    6.613194   7.591598   7.804695   4.432473   3.616381
    20  H    6.613288   7.805154   7.590976   4.432473   3.616381
                   11         12         13         14         15
    11  C    0.000000
    12  S    1.651971   0.000000
    13  H    3.454637   4.885889   0.000000
    14  H    3.396789   4.749842   4.338454   0.000000
    15  H    2.026007   2.720986   4.828927   2.353252   0.000000
    16  X    1.599701   1.766396   4.909904   3.273265   1.000000
    17  X    0.637586   1.678353   3.930855   3.089403   1.414214
    18  O    3.730709   3.694199   6.759197   3.667987   1.930600
    19  H    4.352427   4.193936   7.383907   4.231293   2.627862
    20  H    4.352431   4.193940   7.383922   4.231295   2.627862
                   16         17         18         19         20
    16  X    0.000000
    17  X    1.000000   0.000000
    18  O    2.174216   3.096517   0.000000
    19  H    2.811700   3.733446   0.957200   0.000000
    20  H    2.811700   3.733446   0.957200   1.513901   0.000000
 Symmetry turned off by external request.
 Stoichiometry    C6H5F4NOS
 Framework group  C1[X(C6H5F4NOS)]
 Deg. of freedom    48
 Full point group                 C1      NOp   1
 Rotational constants (GHZ):      0.9875241      0.3866025      0.2926335
 Standard basis: 6-31G(d) (6D, 7F)
 Integral buffers will be    131072 words long.
 Raffenetti 1 integral format.
 Two-electron integral symmetry is turned off.
   209 basis functions,   408 primitive gaussians,   209 cartesian basis functions
    54 alpha electrons       54 beta electrons
       nuclear repulsion energy       919.7058657491 Hartrees.
 NAtoms=   18 NActive=   18 NUniq=   18 SFac= 7.50D-01 NAtFMM=   80 NAOKFM=F Big=F
 One-electron integrals computed using PRISM.
 NBasis=   209 RedAO= T  NBF=   209
 NBsUse=   209 1.00D-06 NBFU=   209
 Harris functional with IExCor=  205 diagonalized for initial guess.
 ExpMin= 1.17D-01 ExpMax= 2.19D+04 ExpMxC= 3.30D+03 IAcc=1 IRadAn=         1 AccDes= 0.00D+00
 HarFok:  IExCor=  205 AccDes= 0.00D+00 IRadAn=         1 IDoV= 1
 ScaDFX=  1.000000  1.000000  1.000000  1.000000
 FoFCou: FMM=F IPFlag=           0 FMFlag=      100000 FMFlg1=           0
         NFxFlg=           0 DoJE=T BraDBF=F KetDBF=T FulRan=T
         Omega=  0.000000  0.000000  1.000000  0.000000  0.000000 ICntrl=     500 IOpCl=  0
         NMat0=    1 NMatS0=    1 NMatT0=    0 NMatD0=    1 NMtDS0=    0 NMtDT0=    0
         I1Cent=           4 NGrid=           0.
 Symmetry not used in FoFCou.
 Requested convergence on RMS density matrix=1.00D-08 within 128 cycles.
 Requested convergence on MAX density matrix=1.00D-06.
 Requested convergence on             energy=1.00D-06.
 No special actions if energy rises.
 Integral accuracy reduced to 1.0D-05 until final iterations.
 Initial convergence to 1.0D-05 achieved.  Increase integral accuracy.
 SCF Done:  E(RHF) =  -1154.68399397     A.U. after   15 cycles
             Convg  =    0.6719D-08             -V/T =  2.0018

 **********************************************************************

            Population analysis using the SCF density.

 **********************************************************************

 Alpha  occ. eigenvalues --  -91.88519 -26.35795 -26.34845 -26.34842 -26.32071
 Alpha  occ. eigenvalues --  -20.60281 -15.65966 -11.52999 -11.35993 -11.35588
 Alpha  occ. eigenvalues --  -11.34389 -11.29754 -11.28710  -8.89634  -6.57970
 Alpha  occ. eigenvalues --   -6.57693  -6.57563  -1.73040  -1.64056  -1.63363
 Alpha  occ. eigenvalues --   -1.63355  -1.38402  -1.33288  -1.15498  -1.10312
 Alpha  occ. eigenvalues --   -1.01509  -0.95567  -0.91057  -0.86491  -0.83437
 Alpha  occ. eigenvalues --   -0.82577  -0.82287  -0.75354  -0.74768  -0.74417
 Alpha  occ. eigenvalues --   -0.72353  -0.71227  -0.70453  -0.69963  -0.68842
 Alpha  occ. eigenvalues --   -0.66479  -0.66464  -0.65065  -0.62613  -0.61896
 Alpha  occ. eigenvalues --   -0.60414  -0.59150  -0.57499  -0.54014  -0.50768
 Alpha  occ. eigenvalues --   -0.44888  -0.41555  -0.32176  -0.29323
 Alpha virt. eigenvalues --    0.06214   0.10310   0.17438   0.22670   0.26519
 Alpha virt. eigenvalues --    0.27319   0.27698   0.28121   0.31098   0.32741
 Alpha virt. eigenvalues --    0.35479   0.40075   0.41910   0.42183   0.44265
 Alpha virt. eigenvalues --    0.44629   0.48509   0.51343   0.55846   0.57081
 Alpha virt. eigenvalues --    0.58135   0.61298   0.63287   0.65935   0.68181
 Alpha virt. eigenvalues --    0.69165   0.73512   0.74514   0.75042   0.76964
 Alpha virt. eigenvalues --    0.78665   0.79625   0.84734   0.86017   0.88905
 Alpha virt. eigenvalues --    0.90648   0.91433   0.93470   0.97051   0.97232
 Alpha virt. eigenvalues --    1.03251   1.03524   1.04022   1.05983   1.08921
 Alpha virt. eigenvalues --    1.11055   1.12130   1.14500   1.15476   1.16424
 Alpha virt. eigenvalues --    1.17165   1.19049   1.22394   1.26297   1.29759
 Alpha virt. eigenvalues --    1.31413   1.32679   1.34392   1.34705   1.35680
 Alpha virt. eigenvalues --    1.36598   1.39986   1.40444   1.43895   1.44281
 Alpha virt. eigenvalues --    1.45894   1.48791   1.53442   1.56965   1.61715
 Alpha virt. eigenvalues --    1.62024   1.62747   1.65052   1.65554   1.65965
 Alpha virt. eigenvalues --    1.66767   1.68268   1.69257   1.71117   1.72030
 Alpha virt. eigenvalues --    1.74410   1.78091   1.78317   1.82477   1.87955
 Alpha virt. eigenvalues --    1.91100   1.93731   1.95379   1.99121   2.01343
 Alpha virt. eigenvalues --    2.02337   2.06228   2.07482   2.10463   2.11322
 Alpha virt. eigenvalues --    2.13111   2.13409   2.16833   2.19741   2.21803
 Alpha virt. eigenvalues --    2.23916   2.24126   2.25971   2.29594   2.31713
 Alpha virt. eigenvalues --    2.32431   2.33973   2.36078   2.36551   2.37201
 Alpha virt. eigenvalues --    2.40148   2.44196   2.45415   2.47087   2.47557
 Alpha virt. eigenvalues --    2.48853   2.53971   2.58582   2.62365   2.63680
 Alpha virt. eigenvalues --    2.68611   2.70578   2.76579   2.84729   2.85955
 Alpha virt. eigenvalues --    2.87093   2.90235   2.93284   2.94679   2.95004
 Alpha virt. eigenvalues --    3.02068   3.08577   3.11311   3.18829   3.23975
 Alpha virt. eigenvalues --    3.31288   3.38523   3.39587   3.44295   3.45653
 Alpha virt. eigenvalues --    3.50921   3.73066   4.07206   4.40575   4.45913
 Alpha virt. eigenvalues --    4.48215   4.51285   4.62986   4.65779   4.69735
 Alpha virt. eigenvalues --    4.83609   5.03035   5.16890   5.59833   6.02973
          Condensed to atoms (all electrons):
              1          2          3          4          5          6
     1  F    9.166380   0.265482  -0.033963   0.002221  -0.000015   0.000000
     2  C    0.265482   4.582688   0.567474  -0.027160   0.000835  -0.000019
     3  C   -0.033963   0.567474   5.067752   0.357452  -0.012738   0.002182
     4  C    0.002221  -0.027160   0.357452   5.217107   0.418875  -0.045342
     5  C   -0.000015   0.000835  -0.012738   0.418875   3.554815   0.288121
     6  F    0.000000  -0.000019   0.002182  -0.045342   0.288121   9.191580
     7  F    0.000000   0.000294   0.005052  -0.055823   0.283393  -0.030701
     8  F    0.000000   0.000293   0.005046  -0.055830   0.283400  -0.030701
     9  C    0.000129  -0.022361  -0.054243   0.582136  -0.021236   0.005258
    10  N    0.001387  -0.055352  -0.021496  -0.036600   0.001215   0.000237
    11  C   -0.040811   0.388289  -0.077191  -0.001168   0.000069   0.000002
    12  S    0.003224  -0.086949   0.002098  -0.000050   0.000006   0.000000
    13  H   -0.000242  -0.017868   0.369359  -0.030471  -0.000285   0.000035
    14  H    0.000001  -0.000102   0.001811  -0.025517  -0.000069   0.004929
    15  H   -0.000016   0.002166  -0.000346   0.002145  -0.000019   0.000001
    16  O    0.000000  -0.000008   0.000000   0.000019   0.000000   0.000000
    17  H    0.000000   0.000001   0.000000   0.000000   0.000000   0.000000
    18  H    0.000000   0.000001   0.000000   0.000000   0.000000   0.000000
              7          8          9         10         11         12
     1  F    0.000000   0.000000   0.000129   0.001387  -0.040811   0.003224
     2  C    0.000294   0.000293  -0.022361  -0.055352   0.388289  -0.086949
     3  C    0.005052   0.005046  -0.054243  -0.021496  -0.077191   0.002098
     4  C   -0.055823  -0.055830   0.582136  -0.036600  -0.001168  -0.000050
     5  C    0.283393   0.283400  -0.021236   0.001215   0.000069   0.000006
     6  F   -0.030701  -0.030701   0.005258   0.000237   0.000002   0.000000
     7  F    9.205671  -0.033972   0.000528  -0.000006  -0.000001   0.000000
     8  F   -0.033972   9.205691   0.000524  -0.000006  -0.000001   0.000000
     9  C    0.000528   0.000524   4.730430   0.279114  -0.041121   0.003338
    10  N   -0.000006  -0.000006   0.279114   7.307252   0.222724  -0.095225
    11  C   -0.000001  -0.000001  -0.041121   0.222724   4.930408   0.447055
    12  S    0.000000   0.000000   0.003338  -0.095225   0.447055  15.979327
    13  H    0.000906   0.000903   0.002395  -0.000275   0.002626  -0.000063
    14  H    0.000082   0.000082   0.381947  -0.031274   0.001022  -0.000120
    15  H    0.000000   0.000000  -0.015265   0.269493  -0.014634   0.004936
    16  O    0.000000   0.000000   0.000693  -0.012852  -0.000561  -0.000441
    17  H    0.000000   0.000000  -0.000029   0.000598   0.000024   0.000414
    18  H    0.000000   0.000000  -0.000029   0.000598   0.000024   0.000414
             13         14         15         16         17         18
     1  F   -0.000242   0.000001  -0.000016   0.000000   0.000000   0.000000
     2  C   -0.017868  -0.000102   0.002166  -0.000008   0.000001   0.000001
     3  C    0.369359   0.001811  -0.000346   0.000000   0.000000   0.000000
     4  C   -0.030471  -0.025517   0.002145   0.000019   0.000000   0.000000
     5  C   -0.000285  -0.000069  -0.000019   0.000000   0.000000   0.000000
     6  F    0.000035   0.004929   0.000001   0.000000   0.000000   0.000000
     7  F    0.000906   0.000082   0.000000   0.000000   0.000000   0.000000
     8  F    0.000903   0.000082   0.000000   0.000000   0.000000   0.000000
     9  C    0.002395   0.381947  -0.015265   0.000693  -0.000029  -0.000029
    10  N   -0.000275  -0.031274   0.269493  -0.012852   0.000598   0.000598
    11  C    0.002626   0.001022  -0.014634  -0.000561   0.000024   0.000024
    12  S   -0.000063  -0.000120   0.004936  -0.000441   0.000414   0.000414
    13  H    0.399227  -0.000065   0.000006   0.000000   0.000000   0.000000
    14  H   -0.000065   0.387252  -0.001366   0.000274  -0.000010  -0.000010
    15  H    0.000006  -0.001366   0.197324   0.027353  -0.000785  -0.000785
    16  O    0.000000   0.000274   0.027353   8.338644   0.266157   0.266157
    17  H    0.000000  -0.000010  -0.000785   0.266157   0.294176  -0.016386
    18  H    0.000000  -0.000010  -0.000785   0.266157  -0.016386   0.294176
 Mulliken atomic charges:
              1
     1  F   -0.363775
     2  C    0.402295
     3  C   -0.178250
     4  C   -0.301993
     5  C    1.203632
     6  F   -0.385582
     7  F   -0.375423
     8  F   -0.375428
     9  C    0.167793
    10  N   -0.829531
    11  C    0.183245
    12  S   -0.257963
    13  H    0.273813
    14  H    0.281132
    15  H    0.529791
    16  O   -0.885435
    17  H    0.455840
    18  H    0.455840
 Sum of Mulliken atomic charges =   0.00000
 Mulliken charges with hydrogens summed into heavy atoms:
              1
     1  F   -0.363775
     2  C    0.402295
     3  C    0.095563
     4  C   -0.301993
     5  C    1.203632
     6  F   -0.385582
     7  F   -0.375423
     8  F   -0.375428
     9  C    0.448925
    10  N   -0.299741
    11  C    0.183245
    12  S   -0.257963
    16  O    0.026246
 Sum of Mulliken charges with hydrogens summed into heavy atoms =   0.00000
 Electronic spatial extent (au):  <R**2>=           3453.6828
 Charge=              0.0000 electrons
 Dipole moment (field-independent basis, Debye):
    X=              2.1843    Y=             -5.6334    Z=             -0.0005  Tot=              6.0421
 Quadrupole moment (field-independent basis, Debye-Ang):
   XX=           -101.3860   YY=            -51.3017   ZZ=            -79.4507
   XY=             14.1481   XZ=              0.0003   YZ=              0.0009
 Traceless Quadrupole moment (field-independent basis, Debye-Ang):
   XX=            -24.0065   YY=             26.0778   ZZ=             -2.0713
   XY=             14.1481   XZ=              0.0003   YZ=              0.0009
 Octapole moment (field-independent basis, Debye-Ang**2):
  XXX=            136.7454  YYY=            -50.3491  ZZZ=              0.0005  XYY=            -34.5754
  XXY=            -10.3225  XXZ=             -0.0027  XZZ=             26.0731  YZZ=             19.3348
  YYZ=             -0.0018  XYZ=             -0.0029
 Hexadecapole moment (field-independent basis, Debye-Ang**3):
 XXXX=          -2888.5329 YYYY=           -438.1588 ZZZZ=           -143.8246 XXXY=           -110.7018
 XXXZ=              0.0039 YYYX=            208.0947 YYYZ=              0.0009 ZZZX=             -0.0029
 ZZZY=             -0.0129 XXYY=           -431.2628 XXZZ=           -467.7364 YYZZ=           -169.0643
 XXYZ=              0.0021 YYXZ=              0.0184 ZZXY=            -50.3450
 N-N= 9.197058657491D+02 E-N=-4.578415321866D+03  KE= 1.152566178248D+03
 Calling FoFJK, ICntrl=      2127 FMM=F ISym2X=0 I1Cent= 0 IOpClX= 0 NMat=1 NMatS=1 NMatT=0.
 -------------------------------------------------------------------
 Center     Atomic                   Forces (Hartrees/Bohr)
 Number     Number              X              Y              Z
 -------------------------------------------------------------------
      1        9           0.000000000    0.000000000    0.000000000
      2        6           0.000000000    0.000000000    0.000000000
      3        6           0.000000000    0.000000000    0.000000000
      4        6           0.000000000    0.000000000    0.000000000
      5        6           0.000000000    0.000000000    0.000000000
      6        9           0.000000000    0.000000000    0.000000000
      7        9           0.000000000    0.000000000    0.000000000
      8        9           0.000000000    0.000000000    0.000000000
      9        6           0.000000000    0.000000000    0.000000000
     10        7           0.000000000    0.000000000    0.000000000
     11        6           0.000000000    0.000000000    0.000000000
     12       16           0.000000000    0.000000000    0.000000000
     13        1           0.000000000    0.000000000    0.000000000
     14        1           0.000000000    0.000000000    0.000000000
     15        1           0.000000000    0.000000000    0.000000000
     16        8          -0.001715545   -0.018716175   -0.000000798
     17        1           0.002231153    0.008399700    0.005432247
     18        1           0.002230896    0.008400187   -0.005431590
 -------------------------------------------------------------------
 Cartesian Forces:  Max     0.018716175 RMS     0.003229846
 -----------------------------------------------------------------------------------------------
                       Internal Coordinate Forces (Hartree/Bohr or radian)
  Cent   Atom   N1       Length/X         N2         Alpha/Y        N3         Beta/Z          J
 -----------------------------------------------------------------------------------------------
      1  F 
      2  C 
      3  C 
      4  C 
      5  C 
      6  F 
      7  F 
      8  F 
      9  C 
     10  N 
     11  C 
     12  S 
     13  H 
     14  H 
     15  H 
         X       15   0.000000(     1)     10   0.007977(     6)      9   0.000000(    11)     0
         X       16   0.000000(     2)     15   0.000000(     7)     10   0.000000(    12)     0
     16  O       15   0.000445(     3)     16   0.007977(     8)     17   0.000000(    13)     0
     17  H       18  -0.009491(     4)     15  -0.006128(     9)     16  -0.002669(    14)     0
     18  H       18  -0.009491(     5)     15  -0.006128(    10)     16   0.002669(    15)     0
 -----------------------------------------------------------------------------------------------
 Internal  Forces:  Max     0.009491149 RMS     0.005144583

 GradGradGradGradGradGradGradGradGradGradGradGradGradGradGradGradGradGrad
 Berny optimization.
 Search for a local minimum.
 Step number   1 out of a maximum of   20
 All quantities printed in internal units (Hartrees-Bohrs-Radians)
 Second derivative matrix not updated -- first step.
 The second derivative matrix:
                          RX       RDUM       ROH      ADUM      AHOA
           RX           0.04841
           RDUM         0.00000   0.00000
           ROH          0.00000   0.00000   1.12160
           ADUM         0.00000   0.00000   0.00000   1.00904
           AHOA         0.00000   0.00000   0.00000   0.00000   0.96000
           DOH          0.00000   0.00000   0.00000   0.00000   0.00000
           DD1          0.00000   0.00000   0.00000   0.00000   0.00000
           DD2          0.00000   0.00000   0.00000   0.00000   0.00000
           DH1          0.00000   0.00000   0.00000   0.01595   0.00000
           DH2          0.00000   0.00000   0.00000  -0.01595   0.00000
                          DOH       DD1       DD2       DH1       DH2
           DOH          0.00000
           DD1          0.00000   0.31645
           DD2          0.00000  -0.31645   0.31645
           DH1          0.00000   0.00000   0.00000   0.02814
           DH2          0.00000   0.00000   0.00000  -0.02814   0.02814
     Eigenvalues ---    0.048411000.000001000.000001000.000001000.00000
     Eigenvalues --- 1000.000001000.000001000.000001000.000001000.00000
 RFO step:  Lambda=-4.08462387D-06 EMin= 4.84135376D-02
 Linear search not attempted -- first point.
 Variable       Old X    -DE/DX   Delta X   Delta X   Delta X     New X
                                 (Linear)    (Quad)   (Total)
    RX        3.64831   0.00044   0.00000   0.00918   0.00918   3.65749
   RDUM       1.88973   0.00000   0.00000   0.00000   0.00000   1.88973
   ROH        1.80885  -0.01898   0.00000   0.00000   0.00000   1.80885
   ADUM       1.57080   0.01595   0.00000   0.00000   0.00000   1.57080
   AHOA       2.22948  -0.01226   0.00000   0.00000   0.00000   2.22948
   DOH        3.14159   0.00000   0.00000   0.00000   0.00000   3.14159
   DD1        0.00000   0.00000   0.00000   0.00000   0.00000   0.00000
   DD2        3.14159   0.00000   0.00000   0.00000   0.00000   3.14159
   DH1        1.57080  -0.00267   0.00000   0.00000   0.00000   1.57080
   DH2       -1.57080   0.00267   0.00000   0.00000   0.00000  -1.57080
         Item               Value     Threshold  Converged?
 Maximum Force            0.000445     0.000450     YES
 RMS     Force            0.000445     0.000300     NO 
 Maximum Displacement     0.009185     0.001800     NO 
 RMS     Displacement     0.002904     0.001200     NO 
 Predicted change in Energy=-2.042312D-06
 GradGradGradGradGradGradGradGradGradGradGradGradGradGradGradGradGradGrad

 ---------------------------------------------------------------------------------------------------
                            Z-MATRIX (ANGSTROMS AND DEGREES)
   CD    Cent   Atom    N1       Length/X        N2       Alpha/Y        N3        Beta/Z          J
 ---------------------------------------------------------------------------------------------------
      1      1  F       -1  -1.969300          2.053680          0.000070
      2      2  C       -1  -1.222250          0.944230          0.000030
      3      3  C       -1   0.140030          1.057400         -0.000020
      4      4  C       -1   0.927950         -0.123640         -0.000080
      5      5  C       -1   2.414660         -0.018650         -0.000010
      6      6  F       -1   3.007080         -1.234610         -0.000560
      7      7  F       -1   2.858290          0.654480         -1.086020
      8      8  F       -1   2.858270          0.653500          1.086650
      9      9  C       -1   0.306540         -1.341490         -0.000090
     10     10  N       -1  -1.054170         -1.389970         -0.000060
     11     11  C       -1  -1.930500         -0.312100          0.000000
     12     12  S       -1  -3.570980         -0.506610          0.000030
     13     13  H       -1   0.596860          2.043100         -0.000020
     14     14  H       -1   0.831760         -2.288990         -0.000150
     15     15  H       -1  -1.521480         -2.296390         -0.000090
     16         X       15   1.000000(    15)     10   90.000(    33)      9  180.000(    50)      0
     17         X       16   1.000000(    16)     15   90.000(    34)     10    0.000(    51)      0
     18     16  O       15   1.935460(    17)     16   90.000(    35)     17  180.000(    52)      0
     19     17  H       18   0.957200(    18)     15  127.740(    36)     16   90.000(    53)      0
     20     18  H       18   0.957200(    19)     15  127.740(    37)     16  -90.000(    54)      0
 ---------------------------------------------------------------------------------------------------
                         Z-Matrix orientation:                         
 ---------------------------------------------------------------------
 Center     Atomic      Atomic             Coordinates (Angstroms)
 Number     Number       Type             X           Y           Z
 ---------------------------------------------------------------------
      1          9           0       -1.969300    2.053680    0.000070
      2          6           0       -1.222250    0.944230    0.000030
      3          6           0        0.140030    1.057400   -0.000020
      4          6           0        0.927950   -0.123640   -0.000080
      5          6           0        2.414660   -0.018650   -0.000010
      6          9           0        3.007080   -1.234610   -0.000560
      7          9           0        2.858290    0.654480   -1.086020
      8          9           0        2.858270    0.653500    1.086650
      9          6           0        0.306540   -1.341490   -0.000090
     10          7           0       -1.054170   -1.389970   -0.000060
     11          6           0       -1.930500   -0.312100    0.000000
     12         16           0       -3.570980   -0.506610    0.000030
     13          1           0        0.596860    2.043100   -0.000020
     14          1           0        0.831760   -2.288990   -0.000150
     15          1           0       -1.521480   -2.296390   -0.000090
     16         -1           0       -2.410308   -1.838150   -0.000048
     17         -1           0       -1.952068   -0.949321   -0.000019
     18          8           0       -2.408386   -4.016682   -0.000147
     19          1           0       -2.676879   -4.537396   -0.757114
     20          1           0       -2.676843   -4.537465    0.756786
 ---------------------------------------------------------------------
                    Distance matrix (angstroms):
                    1          2          3          4          5
     1  F    0.000000
     2  C    1.337521   0.000000
     3  C    2.332777   1.366973   0.000000
     4  C    3.624194   2.400772   1.419744   0.000000
     5  C    4.849088   3.762214   2.516312   1.490413   0.000000
     6  F    5.964663   4.757581   3.670597   2.357337   1.352598
     7  F    5.142274   4.232525   2.954772   2.347541   1.352527
     8  F    5.142625   4.232719   2.955134   2.347566   1.352555
     9  C    4.087374   2.749857   2.404662   1.367227   2.488790
    10  N    3.563171   2.340244   2.723184   2.352104   3.730054
    11  C    2.366098   1.442215   2.482463   2.864656   4.355058
    12  S    3.020011   2.760701   4.027123   4.515201   6.005497
    13  H    2.566182   2.125247   1.086415   2.191890   2.748674
    14  H    5.167661   3.830492   3.417136   2.167485   2.767673
    15  H    4.373060   3.254406   3.742796   3.274225   4.547669
    16  X    3.916737   3.025412   3.858553   3.752800   5.156636
    17  X    3.003051   2.029328   2.898931   2.996039   4.464802
    18  O    6.086221   5.100742   5.678092   5.127076   6.264665
    19  H    6.672052   5.721664   6.309510   5.748838   6.849529
    20  H    6.672063   5.721669   6.309520   5.748846   6.849513
                    6          7          8          9         10
     6  F    0.000000
     7  F    2.183809   0.000000
     8  F    2.183834   2.172670   0.000000
     9  C    2.702654   3.416807   3.416477   0.000000
    10  N    4.064221   4.546034   4.545756   1.361573   0.000000
    11  C    5.023019   5.004620   5.004549   2.462517   1.389157
    12  S    6.618222   6.622926   6.622828   3.966382   2.667332
    13  H    4.068482   2.867355   2.868068   3.397019   3.809445
    14  H    2.417382   3.734964   3.734451   1.083334   2.089251
    15  H    4.651369   5.391592   5.391203   2.062399   1.019792
    16  X    5.450904   5.928800   5.928503   2.761872   1.428277
    17  X    4.967347   5.185665   5.185483   2.292402   1.000196
    18  O    6.088284   7.122973   7.122457   3.811493   2.955252
    19  H    6.617262   7.596174   7.809145   4.437081   3.621134
    20  H    6.617356   7.809605   7.595552   4.437081   3.621134
                   11         12         13         14         15
    11  C    0.000000
    12  S    1.651971   0.000000
    13  H    3.454637   4.885889   0.000000
    14  H    3.396789   4.749842   4.338454   0.000000
    15  H    2.026007   2.720986   4.828927   2.353252   0.000000
    16  X    1.599701   1.766396   4.909904   3.273265   1.000000
    17  X    0.637586   1.678353   3.930855   3.089403   1.414214
    18  O    3.735278   3.697598   6.764056   3.671984   1.935460
    19  H    4.356998   4.197609   7.388741   4.235431   2.632516
    20  H    4.357001   4.197612   7.388756   4.235432   2.632516
                   16         17         18         19         20
    16  X    0.000000
    17  X    1.000000   0.000000
    18  O    2.178533   3.101117   0.000000
    19  H    2.816051   3.738024   0.957200   0.000000
    20  H    2.816051   3.738024   0.957200   1.513901   0.000000
 Symmetry turned off by external request.
 Stoichiometry    C6H5F4NOS
 Framework group  C1[X(C6H5F4NOS)]
 Deg. of freedom    48
 Full point group                 C1      NOp   1
 Rotational constants (GHZ):      0.9866851      0.3865048      0.2925038
 Standard basis: 6-31G(d) (6D, 7F)
 Integral buffers will be    131072 words long.
 Raffenetti 1 integral format.
 Two-electron integral symmetry is turned off.
   209 basis functions,   408 primitive gaussians,   209 cartesian basis functions
    54 alpha electrons       54 beta electrons
       nuclear repulsion energy       919.6007629103 Hartrees.
 NAtoms=   18 NActive=   18 NUniq=   18 SFac= 7.50D-01 NAtFMM=   80 NAOKFM=F Big=F
 One-electron integrals computed using PRISM.
 NBasis=   209 RedAO= T  NBF=   209
 NBsUse=   209 1.00D-06 NBFU=   209
 Initial guess read from the read-write file.
 B after Tr=     0.000000    0.000000    0.000000
         Rot=    1.000000    0.000000    0.000000    0.000000 Ang=   0.00 deg.
 Requested convergence on RMS density matrix=1.00D-08 within 128 cycles.
 Requested convergence on MAX density matrix=1.00D-06.
 Requested convergence on             energy=1.00D-06.
 No special actions if energy rises.
 SCF Done:  E(RHF) =  -1154.68399745     A.U. after    8 cycles
             Convg  =    0.5581D-08             -V/T =  2.0018
 Calling FoFJK, ICntrl=      2127 FMM=F ISym2X=0 I1Cent= 0 IOpClX= 0 NMat=1 NMatS=1 NMatT=0.
 -------------------------------------------------------------------
 Center     Atomic                   Forces (Hartrees/Bohr)
 Number     Number              X              Y              Z
 -------------------------------------------------------------------
      1        9           0.000000000    0.000000000    0.000000000
      2        6           0.000000000    0.000000000    0.000000000
      3        6           0.000000000    0.000000000    0.000000000
      4        6           0.000000000    0.000000000    0.000000000
      5        6           0.000000000    0.000000000    0.000000000
      6        9           0.000000000    0.000000000    0.000000000
      7        9           0.000000000    0.000000000    0.000000000
      8        9           0.000000000    0.000000000    0.000000000
      9        6           0.000000000    0.000000000    0.000000000
     10        7           0.000000000    0.000000000    0.000000000
     11        6           0.000000000    0.000000000    0.000000000
     12       16           0.000000000    0.000000000    0.000000000
     13        1           0.000000000    0.000000000    0.000000000
     14        1           0.000000000    0.000000000    0.000000000
     15        1           0.000000000    0.000000000    0.000000000
     16        8          -0.001678885   -0.018578266   -0.000000793
     17        1           0.002235010    0.008393045    0.005448093
     18        1           0.002234753    0.008393533   -0.005447436
 -------------------------------------------------------------------
 Cartesian Forces:  Max     0.018578266 RMS     0.003215158
 -----------------------------------------------------------------------------------------------
                       Internal Coordinate Forces (Hartree/Bohr or radian)
  Cent   Atom   N1       Length/X         N2         Alpha/Y        N3         Beta/Z          J
 -----------------------------------------------------------------------------------------------
      1  F 
      2  C 
      3  C 
      4  C 
      5  C 
      6  F 
      7  F 
      8  F 
      9  C 
     10  N 
     11  C 
     12  S 
     13  H 
     14  H 
     15  H 
         X       15   0.000000(     1)     10   0.007958(     6)      9   0.000000(    11)     0
         X       16   0.000000(     2)     15   0.000000(     7)     10   0.000000(    12)     0
     16  O       15   0.000314(     3)     16   0.007958(     8)     17   0.000000(    13)     0
     17  H       18  -0.009501(     4)     15  -0.006105(     9)     16  -0.002660(    14)     0
     18  H       18  -0.009501(     5)     15  -0.006105(    10)     16   0.002660(    15)     0
 -----------------------------------------------------------------------------------------------
 Internal  Forces:  Max     0.009501142 RMS     0.005137955

 GradGradGradGradGradGradGradGradGradGradGradGradGradGradGradGradGradGrad
 Berny optimization.
 Search for a local minimum.
 Step number   2 out of a maximum of   20
 All quantities printed in internal units (Hartrees-Bohrs-Radians)
 Update second derivatives using D2CorN and points    1    2
 DE= -3.48D-06 DEPred=-2.04D-06 R= 1.70D+00
 SS=  1.41D+00  RLast= 9.18D-03 DXNew= 5.0454D-01 2.7554D-02
 Trust test= 1.70D+00 RLast= 9.18D-03 DXMaxT set to 3.00D-01
 The second derivative matrix:
                          RX       RDUM       ROH      ADUM      AHOA
           RX           0.01427
           RDUM         0.00000   0.00000
           ROH          0.00109   0.00000   1.12160
           ADUM         0.00215   0.00000   0.00000   1.00904
           AHOA        -0.00256   0.00000   0.00000   0.00000   0.96000
           DOH          0.00000   0.00000   0.00000   0.00000   0.00000
           DD1          0.00000   0.00000   0.00000   0.00000   0.00000
           DD2          0.00000   0.00000   0.00000   0.00000   0.00000
           DH1         -0.00050   0.00000   0.00000   0.01595   0.00000
           DH2          0.00050   0.00000   0.00000  -0.01595   0.00000
                          DOH       DD1       DD2       DH1       DH2
           DOH          0.00000
           DD1          0.00000   0.31645
           DD2          0.00000  -0.31645   0.31645
           DH1          0.00000   0.00000   0.00000   0.02814
           DH2          0.00000   0.00000   0.00000  -0.02814   0.02814
     Eigenvalues ---    0.014271000.000001000.000001000.000001000.00000
     Eigenvalues --- 1000.000001000.000001000.000001000.000001000.00000
 RFO step:  Lambda= 0.00000000D+00 EMin= 1.42721951D-02
 Quartic linear search produced a step of  2.00000.
 Variable       Old X    -DE/DX   Delta X   Delta X   Delta X     New X
                                 (Linear)    (Quad)   (Total)
    RX        3.65749   0.00031   0.01837   0.00000   0.01837   3.67586
   RDUM       1.88973   0.00000   0.00000   0.00000   0.00000   1.88973
   ROH        1.80885  -0.01900   0.00000   0.00000   0.00000   1.80885
   ADUM       1.57080   0.01592   0.00000   0.00000   0.00000   1.57080
   AHOA       2.22948  -0.01221   0.00000   0.00000   0.00000   2.22948
   DOH        3.14159   0.00000   0.00000   0.00000   0.00000   3.14159
   DD1        0.00000   0.00000   0.00000   0.00000   0.00000   0.00000
   DD2        3.14159   0.00000   0.00000   0.00000   0.00000   3.14159
   DH1        1.57080  -0.00266   0.00000   0.00000   0.00000   1.57080
   DH2       -1.57080   0.00266   0.00000   0.00000   0.00000  -1.57080
         Item               Value     Threshold  Converged?
 Maximum Force            0.000314     0.000450     YES
 RMS     Force            0.000314     0.000300     NO 
 Maximum Displacement     0.018369     0.001800     NO 
 RMS     Displacement     0.005809     0.001200     NO 
 Predicted change in Energy=-3.352822D-06
 GradGradGradGradGradGradGradGradGradGradGradGradGradGradGradGradGradGrad

 ---------------------------------------------------------------------------------------------------
                            Z-MATRIX (ANGSTROMS AND DEGREES)
   CD    Cent   Atom    N1       Length/X        N2       Alpha/Y        N3        Beta/Z          J
 ---------------------------------------------------------------------------------------------------
      1      1  F       -1  -1.969300          2.053680          0.000070
      2      2  C       -1  -1.222250          0.944230          0.000030
      3      3  C       -1   0.140030          1.057400         -0.000020
      4      4  C       -1   0.927950         -0.123640         -0.000080
      5      5  C       -1   2.414660         -0.018650         -0.000010
      6      6  F       -1   3.007080         -1.234610         -0.000560
      7      7  F       -1   2.858290          0.654480         -1.086020
      8      8  F       -1   2.858270          0.653500          1.086650
      9      9  C       -1   0.306540         -1.341490         -0.000090
     10     10  N       -1  -1.054170         -1.389970         -0.000060
     11     11  C       -1  -1.930500         -0.312100          0.000000
     12     12  S       -1  -3.570980         -0.506610          0.000030
     13     13  H       -1   0.596860          2.043100         -0.000020
     14     14  H       -1   0.831760         -2.288990         -0.000150
     15     15  H       -1  -1.521480         -2.296390         -0.000090
     16         X       15   1.000000(    15)     10   90.000(    33)      9  180.000(    50)      0
     17         X       16   1.000000(    16)     15   90.000(    34)     10    0.000(    51)      0
     18     16  O       15   1.945181(    17)     16   90.000(    35)     17  180.000(    52)      0
     19     17  H       18   0.957200(    18)     15  127.740(    36)     16   90.000(    53)      0
     20     18  H       18   0.957200(    19)     15  127.740(    37)     16  -90.000(    54)      0
 ---------------------------------------------------------------------------------------------------
                         Z-Matrix orientation:                         
 ---------------------------------------------------------------------
 Center     Atomic      Atomic             Coordinates (Angstroms)
 Number     Number       Type             X           Y           Z
 ---------------------------------------------------------------------
      1          9           0       -1.969300    2.053680    0.000070
      2          6           0       -1.222250    0.944230    0.000030
      3          6           0        0.140030    1.057400   -0.000020
      4          6           0        0.927950   -0.123640   -0.000080
      5          6           0        2.414660   -0.018650   -0.000010
      6          9           0        3.007080   -1.234610   -0.000560
      7          9           0        2.858290    0.654480   -1.086020
      8          9           0        2.858270    0.653500    1.086650
      9          6           0        0.306540   -1.341490   -0.000090
     10          7           0       -1.054170   -1.389970   -0.000060
     11          6           0       -1.930500   -0.312100    0.000000
     12         16           0       -3.570980   -0.506610    0.000030
     13          1           0        0.596860    2.043100   -0.000020
     14          1           0        0.831760   -2.288990   -0.000150
     15          1           0       -1.521480   -2.296390   -0.000090
     16         -1           0       -2.410308   -1.838150   -0.000048
     17         -1           0       -1.952068   -0.949321   -0.000019
     18          8           0       -2.412841   -4.025322   -0.000147
     19          1           0       -2.681333   -4.546036   -0.757115
     20          1           0       -2.681298   -4.546105    0.756786
 ---------------------------------------------------------------------
                    Distance matrix (angstroms):
                    1          2          3          4          5
     1  F    0.000000
     2  C    1.337521   0.000000
     3  C    2.332777   1.366973   0.000000
     4  C    3.624194   2.400772   1.419744   0.000000
     5  C    4.849088   3.762214   2.516312   1.490413   0.000000
     6  F    5.964663   4.757581   3.670597   2.357337   1.352598
     7  F    5.142274   4.232525   2.954772   2.347541   1.352527
     8  F    5.142625   4.232719   2.955134   2.347566   1.352555
     9  C    4.087374   2.749857   2.404662   1.367227   2.488790
    10  N    3.563171   2.340244   2.723184   2.352104   3.730054
    11  C    2.366098   1.442215   2.482463   2.864656   4.355058
    12  S    3.020011   2.760701   4.027123   4.515201   6.005497
    13  H    2.566182   2.125247   1.086415   2.191890   2.748674
    14  H    5.167661   3.830492   3.417136   2.167485   2.767673
    15  H    4.373060   3.254406   3.742796   3.274225   4.547669
    16  X    3.916737   3.025412   3.858553   3.752800   5.156636
    17  X    3.003051   2.029328   2.898931   2.996039   4.464802
    18  O    6.095161   5.110181   5.687812   5.136536   6.273610
    19  H    6.681061   5.731074   6.319160   5.758265   6.858541
    20  H    6.681071   5.731080   6.319170   5.758273   6.858525
                    6          7          8          9         10
     6  F    0.000000
     7  F    2.183809   0.000000
     8  F    2.183834   2.172670   0.000000
     9  C    2.702654   3.416807   3.416477   0.000000
    10  N    4.064221   4.546034   4.545756   1.361573   0.000000
    11  C    5.023019   5.004620   5.004549   2.462517   1.389157
    12  S    6.618222   6.622926   6.622828   3.966382   2.667332
    13  H    4.068482   2.867355   2.868068   3.397019   3.809445
    14  H    2.417382   3.734964   3.734451   1.083334   2.089251
    15  H    4.651369   5.391592   5.391203   2.062399   1.019792
    16  X    5.450904   5.928800   5.928503   2.761872   1.428277
    17  X    4.967347   5.185665   5.185483   2.292402   1.000196
    18  O    6.096196   7.131934   7.131417   3.820731   2.964973
    19  H    6.625403   7.605325   7.818046   4.446301   3.630640
    20  H    6.625497   7.818507   7.604703   4.446301   3.630640
                   11         12         13         14         15
    11  C    0.000000
    12  S    1.651971   0.000000
    13  H    3.454637   4.885889   0.000000
    14  H    3.396789   4.749842   4.338454   0.000000
    15  H    2.026007   2.720986   4.828927   2.353252   0.000000
    16  X    1.599701   1.766396   4.909904   3.273265   1.000000
    17  X    0.637586   1.678353   3.930855   3.089403   1.414214
    18  O    3.744418   3.704405   6.773776   3.679984   1.945181
    19  H    4.366141   4.204962   7.398409   4.243710   2.641828
    20  H    4.366144   4.204965   7.398425   4.243712   2.641828
                   16         17         18         19         20
    16  X    0.000000
    17  X    1.000000   0.000000
    18  O    2.187174   3.110320   0.000000
    19  H    2.824757   3.747183   0.957200   0.000000
    20  H    2.824757   3.747183   0.957200   1.513901   0.000000
 Symmetry turned off by external request.
 Stoichiometry    C6H5F4NOS
 Framework group  C1[X(C6H5F4NOS)]
 Deg. of freedom    48
 Full point group                 C1      NOp   1
 Rotational constants (GHZ):      0.9850107      0.3863088      0.2922443
 Standard basis: 6-31G(d) (6D, 7F)
 Integral buffers will be    131072 words long.
 Raffenetti 1 integral format.
 Two-electron integral symmetry is turned off.
   209 basis functions,   408 primitive gaussians,   209 cartesian basis functions
    54 alpha electrons       54 beta electrons
       nuclear repulsion energy       919.3911849113 Hartrees.
 NAtoms=   18 NActive=   18 NUniq=   18 SFac= 7.50D-01 NAtFMM=   80 NAOKFM=F Big=F
 One-electron integrals computed using PRISM.
 NBasis=   209 RedAO= T  NBF=   209
 NBsUse=   209 1.00D-06 NBFU=   209
 Initial guess read from the read-write file.
 B after Tr=     0.000000    0.000000    0.000000
         Rot=    1.000000    0.000000    0.000000    0.000000 Ang=   0.00 deg.
 Requested convergence on RMS density matrix=1.00D-08 within 128 cycles.
 Requested convergence on MAX density matrix=1.00D-06.
 Requested convergence on             energy=1.00D-06.
 No special actions if energy rises.
 SCF Done:  E(RHF) =  -1154.68400087     A.U. after    9 cycles
             Convg  =    0.4224D-08             -V/T =  2.0018
 Calling FoFJK, ICntrl=      2127 FMM=F ISym2X=0 I1Cent= 0 IOpClX= 0 NMat=1 NMatS=1 NMatT=0.
 -------------------------------------------------------------------
 Center     Atomic                   Forces (Hartrees/Bohr)
 Number     Number              X              Y              Z
 -------------------------------------------------------------------
      1        9           0.000000000    0.000000000    0.000000000
      2        6           0.000000000    0.000000000    0.000000000
      3        6           0.000000000    0.000000000    0.000000000
      4        6           0.000000000    0.000000000    0.000000000
      5        6           0.000000000    0.000000000    0.000000000
      6        9           0.000000000    0.000000000    0.000000000
      7        9           0.000000000    0.000000000    0.000000000
      8        9           0.000000000    0.000000000    0.000000000
      9        6           0.000000000    0.000000000    0.000000000
     10        7           0.000000000    0.000000000    0.000000000
     11        6           0.000000000    0.000000000    0.000000000
     12       16           0.000000000    0.000000000    0.000000000
     13        1           0.000000000    0.000000000    0.000000000
     14        1           0.000000000    0.000000000    0.000000000
     15        1           0.000000000    0.000000000    0.000000000
     16        8          -0.001609488   -0.018310909   -0.000000783
     17        1           0.002242617    0.008379741    0.005479315
     18        1           0.002242358    0.008380232   -0.005478661
 -------------------------------------------------------------------
 Cartesian Forces:  Max     0.018310909 RMS     0.003186849
 -----------------------------------------------------------------------------------------------
                       Internal Coordinate Forces (Hartree/Bohr or radian)
  Cent   Atom   N1       Length/X         N2         Alpha/Y        N3         Beta/Z          J
 -----------------------------------------------------------------------------------------------
      1  F 
      2  C 
      3  C 
      4  C 
      5  C 
      6  F 
      7  F 
      8  F 
      9  C 
     10  N 
     11  C 
     12  S 
     13  H 
     14  H 
     15  H 
         X       15   0.000000(     1)     10   0.007918(     6)      9   0.000000(    11)     0
         X       16   0.000000(     2)     15   0.000000(     7)     10   0.000000(    12)     0
     16  O       15   0.000061(     3)     16   0.007918(     8)     17   0.000000(    13)     0
     17  H       18  -0.009521(     4)     15  -0.006058(     9)     16  -0.002642(    14)     0
     18  H       18  -0.009521(     5)     15  -0.006058(    10)     16   0.002642(    15)     0
 -----------------------------------------------------------------------------------------------
 Internal  Forces:  Max     0.009520730 RMS     0.005125321

 GradGradGradGradGradGradGradGradGradGradGradGradGradGradGradGradGradGrad
 Berny optimization.
 Search for a local minimum.
 Step number   3 out of a maximum of   20
 All quantities printed in internal units (Hartrees-Bohrs-Radians)
 Update second derivatives using D2CorN and points    2    3
 DE= -3.42D-06 DEPred=-3.35D-06 R= 1.02D+00
 SS=  1.41D+00  RLast= 1.84D-02 DXNew= 5.0454D-01 5.5107D-02
 Trust test= 1.02D+00 RLast= 1.84D-02 DXMaxT set to 3.00D-01
 The second derivative matrix:
                          RX       RDUM       ROH      ADUM      AHOA
           RX           0.01376
           RDUM         0.00000   0.00000
           ROH          0.00161   0.00000   1.12160
           ADUM         0.00325   0.00000   0.00000   1.00904
           AHOA        -0.00381   0.00000   0.00000   0.00000   0.96000
           DOH          0.00000   0.00000   0.00000   0.00000   0.00000
           DD1          0.00000   0.00000   0.00000   0.00000   0.00000
           DD2          0.00000   0.00000   0.00000   0.00000   0.00000
           DH1         -0.00075   0.00000   0.00000   0.01595   0.00000
           DH2          0.00075   0.00000   0.00000  -0.01595   0.00000
                          DOH       DD1       DD2       DH1       DH2
           DOH          0.00000
           DD1          0.00000   0.31645
           DD2          0.00000  -0.31645   0.31645
           DH1          0.00000   0.00000   0.00000   0.02814
           DH2          0.00000   0.00000   0.00000  -0.02814   0.02814
     Eigenvalues ---    0.013761000.000001000.000001000.000001000.00000
     Eigenvalues --- 1000.000001000.000001000.000001000.000001000.00000
 RFO step:  Lambda= 0.00000000D+00 EMin= 1.37599848D-02
 Quartic linear search produced a step of  0.24828.
 Variable       Old X    -DE/DX   Delta X   Delta X   Delta X     New X
                                 (Linear)    (Quad)   (Total)
    RX        3.67586   0.00006   0.00456   0.00000   0.00456   3.68042
   RDUM       1.88973   0.00000   0.00000   0.00000   0.00000   1.88973
   ROH        1.80885  -0.01904   0.00000   0.00000   0.00000   1.80885
   ADUM       1.57080   0.01584   0.00000   0.00000   0.00000   1.57080
   AHOA       2.22948  -0.01212   0.00000   0.00000   0.00000   2.22948
   DOH        3.14159   0.00000   0.00000   0.00000   0.00000   3.14159
   DD1        0.00000   0.00000   0.00000   0.00000   0.00000   0.00000
   DD2        3.14159   0.00000   0.00000   0.00000   0.00000   3.14159
   DH1        1.57080  -0.00264   0.00000   0.00000   0.00000   1.57080
   DH2       -1.57080   0.00264   0.00000   0.00000   0.00000  -1.57080
         Item               Value     Threshold  Converged?
 Maximum Force            0.000061     0.000450     YES
 RMS     Force            0.000061     0.000300     YES
 Maximum Displacement     0.004561     0.001800     NO 
 RMS     Displacement     0.001442     0.001200     NO 
 Predicted change in Energy=-1.344220D-07
 GradGradGradGradGradGradGradGradGradGradGradGradGradGradGradGradGradGrad

 ---------------------------------------------------------------------------------------------------
                            Z-MATRIX (ANGSTROMS AND DEGREES)
   CD    Cent   Atom    N1       Length/X        N2       Alpha/Y        N3        Beta/Z          J
 ---------------------------------------------------------------------------------------------------
      1      1  F       -1  -1.969300          2.053680          0.000070
      2      2  C       -1  -1.222250          0.944230          0.000030
      3      3  C       -1   0.140030          1.057400         -0.000020
      4      4  C       -1   0.927950         -0.123640         -0.000080
      5      5  C       -1   2.414660         -0.018650         -0.000010
      6      6  F       -1   3.007080         -1.234610         -0.000560
      7      7  F       -1   2.858290          0.654480         -1.086020
      8      8  F       -1   2.858270          0.653500          1.086650
      9      9  C       -1   0.306540         -1.341490         -0.000090
     10     10  N       -1  -1.054170         -1.389970         -0.000060
     11     11  C       -1  -1.930500         -0.312100          0.000000
     12     12  S       -1  -3.570980         -0.506610          0.000030
     13     13  H       -1   0.596860          2.043100         -0.000020
     14     14  H       -1   0.831760         -2.288990         -0.000150
     15     15  H       -1  -1.521480         -2.296390         -0.000090
     16         X       15   1.000000(    15)     10   90.000(    33)      9  180.000(    50)      0
     17         X       16   1.000000(    16)     15   90.000(    34)     10    0.000(    51)      0
     18     16  O       15   1.947594(    17)     16   90.000(    35)     17  180.000(    52)      0
     19     17  H       18   0.957200(    18)     15  127.740(    36)     16   90.000(    53)      0
     20     18  H       18   0.957200(    19)     15  127.740(    37)     16  -90.000(    54)      0
 ---------------------------------------------------------------------------------------------------
                         Z-Matrix orientation:                         
 ---------------------------------------------------------------------
 Center     Atomic      Atomic             Coordinates (Angstroms)
 Number     Number       Type             X           Y           Z
 ---------------------------------------------------------------------
      1          9           0       -1.969300    2.053680    0.000070
      2          6           0       -1.222250    0.944230    0.000030
      3          6           0        0.140030    1.057400   -0.000020
      4          6           0        0.927950   -0.123640   -0.000080
      5          6           0        2.414660   -0.018650   -0.000010
      6          9           0        3.007080   -1.234610   -0.000560
      7          9           0        2.858290    0.654480   -1.086020
      8          9           0        2.858270    0.653500    1.086650
      9          6           0        0.306540   -1.341490   -0.000090
     10          7           0       -1.054170   -1.389970   -0.000060
     11          6           0       -1.930500   -0.312100    0.000000
     12         16           0       -3.570980   -0.506610    0.000030
     13          1           0        0.596860    2.043100   -0.000020
     14          1           0        0.831760   -2.288990   -0.000150
     15          1           0       -1.521480   -2.296390   -0.000090
     16         -1           0       -2.410308   -1.838150   -0.000048
     17         -1           0       -1.952068   -0.949321   -0.000019
     18          8           0       -2.413946   -4.027467   -0.000147
     19          1           0       -2.682439   -4.548181   -0.757115
     20          1           0       -2.682404   -4.548250    0.756786
 ---------------------------------------------------------------------
                    Distance matrix (angstroms):
                    1          2          3          4          5
     1  F    0.000000
     2  C    1.337521   0.000000
     3  C    2.332777   1.366973   0.000000
     4  C    3.624194   2.400772   1.419744   0.000000
     5  C    4.849088   3.762214   2.516312   1.490413   0.000000
     6  F    5.964663   4.757581   3.670597   2.357337   1.352598
     7  F    5.142274   4.232525   2.954772   2.347541   1.352527
     8  F    5.142625   4.232719   2.955134   2.347566   1.352555
     9  C    4.087374   2.749857   2.404662   1.367227   2.488790
    10  N    3.563171   2.340244   2.723184   2.352104   3.730054
    11  C    2.366098   1.442215   2.482463   2.864656   4.355058
    12  S    3.020011   2.760701   4.027123   4.515201   6.005497
    13  H    2.566182   2.125247   1.086415   2.191890   2.748674
    14  H    5.167661   3.830492   3.417136   2.167485   2.767673
    15  H    4.373060   3.254406   3.742796   3.274225   4.547669
    16  X    3.916737   3.025412   3.858553   3.752800   5.156636
    17  X    3.003051   2.029328   2.898931   2.996039   4.464802
    18  O    6.097381   5.112525   5.690225   5.138885   6.275831
    19  H    6.683298   5.733411   6.321556   5.760606   6.860779
    20  H    6.683308   5.733416   6.321566   5.760614   6.860763
                    6          7          8          9         10
     6  F    0.000000
     7  F    2.183809   0.000000
     8  F    2.183834   2.172670   0.000000
     9  C    2.702654   3.416807   3.416477   0.000000
    10  N    4.064221   4.546034   4.545756   1.361573   0.000000
    11  C    5.023019   5.004620   5.004549   2.462517   1.389157
    12  S    6.618222   6.622926   6.622828   3.966382   2.667332
    13  H    4.068482   2.867355   2.868068   3.397019   3.809445
    14  H    2.417382   3.734964   3.734451   1.083334   2.089251
    15  H    4.651369   5.391592   5.391203   2.062399   1.019792
    16  X    5.450904   5.928800   5.928503   2.761872   1.428277
    17  X    4.967347   5.185665   5.185483   2.292402   1.000196
    18  O    6.098162   7.134159   7.133642   3.823025   2.967386
    19  H    6.627425   7.607598   7.820257   4.448590   3.633000
    20  H    6.627519   7.820717   7.606975   4.448590   3.633000
                   11         12         13         14         15
    11  C    0.000000
    12  S    1.651971   0.000000
    13  H    3.454637   4.885889   0.000000
    14  H    3.396789   4.749842   4.338454   0.000000
    15  H    2.026007   2.720986   4.828927   2.353252   0.000000
    16  X    1.599701   1.766396   4.909904   3.273265   1.000000
    17  X    0.637586   1.678353   3.930855   3.089403   1.414214
    18  O    3.746688   3.706097   6.776189   3.681971   1.947594
    19  H    4.368411   4.206789   7.400810   4.245767   2.644140
    20  H    4.368415   4.206792   7.400825   4.245769   2.644140
                   16         17         18         19         20
    16  X    0.000000
    17  X    1.000000   0.000000
    18  O    2.189320   3.112605   0.000000
    19  H    2.826920   3.749457   0.957200   0.000000
    20  H    2.826920   3.749457   0.957200   1.513901   0.000000
 Symmetry turned off by external request.
 Stoichiometry    C6H5F4NOS
 Framework group  C1[X(C6H5F4NOS)]
 Deg. of freedom    48
 Full point group                 C1      NOp   1
 Rotational constants (GHZ):      0.9845957      0.3862601      0.2921799
 Standard basis: 6-31G(d) (6D, 7F)
 Integral buffers will be    131072 words long.
 Raffenetti 1 integral format.
 Two-electron integral symmetry is turned off.
   209 basis functions,   408 primitive gaussians,   209 cartesian basis functions
    54 alpha electrons       54 beta electrons
       nuclear repulsion energy       919.3392792479 Hartrees.
 NAtoms=   18 NActive=   18 NUniq=   18 SFac= 7.50D-01 NAtFMM=   80 NAOKFM=F Big=F
 One-electron integrals computed using PRISM.
 NBasis=   209 RedAO= T  NBF=   209
 NBsUse=   209 1.00D-06 NBFU=   209
 Initial guess read from the read-write file.
 B after Tr=     0.000000    0.000000    0.000000
         Rot=    1.000000    0.000000    0.000000    0.000000 Ang=   0.00 deg.
 Requested convergence on RMS density matrix=1.00D-08 within 128 cycles.
 Requested convergence on MAX density matrix=1.00D-06.
 Requested convergence on             energy=1.00D-06.
 No special actions if energy rises.
 SCF Done:  E(RHF) =  -1154.68400101     A.U. after    8 cycles
             Convg  =    0.2750D-08             -V/T =  2.0018
 Calling FoFJK, ICntrl=      2127 FMM=F ISym2X=0 I1Cent= 0 IOpClX= 0 NMat=1 NMatS=1 NMatT=0.
 -------------------------------------------------------------------
 Center     Atomic                   Forces (Hartrees/Bohr)
 Number     Number              X              Y              Z
 -------------------------------------------------------------------
      1        9           0.000000000    0.000000000    0.000000000
      2        6           0.000000000    0.000000000    0.000000000
      3        6           0.000000000    0.000000000    0.000000000
      4        6           0.000000000    0.000000000    0.000000000
      5        6           0.000000000    0.000000000    0.000000000
      6        9           0.000000000    0.000000000    0.000000000
      7        9           0.000000000    0.000000000    0.000000000
      8        9           0.000000000    0.000000000    0.000000000
      9        6           0.000000000    0.000000000    0.000000000
     10        7           0.000000000    0.000000000    0.000000000
     11        6           0.000000000    0.000000000    0.000000000
     12       16           0.000000000    0.000000000    0.000000000
     13        1           0.000000000    0.000000000    0.000000000
     14        1           0.000000000    0.000000000    0.000000000
     15        1           0.000000000    0.000000000    0.000000000
     16        8          -0.001593049   -0.018246232   -0.000000780
     17        1           0.002244484    0.008376435    0.005486966
     18        1           0.002244224    0.008376927   -0.005486311
 -------------------------------------------------------------------
 Cartesian Forces:  Max     0.018246232 RMS     0.003180033
 -----------------------------------------------------------------------------------------------
                       Internal Coordinate Forces (Hartree/Bohr or radian)
  Cent   Atom   N1       Length/X         N2         Alpha/Y        N3         Beta/Z          J
 -----------------------------------------------------------------------------------------------
      1  F 
      2  C 
      3  C 
      4  C 
      5  C 
      6  F 
      7  F 
      8  F 
      9  C 
     10  N 
     11  C 
     12  S 
     13  H 
     14  H 
     15  H 
         X       15   0.000000(     1)     10   0.007908(     6)      9   0.000000(    11)     0
         X       16   0.000000(     2)     15   0.000000(     7)     10   0.000000(    12)     0
     16  O       15   0.000000(     3)     16   0.007908(     8)     17   0.000000(    13)     0
     17  H       18  -0.009526(     4)     15  -0.006047(     9)     16  -0.002637(    14)     0
     18  H       18  -0.009526(     5)     15  -0.006047(    10)     16   0.002637(    15)     0
 -----------------------------------------------------------------------------------------------
 Internal  Forces:  Max     0.009525505 RMS     0.005122304

 GradGradGradGradGradGradGradGradGradGradGradGradGradGradGradGradGradGrad
 Berny optimization.
 Search for a local minimum.
 Step number   4 out of a maximum of   20
 All quantities printed in internal units (Hartrees-Bohrs-Radians)
 Update second derivatives using D2CorN and points    3    4
 DE= -1.38D-07 DEPred=-1.34D-07 R= 1.03D+00
 Trust test= 1.03D+00 RLast= 4.56D-03 DXMaxT set to 3.00D-01
 The second derivative matrix:
                          RX       RDUM       ROH      ADUM      AHOA
           RX           0.01334
           RDUM         0.00000   0.00000
           ROH          0.00185   0.00000   1.12160
           ADUM         0.00382   0.00000   0.00000   1.00904
           AHOA        -0.00442   0.00000   0.00000   0.00000   0.96000
           DOH          0.00000   0.00000   0.00000   0.00000   0.00000
           DD1          0.00000   0.00000   0.00000   0.00000   0.00000
           DD2          0.00000   0.00000   0.00000   0.00000   0.00000
           DH1         -0.00087   0.00000   0.00000   0.01595   0.00000
           DH2          0.00087   0.00000   0.00000  -0.01595   0.00000
                          DOH       DD1       DD2       DH1       DH2
           DOH          0.00000
           DD1          0.00000   0.31645
           DD2          0.00000  -0.31645   0.31645
           DH1          0.00000   0.00000   0.00000   0.02814
           DH2          0.00000   0.00000   0.00000  -0.02814   0.02814
     Eigenvalues ---    0.013341000.000001000.000001000.000001000.00000
     Eigenvalues --- 1000.000001000.000001000.000001000.000001000.00000
 RFO step:  Lambda= 0.00000000D+00 EMin= 1.33432274D-02
 Quartic linear search produced a step of -0.00005.
 Variable       Old X    -DE/DX   Delta X   Delta X   Delta X     New X
                                 (Linear)    (Quad)   (Total)
    RX        3.68042   0.00000   0.00000   0.00000   0.00000   3.68042
   RDUM       1.88973   0.00000   0.00000   0.00000   0.00000   1.88973
   ROH        1.80885  -0.01905   0.00000   0.00000   0.00000   1.80885
   ADUM       1.57080   0.01582   0.00000   0.00000   0.00000   1.57080
   AHOA       2.22948  -0.01209   0.00000   0.00000   0.00000   2.22948
   DOH        3.14159   0.00000   0.00000   0.00000   0.00000   3.14159
   DD1        0.00000   0.00000   0.00000   0.00000   0.00000   0.00000
   DD2        3.14159   0.00000   0.00000   0.00000   0.00000   3.14159
   DH1        1.57080  -0.00264   0.00000   0.00000   0.00000   1.57080
   DH2       -1.57080   0.00264   0.00000   0.00000   0.00000  -1.57080
         Item               Value     Threshold  Converged?
 Maximum Force            0.000000     0.000450     YES
 RMS     Force            0.000000     0.000300     YES
 Maximum Displacement     0.000000     0.001800     YES
 RMS     Displacement     0.000000     0.001200     YES
 Predicted change in Energy=-4.085835D-16
 Optimization completed.
    -- Stationary point found.
                       ----------------------------
                       !   Optimized Parameters   !
                       ! (Angstroms and Degrees)  !
 ----------------------                            ----------------------
 !      Name          Value   Derivative information (Atomic Units)     !
 ------------------------------------------------------------------------
 !       RX          1.9476   -DE/DX =    0.0                           !
 !      RDUM         1.0      -DE/DX =    0.0                           !
 !       ROH         0.9572   -DE/DX =   -0.0191                        !
 !      ADUM        90.0      -DE/DX =    0.0158                        !
 !      AHOA       127.74     -DE/DX =   -0.0121                        !
 !       DOH       180.0      -DE/DX =    0.0                           !
 !       DD1         0.0      -DE/DX =    0.0                           !
 !       DD2       180.0      -DE/DX =    0.0                           !
 !       DH1        90.0      -DE/DX =   -0.0026                        !
 !       DH2       -90.0      -DE/DX =    0.0026                        !
 ------------------------------------------------------------------------
 GradGradGradGradGradGradGradGradGradGradGradGradGradGradGradGradGradGrad

 ---------------------------------------------------------------------------------------------------
                            Z-MATRIX (ANGSTROMS AND DEGREES)
   CD    Cent   Atom    N1       Length/X        N2       Alpha/Y        N3        Beta/Z          J
 ---------------------------------------------------------------------------------------------------
      1      1  F       -1  -1.969300          2.053680          0.000070
      2      2  C       -1  -1.222250          0.944230          0.000030
      3      3  C       -1   0.140030          1.057400         -0.000020
      4      4  C       -1   0.927950         -0.123640         -0.000080
      5      5  C       -1   2.414660         -0.018650         -0.000010
      6      6  F       -1   3.007080         -1.234610         -0.000560
      7      7  F       -1   2.858290          0.654480         -1.086020
      8      8  F       -1   2.858270          0.653500          1.086650
      9      9  C       -1   0.306540         -1.341490         -0.000090
     10     10  N       -1  -1.054170         -1.389970         -0.000060
     11     11  C       -1  -1.930500         -0.312100          0.000000
     12     12  S       -1  -3.570980         -0.506610          0.000030
     13     13  H       -1   0.596860          2.043100         -0.000020
     14     14  H       -1   0.831760         -2.288990         -0.000150
     15     15  H       -1  -1.521480         -2.296390         -0.000090
     16         X       15   1.000000(    15)     10   90.000(    33)      9  180.000(    50)      0
     17         X       16   1.000000(    16)     15   90.000(    34)     10    0.000(    51)      0
     18     16  O       15   1.947594(    17)     16   90.000(    35)     17  180.000(    52)      0
     19     17  H       18   0.957200(    18)     15  127.740(    36)     16   90.000(    53)      0
     20     18  H       18   0.957200(    19)     15  127.740(    37)     16  -90.000(    54)      0
 ---------------------------------------------------------------------------------------------------
                         Z-Matrix orientation:                         
 ---------------------------------------------------------------------
 Center     Atomic      Atomic             Coordinates (Angstroms)
 Number     Number       Type             X           Y           Z
 ---------------------------------------------------------------------
      1          9           0       -1.969300    2.053680    0.000070
      2          6           0       -1.222250    0.944230    0.000030
      3          6           0        0.140030    1.057400   -0.000020
      4          6           0        0.927950   -0.123640   -0.000080
      5          6           0        2.414660   -0.018650   -0.000010
      6          9           0        3.007080   -1.234610   -0.000560
      7          9           0        2.858290    0.654480   -1.086020
      8          9           0        2.858270    0.653500    1.086650
      9          6           0        0.306540   -1.341490   -0.000090
     10          7           0       -1.054170   -1.389970   -0.000060
     11          6           0       -1.930500   -0.312100    0.000000
     12         16           0       -3.570980   -0.506610    0.000030
     13          1           0        0.596860    2.043100   -0.000020
     14          1           0        0.831760   -2.288990   -0.000150
     15          1           0       -1.521480   -2.296390   -0.000090
     16         -1           0       -2.410308   -1.838150   -0.000048
     17         -1           0       -1.952068   -0.949321   -0.000019
     18          8           0       -2.413946   -4.027467   -0.000147
     19          1           0       -2.682439   -4.548181   -0.757115
     20          1           0       -2.682404   -4.548250    0.756786
 ---------------------------------------------------------------------
                    Distance matrix (angstroms):
                    1          2          3          4          5
     1  F    0.000000
     2  C    1.337521   0.000000
     3  C    2.332777   1.366973   0.000000
     4  C    3.624194   2.400772   1.419744   0.000000
     5  C    4.849088   3.762214   2.516312   1.490413   0.000000
     6  F    5.964663   4.757581   3.670597   2.357337   1.352598
     7  F    5.142274   4.232525   2.954772   2.347541   1.352527
     8  F    5.142625   4.232719   2.955134   2.347566   1.352555
     9  C    4.087374   2.749857   2.404662   1.367227   2.488790
    10  N    3.563171   2.340244   2.723184   2.352104   3.730054
    11  C    2.366098   1.442215   2.482463   2.864656   4.355058
    12  S    3.020011   2.760701   4.027123   4.515201   6.005497
    13  H    2.566182   2.125247   1.086415   2.191890   2.748674
    14  H    5.167661   3.830492   3.417136   2.167485   2.767673
    15  H    4.373060   3.254406   3.742796   3.274225   4.547669
    16  X    3.916737   3.025412   3.858553   3.752800   5.156636
    17  X    3.003051   2.029328   2.898931   2.996039   4.464802
    18  O    6.097381   5.112525   5.690225   5.138885   6.275831
    19  H    6.683298   5.733411   6.321556   5.760606   6.860779
    20  H    6.683308   5.733416   6.321566   5.760614   6.860763
                    6          7          8          9         10
     6  F    0.000000
     7  F    2.183809   0.000000
     8  F    2.183834   2.172670   0.000000
     9  C    2.702654   3.416807   3.416477   0.000000
    10  N    4.064221   4.546034   4.545756   1.361573   0.000000
    11  C    5.023019   5.004620   5.004549   2.462517   1.389157
    12  S    6.618222   6.622926   6.622828   3.966382   2.667332
    13  H    4.068482   2.867355   2.868068   3.397019   3.809445
    14  H    2.417382   3.734964   3.734451   1.083334   2.089251
    15  H    4.651369   5.391592   5.391203   2.062399   1.019792
    16  X    5.450904   5.928800   5.928503   2.761872   1.428277
    17  X    4.967347   5.185665   5.185483   2.292402   1.000196
    18  O    6.098162   7.134159   7.133642   3.823025   2.967386
    19  H    6.627425   7.607598   7.820257   4.448590   3.633000
    20  H    6.627519   7.820717   7.606975   4.448590   3.633000
                   11         12         13         14         15
    11  C    0.000000
    12  S    1.651971   0.000000
    13  H    3.454637   4.885889   0.000000
    14  H    3.396789   4.749842   4.338454   0.000000
    15  H    2.026007   2.720986   4.828927   2.353252   0.000000
    16  X    1.599701   1.766396   4.909904   3.273265   1.000000
    17  X    0.637586   1.678353   3.930855   3.089403   1.414214
    18  O    3.746688   3.706097   6.776189   3.681971   1.947594
    19  H    4.368411   4.206789   7.400810   4.245767   2.644140
    20  H    4.368415   4.206792   7.400825   4.245769   2.644140
                   16         17         18         19         20
    16  X    0.000000
    17  X    1.000000   0.000000
    18  O    2.189320   3.112605   0.000000
    19  H    2.826920   3.749457   0.957200   0.000000
    20  H    2.826920   3.749457   0.957200   1.513901   0.000000
 Symmetry turned off by external request.
 Stoichiometry    C6H5F4NOS
 Framework group  C1[X(C6H5F4NOS)]
 Deg. of freedom    48
 Full point group                 C1      NOp   1
 Rotational constants (GHZ):      0.9845957      0.3862601      0.2921799

 **********************************************************************

            Population analysis using the SCF density.

 **********************************************************************

 Alpha  occ. eigenvalues --  -91.88537 -26.35803 -26.34853 -26.34851 -26.32084
 Alpha  occ. eigenvalues --  -20.60215 -15.66011 -11.53009 -11.36012 -11.35604
 Alpha  occ. eigenvalues --  -11.34407 -11.29767 -11.28725  -8.89652  -6.57988
 Alpha  occ. eigenvalues --   -6.57711  -6.57581  -1.73048  -1.64064  -1.63371
 Alpha  occ. eigenvalues --   -1.63367  -1.38326  -1.33315  -1.15513  -1.10329
 Alpha  occ. eigenvalues --   -1.01522  -0.95580  -0.91069  -0.86507  -0.83446
 Alpha  occ. eigenvalues --   -0.82585  -0.82295  -0.75370  -0.74700  -0.74417
 Alpha  occ. eigenvalues --   -0.72356  -0.71234  -0.70459  -0.69975  -0.68839
 Alpha  occ. eigenvalues --   -0.66486  -0.66470  -0.65073  -0.62625  -0.61840
 Alpha  occ. eigenvalues --   -0.60438  -0.59165  -0.57528  -0.53942  -0.50786
 Alpha  occ. eigenvalues --   -0.44905  -0.41572  -0.32192  -0.29337
 Alpha virt. eigenvalues --    0.06197   0.10296   0.17457   0.22643   0.26508
 Alpha virt. eigenvalues --    0.27303   0.27739   0.28106   0.31072   0.32673
 Alpha virt. eigenvalues --    0.35461   0.40029   0.41900   0.42061   0.44250
 Alpha virt. eigenvalues --    0.44584   0.48488   0.51322   0.55832   0.57072
 Alpha virt. eigenvalues --    0.58126   0.61287   0.63261   0.65922   0.68170
 Alpha virt. eigenvalues --    0.69156   0.73498   0.74502   0.75030   0.76950
 Alpha virt. eigenvalues --    0.78653   0.79607   0.84730   0.86004   0.88904
 Alpha virt. eigenvalues --    0.90634   0.91419   0.93479   0.97144   0.97223
 Alpha virt. eigenvalues --    1.03178   1.03506   1.04022   1.05979   1.08916
 Alpha virt. eigenvalues --    1.11039   1.12201   1.14455   1.15432   1.16371
 Alpha virt. eigenvalues --    1.17142   1.19006   1.22054   1.26280   1.29686
 Alpha virt. eigenvalues --    1.31351   1.32674   1.34411   1.34705   1.35651
 Alpha virt. eigenvalues --    1.36575   1.40037   1.40441   1.43878   1.44257
 Alpha virt. eigenvalues --    1.45873   1.48777   1.53429   1.56818   1.61707
 Alpha virt. eigenvalues --    1.62006   1.62740   1.65042   1.65543   1.65954
 Alpha virt. eigenvalues --    1.66754   1.68247   1.69239   1.71102   1.72016
 Alpha virt. eigenvalues --    1.74381   1.78071   1.78298   1.82469   1.87957
 Alpha virt. eigenvalues --    1.91090   1.93721   1.95361   1.99193   2.01337
 Alpha virt. eigenvalues --    2.02409   2.06194   2.07468   2.10455   2.11311
 Alpha virt. eigenvalues --    2.13112   2.13401   2.16844   2.19695   2.21789
 Alpha virt. eigenvalues --    2.23906   2.24121   2.25958   2.29585   2.31693
 Alpha virt. eigenvalues --    2.32394   2.33962   2.36069   2.36511   2.37192
 Alpha virt. eigenvalues --    2.40129   2.44084   2.45223   2.46972   2.47535
 Alpha virt. eigenvalues --    2.48798   2.53953   2.58643   2.62345   2.63662
 Alpha virt. eigenvalues --    2.68534   2.70435   2.76567   2.84707   2.85941
 Alpha virt. eigenvalues --    2.87075   2.90313   2.93229   2.94663   2.94987
 Alpha virt. eigenvalues --    3.02042   3.08567   3.11294   3.18805   3.23951
 Alpha virt. eigenvalues --    3.31258   3.38515   3.39577   3.44282   3.45643
 Alpha virt. eigenvalues --    3.50905   3.73050   4.06944   4.40550   4.45877
 Alpha virt. eigenvalues --    4.48152   4.51205   4.62958   4.65764   4.69727
 Alpha virt. eigenvalues --    4.83595   5.03024   5.16876   5.59805   6.02963
          Condensed to atoms (all electrons):
              1          2          3          4          5          6
     1  F    9.166305   0.265510  -0.033960   0.002221  -0.000015   0.000000
     2  C    0.265510   4.582849   0.567450  -0.027131   0.000835  -0.000019
     3  C   -0.033960   0.567450   5.067777   0.357361  -0.012730   0.002183
     4  C    0.002221  -0.027131   0.357361   5.217020   0.418841  -0.045345
     5  C   -0.000015   0.000835  -0.012730   0.418841   3.554712   0.288140
     6  F    0.000000  -0.000019   0.002183  -0.045345   0.288140   9.191533
     7  F    0.000000   0.000294   0.005052  -0.055819   0.283413  -0.030701
     8  F    0.000000   0.000293   0.005046  -0.055826   0.283420  -0.030702
     9  C    0.000129  -0.022357  -0.054261   0.582349  -0.021216   0.005260
    10  N    0.001386  -0.055368  -0.021468  -0.036613   0.001214   0.000237
    11  C   -0.040808   0.388055  -0.077198  -0.001165   0.000069   0.000002
    12  S    0.003221  -0.086926   0.002093  -0.000050   0.000006   0.000000
    13  H   -0.000242  -0.017863   0.369355  -0.030466  -0.000285   0.000035
    14  H    0.000001  -0.000103   0.001811  -0.025494  -0.000070   0.004931
    15  H   -0.000016   0.002180  -0.000348   0.002144  -0.000019   0.000001
    16  O    0.000000  -0.000008   0.000000   0.000017   0.000000   0.000000
    17  H    0.000000   0.000001   0.000000   0.000000   0.000000   0.000000
    18  H    0.000000   0.000001   0.000000   0.000000   0.000000   0.000000
              7          8          9         10         11         12
     1  F    0.000000   0.000000   0.000129   0.001386  -0.040808   0.003221
     2  C    0.000294   0.000293  -0.022357  -0.055368   0.388055  -0.086926
     3  C    0.005052   0.005046  -0.054261  -0.021468  -0.077198   0.002093
     4  C   -0.055819  -0.055826   0.582349  -0.036613  -0.001165  -0.000050
     5  C    0.283413   0.283420  -0.021216   0.001214   0.000069   0.000006
     6  F   -0.030701  -0.030702   0.005260   0.000237   0.000002   0.000000
     7  F    9.205624  -0.033972   0.000527  -0.000006  -0.000001   0.000000
     8  F   -0.033972   9.205645   0.000523  -0.000006  -0.000001   0.000000
     9  C    0.000527   0.000523   4.730363   0.278936  -0.041087   0.003338
    10  N   -0.000006  -0.000006   0.278936   7.305111   0.222513  -0.095331
    11  C   -0.000001  -0.000001  -0.041087   0.222513   4.930811   0.447229
    12  S    0.000000   0.000000   0.003338  -0.095331   0.447229  15.978398
    13  H    0.000906   0.000903   0.002395  -0.000275   0.002626  -0.000063
    14  H    0.000082   0.000082   0.381917  -0.031262   0.001022  -0.000120
    15  H    0.000000   0.000000  -0.015354   0.270434  -0.014707   0.005042
    16  O    0.000000   0.000000   0.000643  -0.012052  -0.000570  -0.000365
    17  H    0.000000   0.000000  -0.000027   0.000562   0.000024   0.000397
    18  H    0.000000   0.000000  -0.000027   0.000562   0.000024   0.000397
             13         14         15         16         17         18
     1  F   -0.000242   0.000001  -0.000016   0.000000   0.000000   0.000000
     2  C   -0.017863  -0.000103   0.002180  -0.000008   0.000001   0.000001
     3  C    0.369355   0.001811  -0.000348   0.000000   0.000000   0.000000
     4  C   -0.030466  -0.025494   0.002144   0.000017   0.000000   0.000000
     5  C   -0.000285  -0.000070  -0.000019   0.000000   0.000000   0.000000
     6  F    0.000035   0.004931   0.000001   0.000000   0.000000   0.000000
     7  F    0.000906   0.000082   0.000000   0.000000   0.000000   0.000000
     8  F    0.000903   0.000082   0.000000   0.000000   0.000000   0.000000
     9  C    0.002395   0.381917  -0.015354   0.000643  -0.000027  -0.000027
    10  N   -0.000275  -0.031262   0.270434  -0.012052   0.000562   0.000562
    11  C    0.002626   0.001022  -0.014707  -0.000570   0.000024   0.000024
    12  S   -0.000063  -0.000120   0.005042  -0.000365   0.000397   0.000397
    13  H    0.399150  -0.000065   0.000006   0.000000   0.000000   0.000000
    14  H   -0.000065   0.387065  -0.001370   0.000263  -0.000010  -0.000010
    15  H    0.000006  -0.001370   0.198575   0.026998  -0.000782  -0.000782
    16  O    0.000000   0.000263   0.026998   8.337762   0.266174   0.266174
    17  H    0.000000  -0.000010  -0.000782   0.266174   0.294682  -0.016446
    18  H    0.000000  -0.000010  -0.000782   0.266174  -0.016446   0.294682
 Mulliken atomic charges:
              1
     1  F   -0.363730
     2  C    0.402305
     3  C   -0.178160
     4  C   -0.302043
     5  C    1.203684
     6  F   -0.385554
     7  F   -0.375399
     8  F   -0.375404
     9  C    0.167950
    10  N   -0.828574
    11  C    0.183164
    12  S   -0.257265
    13  H    0.273883
    14  H    0.281330
    15  H    0.527997
    16  O   -0.885035
    17  H    0.455425
    18  H    0.455425
 Sum of Mulliken atomic charges =   0.00000
 Mulliken charges with hydrogens summed into heavy atoms:
              1
     1  F   -0.363730
     2  C    0.402305
     3  C    0.095723
     4  C   -0.302043
     5  C    1.203684
     6  F   -0.385554
     7  F   -0.375399
     8  F   -0.375404
     9  C    0.449280
    10  N   -0.300578
    11  C    0.183164
    12  S   -0.257265
    16  O    0.025815
 Sum of Mulliken charges with hydrogens summed into heavy atoms =   0.00000
 Electronic spatial extent (au):  <R**2>=           3459.4663
 Charge=              0.0000 electrons
 Dipole moment (field-independent basis, Debye):
    X=              2.1876    Y=             -5.6170    Z=             -0.0005  Tot=              6.0280
 Quadrupole moment (field-independent basis, Debye-Ang):
   XX=           -101.3478   YY=            -51.2923   ZZ=            -79.4501
   XY=             14.1428   XZ=              0.0003   YZ=              0.0009
 Traceless Quadrupole moment (field-independent basis, Debye-Ang):
   XX=            -23.9844   YY=             26.0711   ZZ=             -2.0867
   XY=             14.1428   XZ=              0.0003   YZ=              0.0009
 Octapole moment (field-independent basis, Debye-Ang**2):
  XXX=            136.6862  YYY=            -50.6158  ZZZ=              0.0005  XYY=            -34.8288
  XXY=            -10.3782  XXZ=             -0.0027  XZZ=             26.1052  YZZ=             19.4107
  YYZ=             -0.0018  XYZ=             -0.0029
 Hexadecapole moment (field-independent basis, Debye-Ang**3):
 XXXX=          -2888.8336 YYYY=           -437.1832 ZZZZ=           -143.8206 XXXY=           -111.1192
 XXXZ=              0.0039 YYYX=            210.0523 YYYZ=              0.0010 ZZZX=             -0.0029
 ZZZY=             -0.0129 XXYY=           -430.5034 XXZZ=           -467.8544 YYZZ=           -169.5882
 XXYZ=              0.0021 YYXZ=              0.0185 ZZXY=            -50.6383
 N-N= 9.193392792479D+02 E-N=-4.577673570928D+03  KE= 1.152564131108D+03
 1\1\GINC-B1\FOpt\RHF\6-31G(d)\C6H5F4N1O1S1\ANA\24-Sep-2021\1\\#HF/6-31
 G* Opt=Z-matrix NoSymm\\water interaction with atom H15\\0,1\F,-1,-1.9
 693,2.05368,0.00007\C,-1,-1.22225,0.94423,0.00003\C,-1,0.14003,1.0574,
 -0.00002\C,-1,0.92795,-0.12364,-0.00008\C,-1,2.41466,-0.01865,-0.00001
 \F,-1,3.00708,-1.23461,-0.00056\F,-1,2.85829,0.65448,-1.08602\F,-1,2.8
 5827,0.6535,1.08665\C,-1,0.30654,-1.34149,-0.00009\N,-1,-1.05417,-1.38
 997,-0.00006\C,-1,-1.9305,-0.3121,0.\S,-1,-3.57098,-0.50661,0.00003\H,
 -1,0.59686,2.0431,-0.00002\H,-1,0.83176,-2.28899,-0.00015\H,-1,-1.5214
 8,-2.29639,-0.00009\X,15,RDUM,10,ADUM,9,DOH,0\X,16,RDUM,15,ADUM,10,DD1
 ,0\O,15,RX,16,ADUM,17,DD2,0\H,18,ROH,15,AHOA,16,DH1,0\H,18,ROH,15,AHOA
 ,16,DH2,0\\RX=1.94759414\RDUM=1.\ROH=0.9572\ADUM=90.\AHOA=127.74\DOH=1
 80.\DD1=0.\DD2=180.\DH1=90.\DH2=-90.\\Version=EM64L-G09RevA.01\HF=-115
 4.684001\RMSD=2.750e-09\RMSF=3.180e-03\Dipole=0.8606527,-2.2099065,-0.
 0002001\Quadrupole=-17.8317947,19.3831996,-1.5514049,10.5147996,0.0002
 532,0.0006851\PG=C01 [X(C6H5F4N1O1S1)]\\@


 The chemist is a guest at the physicist's table and
 frequently dines well.
                   -- Richard Bersohn
 Job cpu time:  0 days  0 hours  3 minutes 36.4 seconds.
 File lengths (MBytes):  RWF=     26 Int=      0 D2E=      0 Chk=      3 Scr=      1
 Normal termination of Gaussian 09 at Fri Sep 24 08:31:56 2021.
