 Entering Gaussian System, Link 0=g16
 Initial command:
 /home/alexey/programs//g16/l1.exe "/home/alexey/tmp/Gau-1457931.inp" -scrdir="/home/alexey/tmp/"
 Entering Link 1 = /home/alexey/programs//g16/l1.exe PID=   1457933.
  
 Copyright (c) 1988-2021, Gaussian, Inc.  All Rights Reserved.
  
 This is part of the Gaussian(R) 16 program.  It is based on
 the Gaussian(R) 09 system (copyright 2009, Gaussian, Inc.),
 the Gaussian(R) 03 system (copyright 2003, Gaussian, Inc.),
 the Gaussian(R) 98 system (copyright 1998, Gaussian, Inc.),
 the Gaussian(R) 94 system (copyright 1995, Gaussian, Inc.),
 the Gaussian 92(TM) system (copyright 1992, Gaussian, Inc.),
 the Gaussian 90(TM) system (copyright 1990, Gaussian, Inc.),
 the Gaussian 88(TM) system (copyright 1988, Gaussian, Inc.),
 the Gaussian 86(TM) system (copyright 1986, Carnegie Mellon
 University), and the Gaussian 82(TM) system (copyright 1983,
 Carnegie Mellon University). Gaussian is a federally registered
 trademark of Gaussian, Inc.
  
 This software contains proprietary and confidential information,
 including trade secrets, belonging to Gaussian, Inc.
  
 This software is provided under written license and may be
 used, copied, transmitted, or stored only in accord with that
 written license.
  
 The following legend is applicable only to US Government
 contracts under FAR:
  
                    RESTRICTED RIGHTS LEGEND
  
 Use, reproduction and disclosure by the US Government is
 subject to restrictions as set forth in subparagraphs (a)
 and (c) of the Commercial Computer Software - Restricted
 Rights clause in FAR 52.227-19.
  
 Gaussian, Inc.
 340 Quinnipiac St., Bldg. 40, Wallingford CT 06492
  
  
 ---------------------------------------------------------------
 Warning -- This program may not be used in any manner that
 competes with the business of Gaussian, Inc. or will provide
 assistance to any competitor of Gaussian, Inc.  The licensee
 of this program is prohibited from giving any competitor of
 Gaussian, Inc. access to this program.  By using this program,
 the user acknowledges that Gaussian, Inc. is engaged in the
 business of creating and licensing software in the field of
 computational chemistry and represents and warrants to the
 licensee that it is not a competitor of Gaussian, Inc. and that
 it will not use this program in any manner prohibited above.
 ---------------------------------------------------------------
  

 Cite this work as:
 Gaussian 16, Revision C.02,
 M. J. Frisch, G. W. Trucks, H. B. Schlegel, G. E. Scuseria, 
 M. A. Robb, J. R. Cheeseman, G. Scalmani, V. Barone, 
 G. A. Petersson, H. Nakatsuji, X. Li, M. Caricato, A. V. Marenich, 
 J. Bloino, B. G. Janesko, R. Gomperts, B. Mennucci, H. P. Hratchian, 
 J. V. Ortiz, A. F. Izmaylov, J. L. Sonnenberg, D. Williams-Young, 
 F. Ding, F. Lipparini, F. Egidi, J. Goings, B. Peng, A. Petrone, 
 T. Henderson, D. Ranasinghe, V. G. Zakrzewski, J. Gao, N. Rega, 
 G. Zheng, W. Liang, M. Hada, M. Ehara, K. Toyota, R. Fukuda, 
 J. Hasegawa, M. Ishida, T. Nakajima, Y. Honda, O. Kitao, H. Nakai, 
 T. Vreven, K. Throssell, J. A. Montgomery, Jr., J. E. Peralta, 
 F. Ogliaro, M. J. Bearpark, J. J. Heyd, E. N. Brothers, K. N. Kudin, 
 V. N. Staroverov, T. A. Keith, R. Kobayashi, J. Normand, 
 K. Raghavachari, A. P. Rendell, J. C. Burant, S. S. Iyengar, 
 J. Tomasi, M. Cossi, J. M. Millam, M. Klene, C. Adamo, R. Cammi, 
 J. W. Ochterski, R. L. Martin, K. Morokuma, O. Farkas, 
 J. B. Foresman, and D. J. Fox, Gaussian, Inc., Wallingford CT, 2019.
 
 ******************************************
 Gaussian 16:  ES64L-G16RevC.02  7-Dec-2021
                 2-Jul-2023 
 ******************************************
 %mem=8GB
 %NPROCS=4
 Will use up to    4 processors via shared memory.
 %NoSave
 ---------------------------------------------------------
 #MP2/6-31G* SCF=Tight Opt=(ModRedun, MaxCycle=20 ) NoSymm
 ---------------------------------------------------------
 1/6=20,18=120,19=15,38=1/1,3;
 2/9=110,12=2,15=1,17=6,18=5,40=1/2;
 3/5=1,6=6,7=1,11=9,25=1,30=1,71=1/1,2,3;
 4//1;
 5/5=2,32=2,38=5/2;
 8/6=4,10=2/1;
 9/15=2,16=-3/6;
 10/5=1,31=1/2;
 6/7=2,8=2,9=2,10=2/1;
 7/12=2,30=1/1,2,3,16;
 1/6=20,18=20,19=15/3(2);
 2/9=110,15=1/2;
 99//99;
 2/9=110,15=1/2;
 3/5=1,6=6,7=1,11=9,25=1,30=1,71=1/1,2,3;
 4/5=5,16=3,69=1/1;
 5/5=2,32=2,38=5/2;
 8/6=4,10=2/1;
 9/15=2,16=-3/6;
 10/5=1,31=1/2;
 7/12=2,30=1/1,2,3,16;
 1/6=20,18=20,19=15/3(-8);
 2/9=110,15=1/2;
 6/7=2,8=2,9=2,10=2/1;
 99/9=10/99;
 --------
 MolName:
 --------
 Symbolic Z-matrix:
 Charge =  0 Multiplicity = 1
 8                    0    -3.59755  -1.47034  -0.13975 
 7                    0    -3.2502   -0.3047    0.04162 
 8                    0    -4.03639   0.61823   0.25784 
 6                    0    -1.75913   0.00959  -0.03494 
 6                    0    -1.37126   1.30637   0.32257 
 7                    0    -0.08467   1.78055   0.31621 
 6                    0     1.19134   1.0014    0.32367 
 1                    0     1.83645   1.49984   1.09336 
 6                    0     1.99309   1.04688  -1.0007 
 6                    0     3.39683   0.45494  -0.7723 
 6                    0     3.31251  -0.95979  -0.17797 
 6                    0     2.42925  -0.98809   1.08824 
 6                    0     1.00128  -0.44492   0.80701 
 1                    0     0.43355  -0.48073   1.76644 
 7                    0     0.36501  -1.31043  -0.19041 
 6                    0    -0.8688   -1.08418  -0.50917 
 1                    0    -2.14842   2.01789   0.64784 
 1                    0     0.13404   2.74979   0.07309 
 1                    0     1.46272   0.4711   -1.78886 
 1                    0     2.09399   2.09583  -1.35174 
 1                    0     3.95781   0.42726  -1.73205 
 1                    0     3.95768   1.10728  -0.06619 
 1                    0     2.88192  -1.64788  -0.94018 
 1                    0     4.33246  -1.32834   0.06705 
 1                    0     2.356    -2.03388   1.45936 
 1                    0     2.90629  -0.37921   1.88471 
 1                    0    -1.36681  -1.79347  -1.18775 
 
 The following ModRedundant input section has been read:
 D       4       5       6       7 F                                           
 D       1       2       4      16 F                                           
 D       7      13      15      16 F                                           
 D       7       9      10      11 F                                           
 D       9      10      11      12 F                                           
 D       6       7      13      15 F                                           
 

 GradGradGradGradGradGradGradGradGradGradGradGradGradGradGradGradGradGrad
 Berny optimization.
 Initialization pass.
                           ----------------------------
                           !    Initial Parameters    !
                           ! (Angstroms and Degrees)  !
 --------------------------                            --------------------------
 ! Name  Definition              Value          Derivative Info.                !
 --------------------------------------------------------------------------------
 ! R1    R(1,2)                  1.2297         estimate D2E/DX2                !
 ! R2    R(2,3)                  1.2315         estimate D2E/DX2                !
 ! R3    R(2,4)                  1.5258         estimate D2E/DX2                !
 ! R4    R(4,5)                  1.4            estimate D2E/DX2                !
 ! R5    R(4,16)                 1.4879         estimate D2E/DX2                !
 ! R6    R(5,6)                  1.3712         estimate D2E/DX2                !
 ! R7    R(5,17)                 1.1027         estimate D2E/DX2                !
 ! R8    R(6,7)                  1.4951         estimate D2E/DX2                !
 ! R9    R(6,18)                 1.0229         estimate D2E/DX2                !
 ! R10   R(7,8)                  1.1212         estimate D2E/DX2                !
 ! R11   R(7,9)                  1.5488         estimate D2E/DX2                !
 ! R12   R(7,13)                 1.5367         estimate D2E/DX2                !
 ! R13   R(9,10)                 1.5405         estimate D2E/DX2                !
 ! R14   R(9,19)                 1.1109         estimate D2E/DX2                !
 ! R15   R(9,20)                 1.1107         estimate D2E/DX2                !
 ! R16   R(10,11)                1.5368         estimate D2E/DX2                !
 ! R17   R(10,21)                1.112          estimate D2E/DX2                !
 ! R18   R(10,22)                1.113          estimate D2E/DX2                !
 ! R19   R(11,12)                1.5441         estimate D2E/DX2                !
 ! R20   R(11,23)                1.1135         estimate D2E/DX2                !
 ! R21   R(11,24)                1.1118         estimate D2E/DX2                !
 ! R22   R(12,13)                1.5535         estimate D2E/DX2                !
 ! R23   R(12,25)                1.1121         estimate D2E/DX2                !
 ! R24   R(12,26)                1.1103         estimate D2E/DX2                !
 ! R25   R(13,14)                1.1154         estimate D2E/DX2                !
 ! R26   R(13,15)                1.4659         estimate D2E/DX2                !
 ! R27   R(15,16)                1.2943         estimate D2E/DX2                !
 ! R28   R(16,27)                1.1007         estimate D2E/DX2                !
 ! A1    A(1,2,3)              123.7751         estimate D2E/DX2                !
 ! A2    A(1,2,4)              117.6383         estimate D2E/DX2                !
 ! A3    A(3,2,4)              118.5753         estimate D2E/DX2                !
 ! A4    A(2,4,5)              116.6637         estimate D2E/DX2                !
 ! A5    A(2,4,16)             116.7012         estimate D2E/DX2                !
 ! A6    A(5,4,16)             126.6216         estimate D2E/DX2                !
 ! A7    A(4,5,6)              125.3874         estimate D2E/DX2                !
 ! A8    A(4,5,17)             118.538          estimate D2E/DX2                !
 ! A9    A(6,5,17)             116.0722         estimate D2E/DX2                !
 ! A10   A(5,6,7)              128.3568         estimate D2E/DX2                !
 ! A11   A(5,6,18)             121.9638         estimate D2E/DX2                !
 ! A12   A(7,6,18)             108.2096         estimate D2E/DX2                !
 ! A13   A(6,7,8)              105.2372         estimate D2E/DX2                !
 ! A14   A(6,7,9)              114.9753         estimate D2E/DX2                !
 ! A15   A(6,7,13)             112.7361         estimate D2E/DX2                !
 ! A16   A(8,7,9)              106.0284         estimate D2E/DX2                !
 ! A17   A(8,7,13)             105.8817         estimate D2E/DX2                !
 ! A18   A(9,7,13)             111.1372         estimate D2E/DX2                !
 ! A19   A(7,9,10)             109.4901         estimate D2E/DX2                !
 ! A20   A(7,9,19)             110.1402         estimate D2E/DX2                !
 ! A21   A(7,9,20)             110.182          estimate D2E/DX2                !
 ! A22   A(10,9,19)            109.9433         estimate D2E/DX2                !
 ! A23   A(10,9,20)            109.0849         estimate D2E/DX2                !
 ! A24   A(19,9,20)            107.9766         estimate D2E/DX2                !
 ! A25   A(9,10,11)            111.1663         estimate D2E/DX2                !
 ! A26   A(9,10,21)            109.9558         estimate D2E/DX2                !
 ! A27   A(9,10,22)            109.1497         estimate D2E/DX2                !
 ! A28   A(11,10,21)           109.7878         estimate D2E/DX2                !
 ! A29   A(11,10,22)           108.7754         estimate D2E/DX2                !
 ! A30   A(21,10,22)           107.9352         estimate D2E/DX2                !
 ! A31   A(10,11,12)           111.4314         estimate D2E/DX2                !
 ! A32   A(10,11,23)           108.9875         estimate D2E/DX2                !
 ! A33   A(10,11,24)           109.8794         estimate D2E/DX2                !
 ! A34   A(12,11,23)           109.1963         estimate D2E/DX2                !
 ! A35   A(12,11,24)           109.7528         estimate D2E/DX2                !
 ! A36   A(23,11,24)           107.5033         estimate D2E/DX2                !
 ! A37   A(11,12,13)           111.7744         estimate D2E/DX2                !
 ! A38   A(11,12,25)           109.1817         estimate D2E/DX2                !
 ! A39   A(11,12,26)           109.417          estimate D2E/DX2                !
 ! A40   A(13,12,25)           109.1881         estimate D2E/DX2                !
 ! A41   A(13,12,26)           109.4555         estimate D2E/DX2                !
 ! A42   A(25,12,26)           107.7352         estimate D2E/DX2                !
 ! A43   A(7,13,12)            105.8031         estimate D2E/DX2                !
 ! A44   A(7,13,14)            111.3282         estimate D2E/DX2                !
 ! A45   A(7,13,15)            113.2891         estimate D2E/DX2                !
 ! A46   A(12,13,14)           107.5136         estimate D2E/DX2                !
 ! A47   A(12,13,15)           108.4046         estimate D2E/DX2                !
 ! A48   A(14,13,15)           110.2059         estimate D2E/DX2                !
 ! A49   A(13,15,16)           118.5647         estimate D2E/DX2                !
 ! A50   A(4,16,15)            128.3479         estimate D2E/DX2                !
 ! A51   A(4,16,27)            113.5437         estimate D2E/DX2                !
 ! A52   A(15,16,27)           118.0668         estimate D2E/DX2                !
 ! D1    D(1,2,4,5)           -172.9874         estimate D2E/DX2                !
 ! D2    D(1,2,4,16)             8.2588         Frozen                          !
 ! D3    D(3,2,4,5)              8.1892         estimate D2E/DX2                !
 ! D4    D(3,2,4,16)          -170.5645         estimate D2E/DX2                !
 ! D5    D(2,4,5,6)           -179.8368         estimate D2E/DX2                !
 ! D6    D(2,4,5,17)             0.7556         estimate D2E/DX2                !
 ! D7    D(16,4,5,6)            -1.224          estimate D2E/DX2                !
 ! D8    D(16,4,5,17)          179.3684         estimate D2E/DX2                !
 ! D9    D(2,4,16,15)         -149.6286         estimate D2E/DX2                !
 ! D10   D(2,4,16,27)           27.9526         estimate D2E/DX2                !
 ! D11   D(5,4,16,15)           31.7591         estimate D2E/DX2                !
 ! D12   D(5,4,16,27)         -150.6598         estimate D2E/DX2                !
 ! D13   D(4,5,6,7)            -19.0286         Frozen                          !
 ! D14   D(4,5,6,18)           145.4498         estimate D2E/DX2                !
 ! D15   D(17,5,6,7)           160.392          estimate D2E/DX2                !
 ! D16   D(17,5,6,18)          -35.1296         estimate D2E/DX2                !
 ! D17   D(5,6,7,8)           -134.1865         estimate D2E/DX2                !
 ! D18   D(5,6,7,9)            109.5456         estimate D2E/DX2                !
 ! D19   D(5,6,7,13)           -19.2468         estimate D2E/DX2                !
 ! D20   D(18,6,7,8)            59.641          estimate D2E/DX2                !
 ! D21   D(18,6,7,9)           -56.6269         estimate D2E/DX2                !
 ! D22   D(18,6,7,13)          174.5806         estimate D2E/DX2                !
 ! D23   D(6,7,9,10)           168.6467         estimate D2E/DX2                !
 ! D24   D(6,7,9,19)           -70.3433         estimate D2E/DX2                !
 ! D25   D(6,7,9,20)            48.6716         estimate D2E/DX2                !
 ! D26   D(8,7,9,10)            52.8319         estimate D2E/DX2                !
 ! D27   D(8,7,9,19)           173.8419         estimate D2E/DX2                !
 ! D28   D(8,7,9,20)           -67.1432         estimate D2E/DX2                !
 ! D29   D(13,7,9,10)          -61.7709         estimate D2E/DX2                !
 ! D30   D(13,7,9,19)           59.2391         estimate D2E/DX2                !
 ! D31   D(13,7,9,20)          178.254          estimate D2E/DX2                !
 ! D32   D(6,7,13,12)         -166.3543         estimate D2E/DX2                !
 ! D33   D(6,7,13,14)          -49.8506         estimate D2E/DX2                !
 ! D34   D(6,7,13,15)           75.0216         Frozen                          !
 ! D35   D(8,7,13,12)          -51.8041         estimate D2E/DX2                !
 ! D36   D(8,7,13,14)           64.6997         estimate D2E/DX2                !
 ! D37   D(8,7,13,15)         -170.4282         estimate D2E/DX2                !
 ! D38   D(9,7,13,12)           62.8901         estimate D2E/DX2                !
 ! D39   D(9,7,13,14)          179.3939         estimate D2E/DX2                !
 ! D40   D(9,7,13,15)          -55.734          estimate D2E/DX2                !
 ! D41   D(7,9,10,11)           54.8121         Frozen                          !
 ! D42   D(7,9,10,21)          176.6023         estimate D2E/DX2                !
 ! D43   D(7,9,10,22)          -65.1757         estimate D2E/DX2                !
 ! D44   D(19,9,10,11)         -66.3171         estimate D2E/DX2                !
 ! D45   D(19,9,10,21)          55.4731         estimate D2E/DX2                !
 ! D46   D(19,9,10,22)         173.6951         estimate D2E/DX2                !
 ! D47   D(20,9,10,11)         175.4567         estimate D2E/DX2                !
 ! D48   D(20,9,10,21)         -62.7531         estimate D2E/DX2                !
 ! D49   D(20,9,10,22)          55.4689         estimate D2E/DX2                !
 ! D50   D(9,10,11,12)         -52.8222         Frozen                          !
 ! D51   D(9,10,11,23)          67.7495         estimate D2E/DX2                !
 ! D52   D(9,10,11,24)        -174.693          estimate D2E/DX2                !
 ! D53   D(21,10,11,12)       -174.7101         estimate D2E/DX2                !
 ! D54   D(21,10,11,23)        -54.1384         estimate D2E/DX2                !
 ! D55   D(21,10,11,24)         63.4191         estimate D2E/DX2                !
 ! D56   D(22,10,11,12)         67.3875         estimate D2E/DX2                !
 ! D57   D(22,10,11,23)       -172.0408         estimate D2E/DX2                !
 ! D58   D(22,10,11,24)        -54.4833         estimate D2E/DX2                !
 ! D59   D(10,11,12,13)         56.5097         estimate D2E/DX2                !
 ! D60   D(10,11,12,25)        177.4196         estimate D2E/DX2                !
 ! D61   D(10,11,12,26)        -64.8962         estimate D2E/DX2                !
 ! D62   D(23,11,12,13)        -63.9394         estimate D2E/DX2                !
 ! D63   D(23,11,12,25)         56.9704         estimate D2E/DX2                !
 ! D64   D(23,11,12,26)        174.6546         estimate D2E/DX2                !
 ! D65   D(24,11,12,13)        178.4538         estimate D2E/DX2                !
 ! D66   D(24,11,12,25)        -60.6364         estimate D2E/DX2                !
 ! D67   D(24,11,12,26)         57.0479         estimate D2E/DX2                !
 ! D68   D(11,12,13,7)         -59.9881         estimate D2E/DX2                !
 ! D69   D(11,12,13,14)       -179.0453         estimate D2E/DX2                !
 ! D70   D(11,12,13,15)         61.8302         estimate D2E/DX2                !
 ! D71   D(25,12,13,7)         179.1057         estimate D2E/DX2                !
 ! D72   D(25,12,13,14)         60.0485         estimate D2E/DX2                !
 ! D73   D(25,12,13,15)        -59.0759         estimate D2E/DX2                !
 ! D74   D(26,12,13,7)          61.3955         estimate D2E/DX2                !
 ! D75   D(26,12,13,14)        -57.6617         estimate D2E/DX2                !
 ! D76   D(26,12,13,15)       -176.7862         estimate D2E/DX2                !
 ! D77   D(7,13,15,16)         -67.1601         Frozen                          !
 ! D78   D(12,13,15,16)        175.73           estimate D2E/DX2                !
 ! D79   D(14,13,15,16)         58.3159         estimate D2E/DX2                !
 ! D80   D(13,15,16,4)           3.035          estimate D2E/DX2                !
 ! D81   D(13,15,16,27)       -174.4519         estimate D2E/DX2                !
 --------------------------------------------------------------------------------
 Trust Radius=3.00D-01 FncErr=1.00D-07 GrdErr=1.00D-07 EigMax=2.50D+02 EigMin=1.00D-04
 Number of steps in this run=     20 maximum allowed number of steps=    162.
 GradGradGradGradGradGradGradGradGradGradGradGradGradGradGradGradGradGrad

                          Input orientation:                          
 ---------------------------------------------------------------------
 Center     Atomic      Atomic             Coordinates (Angstroms)
 Number     Number       Type             X           Y           Z
 ---------------------------------------------------------------------
      1          8           0       -3.597550   -1.470340   -0.139750
      2          7           0       -3.250200   -0.304700    0.041620
      3          8           0       -4.036390    0.618230    0.257840
      4          6           0       -1.759130    0.009590   -0.034940
      5          6           0       -1.371260    1.306370    0.322570
      6          7           0       -0.084670    1.780550    0.316210
      7          6           0        1.191340    1.001400    0.323670
      8          1           0        1.836450    1.499840    1.093360
      9          6           0        1.993090    1.046880   -1.000700
     10          6           0        3.396830    0.454940   -0.772300
     11          6           0        3.312510   -0.959790   -0.177970
     12          6           0        2.429250   -0.988090    1.088240
     13          6           0        1.001280   -0.444920    0.807010
     14          1           0        0.433550   -0.480730    1.766440
     15          7           0        0.365010   -1.310430   -0.190410
     16          6           0       -0.868800   -1.084180   -0.509170
     17          1           0       -2.148420    2.017890    0.647840
     18          1           0        0.134040    2.749790    0.073090
     19          1           0        1.462720    0.471100   -1.788860
     20          1           0        2.093990    2.095830   -1.351740
     21          1           0        3.957810    0.427260   -1.732050
     22          1           0        3.957680    1.107280   -0.066190
     23          1           0        2.881920   -1.647880   -0.940180
     24          1           0        4.332460   -1.328340    0.067050
     25          1           0        2.356000   -2.033880    1.459360
     26          1           0        2.906290   -0.379210    1.884710
     27          1           0       -1.366810   -1.793470   -1.187750
 ---------------------------------------------------------------------
                    Distance matrix (angstroms):
                    1          2          3          4          5
     1  O    0.000000
     2  N    1.229741   0.000000
     3  O    2.170895   1.231522   0.000000
     4  C    2.362407   1.525755   2.375305   0.000000
     5  C    3.588903   2.490963   2.753297   1.399962   0.000000
     6  N    4.807963   3.800559   4.119525   2.462402   1.371204
     7  C    5.409041   4.638181   5.242167   3.133299   2.580683
     8  H    6.314340   5.498775   5.997131   4.052419   3.304686
     9  C    6.191356   5.514099   6.174325   4.010962   3.624532
    10  C    7.282045   6.739624   7.506038   5.227424   4.965718
    11  C    6.929001   6.598979   7.529038   5.165432   5.227210
    12  C    6.169509   5.815375   6.713742   4.449655   4.504961
    13  C    4.805942   4.322102   5.177837   2.921527   2.988418
    14  H    4.567566   4.071364   4.843960   2.879797   2.921614
    15  N    3.966109   3.759664   4.826280   2.505712   3.182047
    16  C    2.780588   2.565546   3.676973   1.487923   2.580501
    17  H    3.858500   2.641183   2.382347   2.156619   1.102742
    18  H    5.637336   4.558945   4.687234   3.332335   2.100388
    19  H    5.665252   5.115089   5.869484   3.697235   3.631426
    20  H    6.824963   6.021990   6.508119   4.575248   3.928679
    21  H    7.951086   7.459027   8.240350   5.978130   5.778692
    22  H    7.983172   7.345668   8.015567   5.821324   5.346810
    23  H    6.531136   6.353815   7.377908   5.010590   5.330260
    24  H    7.933977   7.651485   8.594369   6.237622   6.288037
    25  H    6.190274   6.035688   7.024243   4.831459   5.132449
    26  H    6.898474   6.426889   7.200167   5.059878   4.855810
    27  H    2.485743   2.697211   3.877201   2.175755   3.448202
                    6          7          8          9         10
     6  N    0.000000
     7  C    1.495103   0.000000
     8  H    2.091282   1.121174   0.000000
     9  C    2.567024   1.548815   2.148208   0.000000
    10  C    3.881100   2.522688   2.647128   1.540469   0.000000
    11  C    4.392552   2.932110   3.137644   2.538598   1.536815
    12  C    3.818533   2.464763   2.557584   2.948730   2.545615
    13  C    2.524458   1.536744   2.135789   2.544989   3.007096
    14  H    2.735892   2.202848   2.518695   3.524602   4.012693
    15  N    3.164338   2.508318   3.422107   2.977268   3.556270
    16  C    3.082660   3.047531   4.069845   3.601865   4.542436
    17  H    2.103657   3.506043   4.043025   4.562088   5.933752
    18  H    1.022921   2.058529   2.345533   2.740254   4.077600
    19  H    2.922395   2.194914   3.083046   1.110861   2.185048
    20  H    2.761887   2.195348   2.529831   1.110723   2.173859
    21  H    4.729525   3.494135   3.692362   2.186076   1.112018
    22  H    4.115837   2.795682   2.449138   2.176366   1.112965
    23  H    4.704605   3.387338   3.890557   2.838206   2.171444
    24  H    5.407247   3.919206   3.909217   3.500630   2.181742
    25  H    4.670497   3.443712   3.590413   3.959126   3.501122
    26  H    4.008815   2.698886   2.302525   3.345633   2.827744
    27  H    4.084042   4.079194   5.129350   4.403579   5.283958
                   11         12         13         14         15
    11  C    0.000000
    12  C    1.544097   0.000000
    13  C    2.564578   1.553455   0.000000
    14  H    3.506942   2.167992   1.115395   0.000000
    15  N    2.968309   2.449477   1.465876   2.126585   0.000000
    16  C    4.196251   3.665799   2.374486   2.690477   1.294250
    17  H    6.274575   5.494081   4.001422   3.763102   4.254140
    18  H    4.891491   4.502251   3.390710   3.659699   4.075312
    19  H    2.839742   3.367658   2.791158   3.821692   2.633222
    20  H    3.492755   3.946703   3.508508   4.372501   3.992576
    21  H    2.180707   3.506244   3.993569   5.048196   4.278368
    22  H    2.168298   2.838905   3.451392   4.277827   4.332208
    23  H    1.113481   2.180532   2.834888   3.831781   2.647804
    24  H    1.111828   2.186506   3.524873   4.336804   3.975835
    25  H    2.179319   1.112103   2.187606   2.490459   2.684988
    26  H    2.180994   1.110255   2.189707   2.477648   3.410484
    27  H    4.859086   4.498760   3.377204   3.700246   2.056019
                   16         17         18         19         20
    16  C    0.000000
    17  H    3.549498   0.000000
    18  H    4.005501   2.464881   0.000000
    19  H    3.080988   4.622813   3.228727   0.000000
    20  H    4.427247   4.690676   2.509822   1.797032   0.000000
    21  H    5.203465   6.743888   4.824302   2.496122   2.530333
    22  H    5.319176   6.214781   4.163828   3.097925   2.470468
    23  H    3.817254   6.423706   5.283660   2.687836   3.847802
    24  H    5.238774   7.316856   5.853026   3.862356   4.329972
    25  H    3.895687   6.112708   5.453655   4.198072   5.002543
    26  H    4.525367   5.729400   4.556092   4.037578   4.154547
    27  H    1.100717   4.301950   4.948078   3.673670   5.208712
                   21         22         23         24         25
    21  H    0.000000
    22  H    1.799310   0.000000
    23  H    2.467955   3.084157   0.000000
    24  H    2.541506   2.467885   1.794627   0.000000
    25  H    4.336831   3.841818   2.486640   2.518473   0.000000
    26  H    3.851888   2.668536   3.096792   2.497738   1.794902
    27  H    5.794781   6.166234   4.258426   5.854276   4.574309
                   26         27
    26  H    0.000000
    27  H    5.449727   0.000000
 Symmetry turned off by external request.
 Stoichiometry    C9H13N3O2
 Framework group  C1[X(C9H13N3O2)]
 Deg. of freedom    75
 Full point group                 C1      NOp   1
 Rotational constants (GHZ):           1.6834859           0.4007408           0.3558305
 Standard basis: 6-31G(d) (6D, 7F)
   236 basis functions,   444 primitive gaussians,   236 cartesian basis functions
    52 alpha electrons       52 beta electrons
       nuclear repulsion energy       917.9977129586 Hartrees.
 NAtoms=   27 NActive=   27 NUniq=   27 SFac= 1.00D+00 NAtFMM=   60 NAOKFM=F Big=F
 Integral buffers will be    131072 words long.
 Raffenetti 1 integral format.
 Two-electron integral symmetry is turned off.
 One-electron integrals computed using PRISM.
 NBasis=   236 RedAO= T EigKep=  1.29D-03  NBF=   236
 NBsUse=   236 1.00D-06 EigRej= -1.00D+00 NBFU=   236
 ExpMin= 1.61D-01 ExpMax= 5.48D+03 ExpMxC= 8.25D+02 IAcc=3 IRadAn=         5 AccDes= 0.00D+00
 Harris functional with IExCor=  205 and IRadAn=       5 diagonalized for initial guess.
 HarFok:  IExCor=  205 AccDes= 0.00D+00 IRadAn=         5 IDoV= 1 UseB2=F ITyADJ=14
 ICtDFT=  3500011 ScaDFX=  1.000000  1.000000  1.000000  1.000000
 FoFCou: FMM=F IPFlag=           0 FMFlag=      100000 FMFlg1=           0
         NFxFlg=           0 DoJE=T BraDBF=F KetDBF=T FulRan=T
         wScrn=  0.000000 ICntrl=       500 IOpCl=  0 I1Cent=   200000004 NGrid=           0
         NMat0=    1 NMatS0=      1 NMatT0=    0 NMatD0=    1 NMtDS0=    0 NMtDT0=    0
 Symmetry not used in FoFCou.
 Keep R1 ints in memory in canonical form, NReq=397720213.
 Requested convergence on RMS density matrix=1.00D-08 within 128 cycles.
 Requested convergence on MAX density matrix=1.00D-06.
 Requested convergence on             energy=1.00D-06.
 No special actions if energy rises.
 SCF Done:  E(RHF) =  -661.277469456     A.U. after   16 cycles
            NFock= 16  Conv=0.87D-08     -V/T= 2.0037
 ExpMin= 1.61D-01 ExpMax= 5.48D+03 ExpMxC= 8.25D+02 IAcc=3 IRadAn=         5 AccDes= 0.00D+00
 HarFok:  IExCor=  205 AccDes= 0.00D+00 IRadAn=         5 IDoV=-2 UseB2=F ITyADJ=14
 ICtDFT= 12500011 ScaDFX=  1.000000  1.000000  1.000000  1.000000
 Range of M.O.s used for correlation:    15   236
 NBasis=   236 NAE=    52 NBE=    52 NFC=    14 NFV=     0
 NROrb=    222 NOA=    38 NOB=    38 NVA=   184 NVB=   184
 Fully direct method using O(ONN) memory.
 JobTyp=1 Pass  1:  I=  15 to  52 NPSUse=  4 ParTrn=T ParDer=T DoDerP=T.
 Spin components of T(2) and E(2):
     alpha-alpha T2 =       0.9195679641D-01 E2=     -0.2717430565D+00
     alpha-beta  T2 =       0.5001544301D+00 E2=     -0.1494184629D+01
     beta-beta   T2 =       0.9195679641D-01 E2=     -0.2717430565D+00
 ANorm=    0.1297716465D+01
 E2 =    -0.2037670742D+01 EUMP2 =    -0.66331514019806D+03
          IDoAtm=111111111111111111111111111
          Differentiating once with respect to electric field.
                with respect to dipole field.
          Differentiating once with respect to nuclear coordinates.
 Keep R1 ints in memory in canonical form, NReq=397723379.
          There are     1 degrees of freedom in the 1st order CPHF.  IDoFFX=0 NUNeed=     1.
 LinEq1:  Iter=  0 NonCon=     1 RMS=4.59D-03 Max=1.08D-01 NDo=     1
 AX will form     1 AO Fock derivatives at one time.
 LinEq1:  Iter=  1 NonCon=     1 RMS=1.56D-03 Max=3.23D-02 NDo=     1
 LinEq1:  Iter=  2 NonCon=     1 RMS=6.38D-04 Max=1.72D-02 NDo=     1
 LinEq1:  Iter=  3 NonCon=     1 RMS=2.95D-04 Max=9.03D-03 NDo=     1
 LinEq1:  Iter=  4 NonCon=     1 RMS=9.08D-05 Max=2.09D-03 NDo=     1
 LinEq1:  Iter=  5 NonCon=     1 RMS=3.82D-05 Max=1.96D-03 NDo=     1
 LinEq1:  Iter=  6 NonCon=     1 RMS=1.57D-05 Max=5.96D-04 NDo=     1
 LinEq1:  Iter=  7 NonCon=     1 RMS=6.11D-06 Max=1.07D-04 NDo=     1
 LinEq1:  Iter=  8 NonCon=     1 RMS=2.45D-06 Max=6.29D-05 NDo=     1
 LinEq1:  Iter=  9 NonCon=     1 RMS=9.28D-07 Max=2.63D-05 NDo=     1
 LinEq1:  Iter= 10 NonCon=     1 RMS=4.53D-07 Max=1.49D-05 NDo=     1
 LinEq1:  Iter= 11 NonCon=     1 RMS=1.60D-07 Max=5.80D-06 NDo=     1
 LinEq1:  Iter= 12 NonCon=     1 RMS=5.59D-08 Max=8.54D-07 NDo=     1
 LinEq1:  Iter= 13 NonCon=     1 RMS=1.79D-08 Max=4.04D-07 NDo=     1
 LinEq1:  Iter= 14 NonCon=     1 RMS=5.92D-09 Max=1.66D-07 NDo=     1
 LinEq1:  Iter= 15 NonCon=     1 RMS=2.25D-09 Max=5.27D-08 NDo=     1
 LinEq1:  Iter= 16 NonCon=     1 RMS=8.53D-10 Max=1.36D-08 NDo=     1
 LinEq1:  Iter= 17 NonCon=     1 RMS=2.78D-10 Max=4.35D-09 NDo=     1
 LinEq1:  Iter= 18 NonCon=     1 RMS=9.37D-11 Max=1.13D-09 NDo=     1
 LinEq1:  Iter= 19 NonCon=     0 RMS=3.05D-11 Max=4.69D-10 NDo=     1
 Linear equations converged to 1.000D-10 1.000D-09 after    19 iterations.
 End of Minotr F.D. properties file   721 does not exist.
 End of Minotr F.D. properties file   722 does not exist.
 End of Minotr F.D. properties file   788 does not exist.

 **********************************************************************

            Population analysis using the SCF Density.

 **********************************************************************

 Alpha  occ. eigenvalues --  -20.59930 -20.59469 -15.85344 -15.62787 -15.57197
 Alpha  occ. eigenvalues --  -11.35733 -11.30576 -11.30205 -11.29999 -11.27755
 Alpha  occ. eigenvalues --  -11.24573 -11.23843 -11.23427 -11.22854  -1.58569
 Alpha  occ. eigenvalues --   -1.38078  -1.28378  -1.22787  -1.13235  -1.08353
 Alpha  occ. eigenvalues --   -1.01805  -1.00600  -0.93502  -0.88977  -0.84900
 Alpha  occ. eigenvalues --   -0.81538  -0.78098  -0.76872  -0.74229  -0.70988
 Alpha  occ. eigenvalues --   -0.70423  -0.69835  -0.67448  -0.64409  -0.63342
 Alpha  occ. eigenvalues --   -0.61536  -0.60635  -0.57438  -0.56359  -0.54904
 Alpha  occ. eigenvalues --   -0.53313  -0.50736  -0.49129  -0.48503  -0.47734
 Alpha  occ. eigenvalues --   -0.47512  -0.46075  -0.45715  -0.44051  -0.42122
 Alpha  occ. eigenvalues --   -0.40293  -0.33854
 Alpha virt. eigenvalues --    0.07038   0.11679   0.18631   0.21416   0.23272
 Alpha virt. eigenvalues --    0.24154   0.26181   0.27580   0.28580   0.28883
 Alpha virt. eigenvalues --    0.29915   0.31026   0.31882   0.32216   0.33362
 Alpha virt. eigenvalues --    0.33729   0.34192   0.35579   0.37550   0.38564
 Alpha virt. eigenvalues --    0.40732   0.42035   0.44758   0.45419   0.45626
 Alpha virt. eigenvalues --    0.45863   0.49555   0.53098   0.57651   0.58939
 Alpha virt. eigenvalues --    0.63319   0.69122   0.69602   0.72134   0.73978
 Alpha virt. eigenvalues --    0.75027   0.75746   0.75818   0.77553   0.79592
 Alpha virt. eigenvalues --    0.80420   0.83624   0.85202   0.85409   0.88130
 Alpha virt. eigenvalues --    0.88852   0.90253   0.91007   0.91899   0.93864
 Alpha virt. eigenvalues --    0.95495   0.97173   0.98564   1.00224   1.01914
 Alpha virt. eigenvalues --    1.02702   1.05151   1.06098   1.06858   1.08450
 Alpha virt. eigenvalues --    1.09411   1.10466   1.11040   1.11730   1.13270
 Alpha virt. eigenvalues --    1.13761   1.14367   1.15097   1.16288   1.17372
 Alpha virt. eigenvalues --    1.17854   1.19788   1.20858   1.22104   1.23147
 Alpha virt. eigenvalues --    1.23507   1.24497   1.25946   1.27207   1.27449
 Alpha virt. eigenvalues --    1.29350   1.31321   1.32860   1.35393   1.40019
 Alpha virt. eigenvalues --    1.42773   1.45226   1.47257   1.48533   1.51958
 Alpha virt. eigenvalues --    1.53420   1.55033   1.60988   1.61547   1.65958
 Alpha virt. eigenvalues --    1.69166   1.70164   1.72208   1.73804   1.76745
 Alpha virt. eigenvalues --    1.79065   1.79458   1.84238   1.88499   1.92701
 Alpha virt. eigenvalues --    1.93622   1.96297   1.97670   1.98937   2.00152
 Alpha virt. eigenvalues --    2.03189   2.04224   2.05837   2.08704   2.11942
 Alpha virt. eigenvalues --    2.12549   2.14845   2.17796   2.18572   2.19137
 Alpha virt. eigenvalues --    2.21198   2.22123   2.24328   2.24870   2.26793
 Alpha virt. eigenvalues --    2.29042   2.32480   2.34116   2.35832   2.36042
 Alpha virt. eigenvalues --    2.38318   2.39707   2.41089   2.43033   2.45979
 Alpha virt. eigenvalues --    2.48464   2.50267   2.51818   2.56567   2.57283
 Alpha virt. eigenvalues --    2.61008   2.62682   2.66565   2.68196   2.68798
 Alpha virt. eigenvalues --    2.70064   2.70568   2.75074   2.77809   2.80783
 Alpha virt. eigenvalues --    2.83981   2.86697   2.90293   2.91649   2.95488
 Alpha virt. eigenvalues --    2.97930   2.98427   3.02361   3.02940   3.05746
 Alpha virt. eigenvalues --    3.06704   3.11991   3.19848   3.22421   3.27145
 Alpha virt. eigenvalues --    3.29361   3.33321   3.36803   3.43388   3.58901
 Alpha virt. eigenvalues --    4.09387   4.22943   4.32111   4.36051   4.42812
 Alpha virt. eigenvalues --    4.52735   4.59718   4.59899   4.70856   4.77355
 Alpha virt. eigenvalues --    4.95458   4.99212   5.02397   5.10205
          Condensed to atoms (all electrons):
               1          2          3          4          5          6
     1  O    8.299016   0.313027  -0.089245  -0.079299   0.003374  -0.000016
     2  N    0.313027   5.687789   0.308146   0.262339  -0.044328   0.000977
     3  O   -0.089245   0.308146   8.329350  -0.086402   0.007728   0.000441
     4  C   -0.079299   0.262339  -0.086402   5.237966   0.569739  -0.051254
     5  C    0.003374  -0.044328   0.007728   0.569739   4.669049   0.307263
     6  N   -0.000016   0.000977   0.000441  -0.051254   0.307263   7.204610
     7  C    0.000003  -0.000093   0.000001   0.003164  -0.030382   0.197410
     8  H   -0.000000   0.000002  -0.000000  -0.000104   0.001685  -0.052213
     9  C   -0.000000  -0.000003   0.000000   0.000397   0.002200  -0.054690
    10  C   -0.000000   0.000000  -0.000000  -0.000015  -0.000076   0.003287
    11  C   -0.000000  -0.000000  -0.000000  -0.000018   0.000015  -0.000154
    12  C   -0.000000   0.000002  -0.000000  -0.000017  -0.000093   0.003572
    13  C   -0.000021  -0.000040  -0.000003  -0.011993   0.000553  -0.042597
    14  H   -0.000005  -0.000046  -0.000000   0.003212   0.005704  -0.005659
    15  N    0.000096   0.001639  -0.000014  -0.060533  -0.004248   0.002030
    16  C    0.004018  -0.028381   0.001890   0.320751  -0.040406  -0.002071
    17  H    0.000105  -0.003525   0.010933  -0.029714   0.379330  -0.034305
    18  H    0.000000  -0.000036   0.000009   0.000695  -0.023186   0.327426
    19  H    0.000000   0.000001   0.000000  -0.000585   0.000377   0.000950
    20  H    0.000000  -0.000000   0.000000  -0.000023   0.000037  -0.002133
    21  H   -0.000000  -0.000000   0.000000   0.000000   0.000001  -0.000056
    22  H   -0.000000   0.000000  -0.000000  -0.000000  -0.000003  -0.000099
    23  H    0.000000  -0.000000   0.000000   0.000024  -0.000000  -0.000024
    24  H    0.000000   0.000000   0.000000   0.000000  -0.000000   0.000004
    25  H    0.000000  -0.000000   0.000000   0.000018  -0.000001  -0.000070
    26  H    0.000000  -0.000000   0.000000   0.000007  -0.000002  -0.000065
    27  H    0.004840  -0.000132  -0.000010  -0.064568   0.002197   0.000074
               7          8          9         10         11         12
     1  O    0.000003  -0.000000  -0.000000  -0.000000  -0.000000  -0.000000
     2  N   -0.000093   0.000002  -0.000003   0.000000  -0.000000   0.000002
     3  O    0.000001  -0.000000   0.000000  -0.000000  -0.000000  -0.000000
     4  C    0.003164  -0.000104   0.000397  -0.000015  -0.000018  -0.000017
     5  C   -0.030382   0.001685   0.002200  -0.000076   0.000015  -0.000093
     6  N    0.197410  -0.052213  -0.054690   0.003287  -0.000154   0.003572
     7  C    4.988986   0.418408   0.339623  -0.049184  -0.007591  -0.063570
     8  H    0.418408   0.551870  -0.061878   0.001686  -0.000377  -0.002736
     9  C    0.339623  -0.061878   5.182862   0.317472  -0.052944  -0.006518
    10  C   -0.049184   0.001686   0.317472   5.126695   0.332776  -0.059862
    11  C   -0.007591  -0.000377  -0.052944   0.332776   5.123159   0.330916
    12  C   -0.063570  -0.002736  -0.006518  -0.059862   0.330916   5.135792
    13  C    0.336987  -0.042046  -0.047970  -0.002154  -0.047874   0.367130
    14  H   -0.039845  -0.000900   0.003859  -0.000392   0.003938  -0.040664
    15  N   -0.057653   0.004127  -0.013004   0.001514  -0.007643  -0.073426
    16  C   -0.002980   0.000058  -0.001099  -0.000006  -0.000004   0.002778
    17  H    0.001497  -0.000009  -0.000064   0.000001   0.000000   0.000001
    18  H   -0.027516  -0.002112   0.000783  -0.000124   0.000011  -0.000129
    19  H   -0.034935   0.004182   0.385190  -0.032463  -0.002334   0.000665
    20  H   -0.041362  -0.001903   0.397382  -0.037501   0.004151  -0.000353
    21  H    0.004025  -0.000082  -0.035853   0.400234  -0.035898   0.004202
    22  H   -0.004111   0.003515  -0.045646   0.395985  -0.045596  -0.001266
    23  H    0.000402   0.000034  -0.002010  -0.040123   0.396769  -0.036797
    24  H   -0.000140  -0.000095   0.004389  -0.038458   0.400307  -0.037824
    25  H    0.004933  -0.000001  -0.000366   0.004098  -0.034058   0.395681
    26  H   -0.004454   0.001680   0.001006  -0.002381  -0.042261   0.394795
    27  H   -0.000400   0.000009  -0.000061   0.000005   0.000004  -0.000020
              13         14         15         16         17         18
     1  O   -0.000021  -0.000005   0.000096   0.004018   0.000105   0.000000
     2  N   -0.000040  -0.000046   0.001639  -0.028381  -0.003525  -0.000036
     3  O   -0.000003  -0.000000  -0.000014   0.001890   0.010933   0.000009
     4  C   -0.011993   0.003212  -0.060533   0.320751  -0.029714   0.000695
     5  C    0.000553   0.005704  -0.004248  -0.040406   0.379330  -0.023186
     6  N   -0.042597  -0.005659   0.002030  -0.002071  -0.034305   0.327426
     7  C    0.336987  -0.039845  -0.057653  -0.002980   0.001497  -0.027516
     8  H   -0.042046  -0.000900   0.004127   0.000058  -0.000009  -0.002112
     9  C   -0.047970   0.003859  -0.013004  -0.001099  -0.000064   0.000783
    10  C   -0.002154  -0.000392   0.001514  -0.000006   0.000001  -0.000124
    11  C   -0.047874   0.003938  -0.007643  -0.000004   0.000000   0.000011
    12  C    0.367130  -0.040664  -0.073426   0.002778   0.000001  -0.000129
    13  C    5.031569   0.400467   0.237924  -0.070477  -0.000040   0.003532
    14  H    0.400467   0.520706  -0.035902  -0.004840   0.000090   0.000015
    15  N    0.237924  -0.035902   6.928876   0.584619  -0.000072  -0.000117
    16  C   -0.070477  -0.004840   0.584619   4.705921   0.001610  -0.000224
    17  H   -0.000040   0.000090  -0.000072   0.001610   0.389185  -0.001588
    18  H    0.003532   0.000015  -0.000117  -0.000224  -0.001588   0.321958
    19  H   -0.006480   0.000065   0.007053   0.002586   0.000009  -0.000119
    20  H    0.003831  -0.000048   0.000074  -0.000029  -0.000000   0.003096
    21  H   -0.000361   0.000009  -0.000025   0.000002  -0.000000  -0.000000
    22  H    0.000328  -0.000045   0.000001  -0.000001   0.000000   0.000002
    23  H   -0.005725   0.000007   0.006605   0.000041   0.000000   0.000000
    24  H    0.004125  -0.000058   0.000046   0.000005   0.000000  -0.000000
    25  H   -0.034681  -0.002644   0.000569  -0.000062  -0.000000   0.000002
    26  H   -0.044624  -0.000943   0.004153  -0.000069   0.000000  -0.000001
    27  H    0.004889  -0.000183  -0.039303   0.401387  -0.000057   0.000003
              19         20         21         22         23         24
     1  O    0.000000   0.000000  -0.000000  -0.000000   0.000000   0.000000
     2  N    0.000001  -0.000000  -0.000000   0.000000  -0.000000   0.000000
     3  O    0.000000   0.000000   0.000000  -0.000000   0.000000   0.000000
     4  C   -0.000585  -0.000023   0.000000  -0.000000   0.000024   0.000000
     5  C    0.000377   0.000037   0.000001  -0.000003  -0.000000  -0.000000
     6  N    0.000950  -0.002133  -0.000056  -0.000099  -0.000024   0.000004
     7  C   -0.034935  -0.041362   0.004025  -0.004111   0.000402  -0.000140
     8  H    0.004182  -0.001903  -0.000082   0.003515   0.000034  -0.000095
     9  C    0.385190   0.397382  -0.035853  -0.045646  -0.002010   0.004389
    10  C   -0.032463  -0.037501   0.400234   0.395985  -0.040123  -0.038458
    11  C   -0.002334   0.004151  -0.035898  -0.045596   0.396769   0.400307
    12  C    0.000665  -0.000353   0.004202  -0.001266  -0.036797  -0.037824
    13  C   -0.006480   0.003831  -0.000361   0.000328  -0.005725   0.004125
    14  H    0.000065  -0.000048   0.000009  -0.000045   0.000007  -0.000058
    15  N    0.007053   0.000074  -0.000025   0.000001   0.006605   0.000046
    16  C    0.002586  -0.000029   0.000002  -0.000001   0.000041   0.000005
    17  H    0.000009  -0.000000  -0.000000   0.000000   0.000000   0.000000
    18  H   -0.000119   0.003096  -0.000000   0.000002   0.000000  -0.000000
    19  H    0.507710  -0.024121  -0.002596   0.003761   0.001646  -0.000069
    20  H   -0.024121   0.550628  -0.002586  -0.002981  -0.000050  -0.000090
    21  H   -0.002596  -0.002586   0.526370  -0.024717  -0.002821  -0.002047
    22  H    0.003761  -0.002981  -0.024717   0.568411   0.004066  -0.003593
    23  H    0.001646  -0.000050  -0.002821   0.004066   0.510413  -0.025012
    24  H   -0.000069  -0.000090  -0.002047  -0.003593  -0.025012   0.540928
    25  H   -0.000027   0.000011  -0.000086  -0.000082  -0.002116  -0.002369
    26  H    0.000024  -0.000036  -0.000075   0.002469   0.003827  -0.002784
    27  H    0.000074  -0.000000  -0.000000   0.000000  -0.000020  -0.000000
              25         26         27
     1  O    0.000000   0.000000   0.004840
     2  N   -0.000000  -0.000000  -0.000132
     3  O    0.000000   0.000000  -0.000010
     4  C    0.000018   0.000007  -0.064568
     5  C   -0.000001  -0.000002   0.002197
     6  N   -0.000070  -0.000065   0.000074
     7  C    0.004933  -0.004454  -0.000400
     8  H   -0.000001   0.001680   0.000009
     9  C   -0.000366   0.001006  -0.000061
    10  C    0.004098  -0.002381   0.000005
    11  C   -0.034058  -0.042261   0.000004
    12  C    0.395681   0.394795  -0.000020
    13  C   -0.034681  -0.044624   0.004889
    14  H   -0.002644  -0.000943  -0.000183
    15  N    0.000569   0.004153  -0.039303
    16  C   -0.000062  -0.000069   0.401387
    17  H   -0.000000   0.000000  -0.000057
    18  H    0.000002  -0.000001   0.000003
    19  H   -0.000027   0.000024   0.000074
    20  H    0.000011  -0.000036  -0.000000
    21  H   -0.000086  -0.000075  -0.000000
    22  H   -0.000082   0.002469   0.000000
    23  H   -0.002116   0.003827  -0.000020
    24  H   -0.002369  -0.002784  -0.000000
    25  H    0.511165  -0.023106  -0.000008
    26  H   -0.023106   0.559925   0.000001
    27  H   -0.000008   0.000001   0.453421
 Mulliken charges:
               1
     1  O   -0.455894
     2  N    0.502662
     3  O   -0.482824
     4  C   -0.013787
     5  C    0.193473
     6  N   -0.802638
     7  C    0.068778
     8  H    0.177201
     9  C   -0.313055
    10  C   -0.321017
    11  C   -0.315293
    12  C   -0.312260
    13  C   -0.034249
    14  H    0.194102
    15  N   -0.487388
    16  C    0.124983
    17  H    0.286612
    18  H    0.397621
    19  H    0.189434
    20  H    0.154007
    21  H    0.172363
    22  H    0.149602
    23  H    0.190865
    24  H    0.162734
    25  H    0.183200
    26  H    0.152911
    27  H    0.237858
 Sum of Mulliken charges =  -0.00000
 Mulliken charges with hydrogens summed into heavy atoms:
               1
     1  O   -0.455894
     2  N    0.502662
     3  O   -0.482824
     4  C   -0.013787
     5  C    0.480085
     6  N   -0.405017
     7  C    0.245978
     9  C    0.030386
    10  C    0.000948
    11  C    0.038306
    12  C    0.023851
    13  C    0.159853
    15  N   -0.487388
    16  C    0.362841
 Electronic spatial extent (au):  <R**2>=           3120.5377
 Charge=             -0.0000 electrons
 Dipole moment (field-independent basis, Debye):
    X=              5.2602    Y=              4.4082    Z=              0.3809  Tot=              6.8736
 Quadrupole moment (field-independent basis, Debye-Ang):
   XX=           -105.2467   YY=            -80.6659   ZZ=            -82.0243
   XY=             -2.1325   XZ=              1.3631   YZ=             -0.1892
 Traceless Quadrupole moment (field-independent basis, Debye-Ang):
   XX=            -15.9344   YY=              8.6464   ZZ=              7.2880
   XY=             -2.1325   XZ=              1.3631   YZ=             -0.1892
 Octapole moment (field-independent basis, Debye-Ang**2):
  XXX=             99.7283  YYY=             36.6324  ZZZ=             -6.0429  XYY=             -1.1222
  XXY=             12.4607  XXZ=             -3.8002  XZZ=             -8.8999  YZZ=             -2.6737
  YYZ=             -0.5132  XYZ=             -2.1246
 Hexadecapole moment (field-independent basis, Debye-Ang**3):
 XXXX=          -3549.1669 YYYY=           -620.4781 ZZZZ=           -299.7621 XXXY=            -49.8026
 XXXZ=             55.7213 YYYX=            -27.8538 YYYZ=              6.9474 ZZZX=             36.9081
 ZZZY=              9.8615 XXYY=           -656.3359 XXZZ=           -542.9422 YYZZ=           -163.4431
 XXYZ=              2.1688 YYXZ=             14.5453 ZZXY=              0.4970
 N-N= 9.179977129586D+02 E-N=-3.382006627319D+03  KE= 6.588555858830D+02
 Calling FoFJK, ICntrl=  10002127 FMM=F ISym2X=0 I1Cent= 0 IOpClX= 0 NMat=1 NMatS=1 NMatT=0.
 -------------------------------------------------------------------
 Center     Atomic                   Forces (Hartrees/Bohr)
 Number     Number              X              Y              Z
 -------------------------------------------------------------------
      1        8           0.002352828   -0.019510256   -0.004278079
      2        7           0.038504912    0.014150023   -0.001102487
      3        8          -0.005378091    0.015219807    0.004310810
      4        6          -0.002296776    0.010644208    0.011288310
      5        6           0.000698759   -0.017221570   -0.011409845
      6        7           0.016523331   -0.012556916   -0.003044317
      7        6          -0.004029126    0.006118172    0.003075179
      8        1          -0.008987425   -0.002176832   -0.007738796
      9        6          -0.004188723   -0.000425178   -0.002141839
     10        6           0.002916342   -0.000710818    0.001085739
     11        6          -0.001322964   -0.004650410   -0.002562558
     12        6           0.001106214   -0.008586796   -0.002629893
     13        6           0.010111643   -0.002609267    0.005417538
     14        1           0.000494779    0.004795045   -0.009883851
     15        7          -0.001768995    0.004621916   -0.002196971
     16        6          -0.020685283    0.004973331    0.006752652
     17        1           0.006092877   -0.004903436   -0.009306226
     18        1          -0.016829442   -0.001412269    0.009060837
     19        1           0.003018718    0.006020541    0.007707658
     20        1          -0.003370467   -0.007229042    0.002571120
     21        1          -0.004585051    0.002421755    0.009512118
     22        1          -0.003808422   -0.004024293   -0.007513563
     23        1           0.003892258    0.006159139    0.009321620
     24        1          -0.009331639    0.002647701   -0.002329997
     25        1          -0.000649951    0.010546175   -0.002396074
     26        1          -0.004769534   -0.004859081   -0.004490308
     27        1           0.006289225    0.002558352    0.002921222
 -------------------------------------------------------------------
 Cartesian Forces:  Max     0.038504912 RMS     0.008601809

 GradGradGradGradGradGradGradGradGradGradGradGradGradGradGradGradGradGrad
 Berny optimization.
 FormGI is forming the generalized inverse of G from B-inverse, IUseBI=4.
 Internal  Forces:  Max     0.036757732 RMS     0.006796956
 Search for a local minimum.
 Step number   1 out of a maximum of   20
 All quantities printed in internal units (Hartrees-Bohrs-Radians)
 Mixed Optimization -- RFO/linear search
 Second derivative matrix not updated -- first step.
 ITU=  0
     Eigenvalues ---    0.00232   0.00766   0.01036   0.01156   0.01212
     Eigenvalues ---    0.01505   0.01535   0.01884   0.01987   0.02081
     Eigenvalues ---    0.02660   0.03613   0.04496   0.04676   0.04832
     Eigenvalues ---    0.05047   0.05135   0.05297   0.05872   0.06250
     Eigenvalues ---    0.07210   0.07708   0.07731   0.07873   0.07992
     Eigenvalues ---    0.08052   0.08083   0.10459   0.11749   0.12272
     Eigenvalues ---    0.13307   0.15387   0.15915   0.15999   0.16007
     Eigenvalues ---    0.19936   0.21664   0.22935   0.24993   0.25000
     Eigenvalues ---    0.25000   0.25357   0.26153   0.26648   0.27982
     Eigenvalues ---    0.28091   0.28434   0.29819   0.31345   0.31445
     Eigenvalues ---    0.32035   0.32234   0.32288   0.32378   0.32387
     Eigenvalues ---    0.32407   0.32509   0.32524   0.32573   0.33140
     Eigenvalues ---    0.33381   0.33603   0.35037   0.43875   0.44137
     Eigenvalues ---    0.48849   0.66148   0.90455   0.911941000.00000
     Eigenvalues --- 1000.000001000.000001000.000001000.000001000.00000
     Eigenvalues --- 1000.000001000.000001000.000001000.000001000.00000
     Eigenvalues --- 1000.000001000.000001000.000001000.000001000.00000
     Eigenvalues --- 1000.000001000.000001000.000001000.000001000.00000
     Eigenvalues --- 1000.000001000.000001000.000001000.000001000.00000
     Eigenvalues --- 1000.000001000.000001000.000001000.000001000.00000
     Eigenvalues --- 1000.000001000.000001000.000001000.000001000.00000
     Eigenvalues --- 1000.000001000.000001000.000001000.000001000.00000
     Eigenvalues --- 1000.000001000.000001000.000001000.000001000.00000
     Eigenvalues --- 1000.000001000.000001000.000001000.000001000.00000
     Eigenvalues --- 1000.000001000.000001000.000001000.000001000.00000
     Eigenvalues --- 1000.000001000.000001000.000001000.000001000.00000
     Eigenvalues --- 1000.000001000.000001000.000001000.000001000.00000
     Eigenvalues --- 1000.000001000.000001000.000001000.000001000.00000
     Eigenvalues --- 1000.000001000.000001000.000001000.000001000.00000
     Eigenvalues --- 1000.000001000.000001000.000001000.000001000.00000
     Eigenvalues --- 1000.000001000.000001000.000001000.000001000.00000
     Eigenvalues --- 1000.000001000.000001000.000001000.000001000.00000
     Eigenvalues --- 1000.00000
 RFO step:  Lambda=-2.36467138D-02 EMin= 2.31525080D-03
 Linear search not attempted -- first point.
 Iteration  1 RMS(Cart)=  0.05422760 RMS(Int)=  0.00113831
 Iteration  2 RMS(Cart)=  0.00120932 RMS(Int)=  0.00036385
 Iteration  3 RMS(Cart)=  0.00000093 RMS(Int)=  0.00036385
 Iteration  1 RMS(Cart)=  0.00003206 RMS(Int)=  0.00002871
 Iteration  2 RMS(Cart)=  0.00002159 RMS(Int)=  0.00003143
 Iteration  3 RMS(Cart)=  0.00001497 RMS(Int)=  0.00003594
 Iteration  4 RMS(Cart)=  0.00001075 RMS(Int)=  0.00004000
 Iteration  5 RMS(Cart)=  0.00000801 RMS(Int)=  0.00004326
 Iteration  6 RMS(Cart)=  0.00000618 RMS(Int)=  0.00004581
 Iteration  7 RMS(Cart)=  0.00000490 RMS(Int)=  0.00004781
 Iteration  8 RMS(Cart)=  0.00000397 RMS(Int)=  0.00004940
 Iteration  9 RMS(Cart)=  0.00000327 RMS(Int)=  0.00005067
 Iteration 10 RMS(Cart)=  0.00000272 RMS(Int)=  0.00005171
 Iteration 11 RMS(Cart)=  0.00000227 RMS(Int)=  0.00005255
 Iteration 12 RMS(Cart)=  0.00000191 RMS(Int)=  0.00005326
 Iteration 13 RMS(Cart)=  0.00000161 RMS(Int)=  0.00005384
 Iteration 14 RMS(Cart)=  0.00000136 RMS(Int)=  0.00005433
 Iteration 15 RMS(Cart)=  0.00000114 RMS(Int)=  0.00005474
 Iteration 16 RMS(Cart)=  0.00000097 RMS(Int)=  0.00005509
 Variable       Old X    -DE/DX   Delta X   Delta X   Delta X     New X
                                 (Linear)    (Quad)   (Total)
    R1        2.32387   0.01846   0.00000   0.01973   0.01973   2.34360
    R2        2.32724   0.01560   0.00000   0.01680   0.01680   2.34404
    R3        2.88326  -0.03676   0.00000  -0.11421  -0.11421   2.76905
    R4        2.64555  -0.03568   0.00000  -0.07745  -0.07717   2.56838
    R5        2.81177  -0.02096   0.00000  -0.05953  -0.05928   2.75249
    R6        2.59120  -0.02147   0.00000  -0.04279  -0.04270   2.54850
    R7        2.08388  -0.01020   0.00000  -0.02854  -0.02854   2.05534
    R8        2.82533  -0.01935   0.00000  -0.05525  -0.05530   2.77003
    R9        1.93304  -0.00709   0.00000  -0.01533  -0.01533   1.91771
   R10        2.11871  -0.01145   0.00000  -0.03387  -0.03387   2.08484
   R11        2.92684  -0.01318   0.00000  -0.04483  -0.04488   2.88196
   R12        2.90403  -0.00577   0.00000  -0.01336  -0.01329   2.89073
   R13        2.91106  -0.00479   0.00000  -0.01420  -0.01423   2.89683
   R14        2.09922  -0.01003   0.00000  -0.02876  -0.02876   2.07046
   R15        2.09896  -0.00795   0.00000  -0.02277  -0.02277   2.07619
   R16        2.90416  -0.00189   0.00000  -0.00725  -0.00732   2.89684
   R17        2.10141  -0.01058   0.00000  -0.03045  -0.03045   2.07096
   R18        2.10320  -0.00904   0.00000  -0.02610  -0.02610   2.07710
   R19        2.91792  -0.00902   0.00000  -0.02869  -0.02865   2.88927
   R20        2.10417  -0.01169   0.00000  -0.03379  -0.03379   2.07038
   R21        2.10105  -0.00995   0.00000  -0.02862  -0.02862   2.07243
   R22        2.93560  -0.01036   0.00000  -0.03641  -0.03639   2.89922
   R23        2.10157  -0.01067   0.00000  -0.03072  -0.03072   2.07085
   R24        2.09808  -0.00794   0.00000  -0.02271  -0.02271   2.07537
   R25        2.10779  -0.00891   0.00000  -0.02589  -0.02589   2.08190
   R26        2.77010  -0.00520   0.00000  -0.00985  -0.01028   2.75982
   R27        2.44578  -0.00744   0.00000  -0.00940  -0.00952   2.43626
   R28        2.08005  -0.00629   0.00000  -0.01750  -0.01750   2.06255
    A1        2.16028   0.01070   0.00000   0.03938   0.03906   2.19934
    A2        2.05318  -0.00782   0.00000  -0.02829  -0.02861   2.02457
    A3        2.06953  -0.00288   0.00000  -0.01024  -0.01056   2.05897
    A4        2.03617  -0.00597   0.00000  -0.01984  -0.02014   2.01603
    A5        2.03682  -0.00370   0.00000  -0.01143  -0.01172   2.02510
    A6        2.20996   0.00965   0.00000   0.03106   0.03160   2.24157
    A7        2.18842   0.00586   0.00000   0.01582   0.01585   2.20428
    A8        2.06888  -0.00339   0.00000  -0.01021  -0.01083   2.05805
    A9        2.02584  -0.00247   0.00000  -0.00517  -0.00574   2.02010
   A10        2.24025  -0.00456   0.00000  -0.01667  -0.01674   2.22351
   A11        2.12867  -0.01256   0.00000  -0.06803  -0.06900   2.05967
   A12        1.88861   0.01723   0.00000   0.09623   0.09604   1.98465
   A13        1.83673  -0.00056   0.00000  -0.01307  -0.01294   1.82380
   A14        2.00670  -0.00181   0.00000  -0.01211  -0.01229   1.99441
   A15        1.96762   0.00073   0.00000   0.00134   0.00112   1.96873
   A16        1.85054   0.00255   0.00000   0.02271   0.02267   1.87322
   A17        1.84798   0.00035   0.00000   0.01468   0.01435   1.86233
   A18        1.93971  -0.00089   0.00000  -0.00942  -0.00908   1.93063
   A19        1.91096   0.00005   0.00000  -0.00476  -0.00491   1.90605
   A20        1.92231  -0.00071   0.00000  -0.01195  -0.01192   1.91039
   A21        1.92304  -0.00160   0.00000  -0.00785  -0.00782   1.91522
   A22        1.91887  -0.00033   0.00000   0.00627   0.00629   1.92516
   A23        1.90389   0.00304   0.00000   0.02397   0.02394   1.92784
   A24        1.88455  -0.00042   0.00000  -0.00527  -0.00553   1.87902
   A25        1.94022  -0.00094   0.00000   0.00525   0.00520   1.94541
   A26        1.91909  -0.00067   0.00000  -0.00642  -0.00645   1.91264
   A27        1.90502   0.00035   0.00000  -0.00286  -0.00293   1.90209
   A28        1.91616   0.00090   0.00000   0.00729   0.00732   1.92348
   A29        1.89849   0.00161   0.00000   0.01082   0.01083   1.90931
   A30        1.88383  -0.00124   0.00000  -0.01456  -0.01463   1.86920
   A31        1.94484   0.00033   0.00000   0.00489   0.00493   1.94977
   A32        1.90219   0.00079   0.00000   0.00558   0.00558   1.90777
   A33        1.91776   0.00038   0.00000   0.00549   0.00547   1.92323
   A34        1.90583  -0.00093   0.00000  -0.01320  -0.01322   1.89261
   A35        1.91555  -0.00045   0.00000  -0.00031  -0.00037   1.91518
   A36        1.87629  -0.00013   0.00000  -0.00282  -0.00287   1.87342
   A37        1.95083  -0.00273   0.00000  -0.01883  -0.01880   1.93203
   A38        1.90558   0.00259   0.00000   0.01698   0.01684   1.92242
   A39        1.90969   0.00123   0.00000   0.01389   0.01382   1.92351
   A40        1.90569   0.00001   0.00000  -0.00249  -0.00237   1.90332
   A41        1.91036  -0.00018   0.00000  -0.00494  -0.00487   1.90549
   A42        1.88033  -0.00085   0.00000  -0.00410  -0.00429   1.87605
   A43        1.84661   0.00414   0.00000   0.02461   0.02462   1.87124
   A44        1.94304  -0.00428   0.00000  -0.03354  -0.03410   1.90894
   A45        1.97727   0.00109   0.00000   0.00884   0.00927   1.98654
   A46        1.87647   0.00245   0.00000   0.03325   0.03365   1.91012
   A47        1.89202  -0.00320   0.00000  -0.02704  -0.02718   1.86484
   A48        1.92346   0.00007   0.00000  -0.00334  -0.00337   1.92009
   A49        2.06934  -0.00539   0.00000  -0.01285  -0.01356   2.05579
   A50        2.24009  -0.00420   0.00000  -0.01947  -0.01934   2.22075
   A51        1.98171   0.00610   0.00000   0.03157   0.03133   2.01304
   A52        2.06065  -0.00181   0.00000  -0.01108  -0.01132   2.04933
    D1       -3.01920  -0.00104   0.00000  -0.00918  -0.00912  -3.02832
    D2        0.14414  -0.00019   0.00000   0.00000  -0.00000   0.14414
    D3        0.14293  -0.00172   0.00000  -0.05457  -0.05453   0.08839
    D4       -2.97691  -0.00087   0.00000  -0.04539  -0.04541  -3.02233
    D5       -3.13874  -0.00143   0.00000   0.00968   0.00993  -3.12882
    D6        0.01319  -0.00174   0.00000  -0.04374  -0.04403  -0.03085
    D7       -0.02136  -0.00260   0.00000  -0.00124  -0.00127  -0.02264
    D8        3.13057  -0.00291   0.00000  -0.05466  -0.05524   3.07533
    D9       -2.61151  -0.00194   0.00000  -0.02229  -0.02241  -2.63392
   D10        0.48786   0.00079   0.00000   0.00722   0.00721   0.49507
   D11        0.55430  -0.00074   0.00000  -0.01127  -0.01106   0.54324
   D12       -2.62951   0.00199   0.00000   0.01824   0.01856  -2.61095
   D13       -0.33211   0.00205   0.00000   0.00000   0.00000  -0.33211
   D14        2.53858   0.00497   0.00000   0.07304   0.07073   2.60931
   D15        2.79937   0.00234   0.00000   0.05221   0.05291   2.85228
   D16       -0.61313   0.00526   0.00000   0.12525   0.12364  -0.48949
   D17       -2.34200  -0.00134   0.00000  -0.00866  -0.00798  -2.34997
   D18        1.91193  -0.00313   0.00000  -0.02148  -0.02080   1.89113
   D19       -0.33592  -0.00089   0.00000   0.00180   0.00203  -0.33389
   D20        1.04093  -0.00060   0.00000  -0.05515  -0.05638   0.98455
   D21       -0.98833  -0.00240   0.00000  -0.06797  -0.06921  -1.05754
   D22        3.04701  -0.00015   0.00000  -0.04469  -0.04638   3.00063
   D23        2.94344   0.00271   0.00000   0.02534   0.02508   2.96852
   D24       -1.22772   0.00188   0.00000   0.02250   0.02229  -1.20543
   D25        0.84948  -0.00008   0.00000   0.00365   0.00352   0.85300
   D26        0.92209   0.00271   0.00000   0.03311   0.03301   0.95510
   D27        3.03411   0.00188   0.00000   0.03027   0.03022   3.06433
   D28       -1.17187  -0.00008   0.00000   0.01142   0.01145  -1.16042
   D29       -1.07811   0.00131   0.00000   0.00780   0.00786  -1.07025
   D30        1.03392   0.00048   0.00000   0.00495   0.00506   1.03898
   D31        3.11112  -0.00148   0.00000  -0.01390  -0.01370   3.09741
   D32       -2.90343  -0.00182   0.00000  -0.01228  -0.01207  -2.91550
   D33       -0.87006   0.00130   0.00000   0.02433   0.02410  -0.84596
   D34        1.30937  -0.00117   0.00000   0.00000  -0.00001   1.30936
   D35       -0.90415  -0.00191   0.00000  -0.01856  -0.01850  -0.92265
   D36        1.12922   0.00121   0.00000   0.01805   0.01766   1.14689
   D37       -2.97453  -0.00126   0.00000  -0.00629  -0.00644  -2.98098
   D38        1.09764   0.00086   0.00000   0.01175   0.01182   1.10946
   D39        3.13101   0.00398   0.00000   0.04836   0.04799  -3.10418
   D40       -0.97274   0.00151   0.00000   0.02403   0.02388  -0.94886
   D41        0.95665   0.00049   0.00000   0.00000  -0.00000   0.95665
   D42        3.08229   0.00054   0.00000   0.00834   0.00831   3.09060
   D43       -1.13753  -0.00115   0.00000  -0.01485  -0.01482  -1.15235
   D44       -1.15745   0.00155   0.00000   0.01385   0.01391  -1.14355
   D45        0.96819   0.00160   0.00000   0.02220   0.02222   0.99041
   D46        3.03155  -0.00009   0.00000  -0.00100  -0.00092   3.03063
   D47        3.06230   0.00044   0.00000   0.00225   0.00219   3.06449
   D48       -1.09525   0.00049   0.00000   0.01059   0.01050  -1.08475
   D49        0.96812  -0.00120   0.00000  -0.01260  -0.01263   0.95548
   D50       -0.92192  -0.00089   0.00000   0.00000  -0.00000  -0.92192
   D51        1.18245  -0.00132   0.00000  -0.00968  -0.00969   1.17276
   D52       -3.04897  -0.00080   0.00000  -0.00665  -0.00667  -3.05564
   D53       -3.04927  -0.00002   0.00000  -0.00035  -0.00035  -3.04962
   D54       -0.94489  -0.00045   0.00000  -0.01003  -0.01004  -0.95493
   D55        1.10687   0.00007   0.00000  -0.00700  -0.00702   1.09985
   D56        1.17613   0.00001   0.00000   0.00669   0.00672   1.18285
   D57       -3.00268  -0.00042   0.00000  -0.00299  -0.00297  -3.00565
   D58       -0.95091   0.00010   0.00000   0.00004   0.00005  -0.95087
   D59        0.98628  -0.00057   0.00000  -0.01236  -0.01236   0.97392
   D60        3.09656  -0.00058   0.00000  -0.01618  -0.01630   3.08026
   D61       -1.13265   0.00061   0.00000  -0.00325  -0.00319  -1.13584
   D62       -1.11595  -0.00115   0.00000  -0.01371  -0.01368  -1.12964
   D63        0.99432  -0.00116   0.00000  -0.01753  -0.01762   0.97670
   D64        3.04830   0.00003   0.00000  -0.00460  -0.00451   3.04378
   D65        3.11461  -0.00018   0.00000  -0.00236  -0.00235   3.11225
   D66       -1.05830  -0.00019   0.00000  -0.00618  -0.00629  -1.06460
   D67        0.99567   0.00100   0.00000   0.00675   0.00681   1.00249
   D68       -1.04699   0.00002   0.00000  -0.00045  -0.00042  -1.04741
   D69       -3.12493   0.00162   0.00000   0.00915   0.00875  -3.11618
   D70        1.07914   0.00192   0.00000   0.00938   0.00945   1.08859
   D71        3.12599  -0.00148   0.00000  -0.00795  -0.00786   3.11813
   D72        1.04804   0.00012   0.00000   0.00165   0.00131   1.04935
   D73       -1.03107   0.00043   0.00000   0.00189   0.00201  -1.02906
   D74        1.07155  -0.00034   0.00000   0.00132   0.00146   1.07301
   D75       -1.00639   0.00126   0.00000   0.01092   0.01062  -0.99576
   D76       -3.08550   0.00156   0.00000   0.01115   0.01133  -3.07417
   D77       -1.17216   0.00265   0.00000   0.00000  -0.00001  -1.17217
   D78        3.06707  -0.00103   0.00000  -0.01810  -0.01806   3.04901
   D79        1.01781  -0.00215   0.00000  -0.04044  -0.04073   0.97708
   D80        0.05297   0.00406   0.00000   0.01669   0.01649   0.06946
   D81       -3.04476   0.00107   0.00000  -0.01484  -0.01454  -3.05930
         Item               Value     Threshold  Converged?
 Maximum Force            0.036758     0.000450     NO 
 RMS     Force            0.006909     0.000300     NO 
 Maximum Displacement     0.277077     0.001800     NO 
 RMS     Displacement     0.054363     0.001200     NO 
 Predicted change in Energy=-1.333425D-02
 GradGradGradGradGradGradGradGradGradGradGradGradGradGradGradGradGradGrad

                          Input orientation:                          
 ---------------------------------------------------------------------
 Center     Atomic      Atomic             Coordinates (Angstroms)
 Number     Number       Type             X           Y           Z
 ---------------------------------------------------------------------
      1          8           0       -3.453688   -1.458600   -0.162414
      2          7           0       -3.123130   -0.278737    0.029176
      3          8           0       -3.889767    0.659534    0.294771
      4          6           0       -1.687066    0.004898   -0.037337
      5          6           0       -1.323264    1.267960    0.308419
      6          7           0       -0.069597    1.765000    0.311689
      7          6           0        1.187125    1.010653    0.328818
      8          1           0        1.804889    1.520440    1.087532
      9          6           0        1.959128    1.048778   -0.985862
     10          6           0        3.351259    0.444052   -0.770982
     11          6           0        3.264544   -0.966181   -0.176310
     12          6           0        2.405127   -0.995119    1.087895
     13          6           0        1.006374   -0.431545    0.805687
     14          1           0        0.414217   -0.437804    1.734685
     15          7           0        0.389201   -1.307823   -0.186334
     16          6           0       -0.840937   -1.085888   -0.501883
     17          1           0       -2.110378    1.969751    0.574682
     18          1           0        0.051126    2.754857    0.123428
     19          1           0        1.411755    0.481913   -1.747093
     20          1           0        2.041315    2.086289   -1.337849
     21          1           0        3.892623    0.420570   -1.723546
     22          1           0        3.921653    1.092479   -0.091033
     23          1           0        2.819388   -1.643442   -0.913527
     24          1           0        4.268907   -1.343991    0.050028
     25          1           0        2.309170   -2.022960    1.455606
     26          1           0        2.878989   -0.403230    1.882403
     27          1           0       -1.319973   -1.790868   -1.183648
 ---------------------------------------------------------------------
                    Distance matrix (angstroms):
                    1          2          3          4          5
     1  O    0.000000
     2  N    1.240182   0.000000
     3  O    2.210356   1.240413   0.000000
     4  C    2.297482   1.465317   2.321796   0.000000
     5  C    3.492065   2.389512   2.637670   1.359127   0.000000
     6  N    4.697706   3.685206   3.976939   2.415778   1.348607
     7  C    5.279741   4.508948   5.089134   3.067016   2.523624
     8  H    6.171684   5.351872   5.813668   3.969377   3.233590
     9  C    6.021926   5.349948   6.000092   3.909490   3.535152
    10  C    7.092091   6.563566   7.322208   5.110364   4.867762
    11  C    6.736269   6.427845   7.351805   5.047847   5.125850
    12  C    6.008644   5.674127   6.556875   4.360301   4.430577
    13  C    4.678056   4.204655   5.042190   2.855834   2.926228
    14  H    4.427380   3.930253   4.669238   2.784140   2.821827
    15  N    3.845920   3.666325   4.734081   2.460960   3.132408
    16  C    2.660944   2.478290   3.602294   1.456555   2.535712
    17  H    3.755181   2.525657   2.227385   2.101050   1.087637
    18  H    5.488046   4.391751   4.466584   3.257212   2.033232
    19  H    5.472599   4.929392   5.683916   3.571205   3.510461
    20  H    6.644016   5.842397   6.314967   4.463670   3.834091
    21  H    7.741880   7.265112   8.043401   5.843716   5.661487
    22  H    7.804406   7.177998   7.832916   5.713445   5.263033
    23  H    6.320587   6.169654   7.195585   4.877793   5.208741
    24  H    7.726367   7.468428   8.404641   6.107434   6.177495
    25  H    6.012239   5.881063   6.853476   4.723451   5.033962
    26  H    6.737795   6.282944   7.033214   4.969993   4.788448
    27  H    2.388736   2.647425   3.846302   2.161842   3.403337
                    6          7          8          9         10
     6  N    0.000000
     7  C    1.465838   0.000000
     8  H    2.043389   1.103251   0.000000
     9  C    2.512436   1.525065   2.131951   0.000000
    10  C    3.823524   2.492804   2.646496   1.532938   0.000000
    11  C    4.337510   2.911820   3.148202   2.533683   1.532942
    12  C    3.787480   2.466343   2.586179   2.945657   2.534128
    13  C    2.495306   1.529709   2.127748   2.511721   2.958216
    14  H    2.666709   2.161452   2.487468   3.463820   3.960082
    15  N    3.146547   2.505473   3.409689   2.942360   3.490654
    16  C    3.063401   3.032917   4.039751   3.554068   4.470754
    17  H    2.067820   3.442942   3.974194   4.454702   5.828212
    18  H    1.014807   2.091633   2.351375   2.789569   4.126823
    19  H    2.842411   2.153934   3.044371   1.095640   2.171613
    20  H    2.698175   2.159725   2.501710   1.098671   2.175830
    21  H    4.652833   3.446754   3.670218   2.162690   1.095903
    22  H    4.067499   2.767781   2.460255   2.157344   1.099153
    23  H    4.633018   3.354388   3.878607   2.827247   2.158897
    24  H    5.343866   3.888374   3.918260   3.483316   2.170998
    25  H    4.616894   3.425119   3.597980   3.939399   3.482785
    26  H    3.982778   2.697239   2.342225   3.343862   2.825133
    27  H    4.055079   4.052359   5.088003   4.342259   5.194764
                   11         12         13         14         15
    11  C    0.000000
    12  C    1.528938   0.000000
    13  C    2.519819   1.534199   0.000000
    14  H    3.472096   2.166255   1.101692   0.000000
    15  N    2.895586   2.405286   1.460435   2.108998   0.000000
    16  C    4.120110   3.615600   2.355942   2.645309   1.289211
    17  H    6.170371   5.426199   3.941285   3.676344   4.191603
    18  H    4.925650   4.531428   3.395752   3.594588   4.088473
    19  H    2.827926   3.347472   2.741428   3.736809   2.585486
    20  H    3.487555   3.938486   3.464872   4.296389   3.946576
    21  H    2.170599   3.481525   3.931101   4.979505   4.198134
    22  H    2.162672   2.836863   3.409635   4.239943   4.271856
    23  H    1.095598   2.144207   2.776943   3.775108   2.558761
    24  H    1.096683   2.161610   3.470980   4.303241   3.887068
    25  H    2.166257   1.095845   2.156913   2.486253   2.625580
    26  H    2.168840   1.098236   2.160280   2.469437   3.361102
    27  H    4.765777   4.435030   3.349194   3.654430   2.036969
                   16         17         18         19         20
    16  C    0.000000
    17  H    3.479570   0.000000
    18  H    3.992257   2.343528   0.000000
    19  H    3.013830   4.473224   3.242905   0.000000
    20  H    4.366798   4.572517   2.557961   1.771398   0.000000
    21  H    5.115513   6.611947   4.859764   2.481738   2.520064
    22  H    5.253223   6.131736   4.217875   3.068374   2.465336
    23  H    3.725358   6.290670   5.299394   2.682050   3.833580
    24  H    5.146040   7.207734   5.881804   3.837563   4.319166
    25  H    3.825316   6.020812   5.449862   4.163775   4.976049
    26  H    4.470872   5.677584   4.589588   4.013664   4.155650
    27  H    1.091455   4.225958   4.924629   3.597963   5.133652
                   21         22         23         24         25
    21  H    0.000000
    22  H    1.765617   0.000000
    23  H    2.463353   3.062148   0.000000
    24  H    2.529986   2.465131   1.766130   0.000000
    25  H    4.311052   3.833817   2.452988   2.505438   0.000000
    26  H    3.835227   2.686772   3.059233   2.484855   1.769287
    27  H    5.687979   6.081295   4.150784   5.740839   4.493351
                   26         27
    26  H    0.000000
    27  H    5.381216   0.000000
 Symmetry turned off by external request.
 Stoichiometry    C9H13N3O2
 Framework group  C1[X(C9H13N3O2)]
 Deg. of freedom    75
 Full point group                 C1      NOp   1
 Rotational constants (GHZ):           1.6963795           0.4220375           0.3727724
 Standard basis: 6-31G(d) (6D, 7F)
   236 basis functions,   444 primitive gaussians,   236 cartesian basis functions
    52 alpha electrons       52 beta electrons
       nuclear repulsion energy       932.6103551527 Hartrees.
 NAtoms=   27 NActive=   27 NUniq=   27 SFac= 1.00D+00 NAtFMM=   60 NAOKFM=F Big=F
 Integral buffers will be    131072 words long.
 Raffenetti 1 integral format.
 Two-electron integral symmetry is turned off.
 One-electron integrals computed using PRISM.
 NBasis=   236 RedAO= T EigKep=  1.02D-03  NBF=   236
 NBsUse=   236 1.00D-06 EigRej= -1.00D+00 NBFU=   236
 Initial guess from the checkpoint file:  "/home/alexey/tmp/Gau-1457933.chk"
 B after Tr=     0.054830    0.004109    0.001506
         Rot=    0.999999   -0.000817   -0.000209    0.000676 Ang=  -0.12 deg.
 ExpMin= 1.61D-01 ExpMax= 5.48D+03 ExpMxC= 8.25D+02 IAcc=3 IRadAn=         5 AccDes= 0.00D+00
 Harris functional with IExCor=  205 and IRadAn=       5 diagonalized for initial guess.
 HarFok:  IExCor=  205 AccDes= 0.00D+00 IRadAn=         5 IDoV= 1 UseB2=F ITyADJ=14
 ICtDFT=  3500011 ScaDFX=  1.000000  1.000000  1.000000  1.000000
 FoFCou: FMM=F IPFlag=           0 FMFlag=      100000 FMFlg1=           0
         NFxFlg=           0 DoJE=T BraDBF=F KetDBF=T FulRan=T
         wScrn=  0.000000 ICntrl=       500 IOpCl=  0 I1Cent=   200000004 NGrid=           0
         NMat0=    1 NMatS0=      1 NMatT0=    0 NMatD0=    1 NMtDS0=    0 NMtDT0=    0
 Symmetry not used in FoFCou.
 Keep R1 ints in memory in canonical form, NReq=397720213.
 Requested convergence on RMS density matrix=1.00D-08 within 128 cycles.
 Requested convergence on MAX density matrix=1.00D-06.
 Requested convergence on             energy=1.00D-06.
 No special actions if energy rises.
 SCF Done:  E(RHF) =  -661.294870400     A.U. after   15 cycles
            NFock= 15  Conv=0.40D-08     -V/T= 2.0025
 ExpMin= 1.61D-01 ExpMax= 5.48D+03 ExpMxC= 8.25D+02 IAcc=3 IRadAn=         5 AccDes= 0.00D+00
 HarFok:  IExCor=  205 AccDes= 0.00D+00 IRadAn=         5 IDoV=-2 UseB2=F ITyADJ=14
 ICtDFT= 12500011 ScaDFX=  1.000000  1.000000  1.000000  1.000000
 Range of M.O.s used for correlation:    15   236
 NBasis=   236 NAE=    52 NBE=    52 NFC=    14 NFV=     0
 NROrb=    222 NOA=    38 NOB=    38 NVA=   184 NVB=   184
 Fully direct method using O(ONN) memory.
 JobTyp=1 Pass  1:  I=  15 to  52 NPSUse=  4 ParTrn=T ParDer=T DoDerP=T.
 Spin components of T(2) and E(2):
     alpha-alpha T2 =       0.9123252226D-01 E2=     -0.2723030352D+00
     alpha-beta  T2 =       0.4917542863D+00 E2=     -0.1488512060D+01
     beta-beta   T2 =       0.9123252226D-01 E2=     -0.2723030352D+00
 ANorm=    0.1293916277D+01
 E2 =    -0.2033118130D+01 EUMP2 =    -0.66332798853035D+03
          IDoAtm=111111111111111111111111111
          Differentiating once with respect to electric field.
                with respect to dipole field.
          Differentiating once with respect to nuclear coordinates.
 Keep R1 ints in memory in canonical form, NReq=397723379.
          There are     1 degrees of freedom in the 1st order CPHF.  IDoFFX=0 NUNeed=     1.
 LinEq1:  Iter=  0 NonCon=     1 RMS=4.56D-03 Max=1.02D-01 NDo=     1
 AX will form     1 AO Fock derivatives at one time.
 LinEq1:  Iter=  1 NonCon=     1 RMS=1.53D-03 Max=2.43D-02 NDo=     1
 LinEq1:  Iter=  2 NonCon=     1 RMS=6.40D-04 Max=1.71D-02 NDo=     1
 LinEq1:  Iter=  3 NonCon=     1 RMS=2.81D-04 Max=8.02D-03 NDo=     1
[...]
    27  H    4.727757   4.423986   3.355031   3.656594   2.031215
                   16         17         18         19         20
    16  C    0.000000
    17  H    3.466048   0.000000
    18  H    4.075941   2.233255   0.000000
    19  H    2.986972   4.399854   3.559315   0.000000
    20  H    4.364203   4.537165   2.936571   1.767997   0.000000
    21  H    5.094979   6.575351   5.118392   2.498888   2.522273
    22  H    5.242683   6.114987   4.319901   3.070215   2.461430
    23  H    3.701467   6.258685   5.430013   2.705642   3.843486
    24  H    5.136539   7.194456   5.930794   3.850666   4.317454
    25  H    3.824045   6.022791   5.337052   4.173202   4.984988
    26  H    4.491576   5.709290   4.446109   4.038496   4.183228
    27  H    1.089669   4.228519   5.065554   3.565258   5.124481
                   21         22         23         24         25
    21  H    0.000000
    22  H    1.758728   0.000000
    23  H    2.468961   3.062070   0.000000
    24  H    2.517266   2.459727   1.764535   0.000000
    25  H    4.312141   3.840072   2.444364   2.519993   0.000000
    26  H    3.847270   2.705429   3.060535   2.490807   1.767692
    27  H    5.645071   6.051532   4.098732   5.702314   4.468348
                   26         27
    26  H    0.000000
    27  H    5.381591   0.000000
 Symmetry turned off by external request.
 Stoichiometry    C9H13N3O2
 Framework group  C1[X(C9H13N3O2)]
 Deg. of freedom    75
 Full point group                 C1      NOp   1
 Rotational constants (GHZ):           1.6874627           0.4195992           0.3723465

 **********************************************************************

            Population analysis using the SCF Density.

 **********************************************************************

 Alpha  occ. eigenvalues --  -20.59336 -20.59008 -15.84789 -15.63932 -15.56329
 Alpha  occ. eigenvalues --  -11.34938 -11.29627 -11.29599 -11.28709 -11.27201
 Alpha  occ. eigenvalues --  -11.23598 -11.23154 -11.22747 -11.22094  -1.57201
 Alpha  occ. eigenvalues --   -1.36807  -1.30841  -1.23157  -1.14693  -1.09819
 Alpha  occ. eigenvalues --   -1.02768  -1.01259  -0.94477  -0.89686  -0.85477
 Alpha  occ. eigenvalues --   -0.82462  -0.78525  -0.77434  -0.75166  -0.71927
 Alpha  occ. eigenvalues --   -0.69903  -0.69456  -0.67784  -0.64942  -0.63726
 Alpha  occ. eigenvalues --   -0.62277  -0.60380  -0.57588  -0.57045  -0.55068
 Alpha  occ. eigenvalues --   -0.54531  -0.50752  -0.50012  -0.48713  -0.48104
 Alpha  occ. eigenvalues --   -0.47425  -0.46160  -0.46038  -0.43723  -0.41701
 Alpha  occ. eigenvalues --   -0.40050  -0.33989
 Alpha virt. eigenvalues --    0.07271   0.11762   0.17323   0.21805   0.24086
 Alpha virt. eigenvalues --    0.25688   0.26951   0.28673   0.29061   0.29753
 Alpha virt. eigenvalues --    0.30585   0.31805   0.32005   0.32699   0.34074
 Alpha virt. eigenvalues --    0.34412   0.35763   0.37276   0.38625   0.40253
 Alpha virt. eigenvalues --    0.41272   0.42583   0.45134   0.46274   0.46604
 Alpha virt. eigenvalues --    0.47050   0.48890   0.53823   0.57832   0.59525
 Alpha virt. eigenvalues --    0.63762   0.69591   0.70164   0.72839   0.74314
 Alpha virt. eigenvalues --    0.74839   0.75868   0.76701   0.78505   0.79554
 Alpha virt. eigenvalues --    0.81307   0.84787   0.85769   0.86201   0.88586
 Alpha virt. eigenvalues --    0.89766   0.90609   0.92352   0.92958   0.94428
 Alpha virt. eigenvalues --    0.95470   0.97985   0.99642   1.01921   1.02442
 Alpha virt. eigenvalues --    1.03037   1.05640   1.06582   1.07672   1.09254
 Alpha virt. eigenvalues --    1.10139   1.10681   1.11877   1.12343   1.14005
 Alpha virt. eigenvalues --    1.14572   1.15024   1.15443   1.16815   1.18783
 Alpha virt. eigenvalues --    1.19504   1.21175   1.22158   1.23734   1.24440
 Alpha virt. eigenvalues --    1.24736   1.26336   1.26897   1.27443   1.29442
 Alpha virt. eigenvalues --    1.30194   1.33601   1.34966   1.36693   1.41067
 Alpha virt. eigenvalues --    1.42487   1.47833   1.48845   1.50806   1.54082
 Alpha virt. eigenvalues --    1.54976   1.57570   1.60286   1.63765   1.64735
 Alpha virt. eigenvalues --    1.67627   1.68632   1.73813   1.74384   1.76798
 Alpha virt. eigenvalues --    1.81829   1.84398   1.87476   1.90552   1.93373
 Alpha virt. eigenvalues --    1.95724   1.96980   1.99582   2.01152   2.02909
 Alpha virt. eigenvalues --    2.05093   2.05894   2.08333   2.09534   2.12399
 Alpha virt. eigenvalues --    2.12620   2.15403   2.17421   2.20134   2.21706
 Alpha virt. eigenvalues --    2.23209   2.24556   2.25418   2.28218   2.29851
 Alpha virt. eigenvalues --    2.31689   2.34324   2.35391   2.36980   2.38450
 Alpha virt. eigenvalues --    2.39882   2.41498   2.43986   2.45152   2.48360
 Alpha virt. eigenvalues --    2.51037   2.51979   2.53692   2.55881   2.61645
 Alpha virt. eigenvalues --    2.62588   2.65003   2.68099   2.70060   2.70775
 Alpha virt. eigenvalues --    2.72731   2.73287   2.77994   2.78558   2.83329
 Alpha virt. eigenvalues --    2.87827   2.88267   2.92858   2.93386   2.96251
 Alpha virt. eigenvalues --    2.99854   3.01193   3.03876   3.04962   3.07834
 Alpha virt. eigenvalues --    3.09269   3.14271   3.21756   3.24802   3.27214
 Alpha virt. eigenvalues --    3.31989   3.37222   3.37954   3.52177   3.64964
 Alpha virt. eigenvalues --    4.12796   4.27846   4.34315   4.38892   4.45724
 Alpha virt. eigenvalues --    4.55947   4.61588   4.62082   4.73602   4.79113
 Alpha virt. eigenvalues --    4.99046   5.00934   5.04478   5.11139
          Condensed to atoms (all electrons):
               1          2          3          4          5          6
     1  O    8.315308   0.307514  -0.082613  -0.085731   0.004520  -0.000017
     2  N    0.307514   5.723920   0.301274   0.263528  -0.052932   0.000947
     3  O   -0.082613   0.301274   8.352001  -0.092241   0.003798   0.000727
     4  C   -0.085731   0.263528  -0.092241   5.211375   0.564622  -0.050699
     5  C    0.004520  -0.052932   0.003798   0.564622   4.718141   0.319500
     6  N   -0.000017   0.000947   0.000727  -0.050699   0.319500   7.178978
     7  C    0.000004  -0.000144   0.000000   0.003064  -0.031877   0.172790
     8  H   -0.000000   0.000003  -0.000000  -0.000183   0.002523  -0.050868
     9  C   -0.000000  -0.000003   0.000000   0.000942   0.001158  -0.060652
    10  C    0.000000   0.000000   0.000000  -0.000036  -0.000065   0.003645
    11  C   -0.000000  -0.000000  -0.000000  -0.000035   0.000028  -0.000202
    12  C   -0.000000   0.000003  -0.000000  -0.000077  -0.000153   0.004015
    13  C   -0.000027  -0.000056  -0.000004  -0.012959  -0.000505  -0.046177
    14  H   -0.000006  -0.000099   0.000000   0.002931   0.007436  -0.007371
    15  N    0.000290   0.002448  -0.000017  -0.061766  -0.007559   0.001691
    16  C    0.001526  -0.028451   0.002464   0.331473  -0.049338  -0.001907
    17  H    0.000208  -0.006884   0.016734  -0.023842   0.375155  -0.033653
    18  H    0.000001  -0.000052   0.000011   0.001889  -0.031731   0.338692
    19  H    0.000000  -0.000002   0.000000  -0.000967   0.000812  -0.000112
    20  H    0.000000  -0.000000   0.000000  -0.000090   0.000181  -0.000550
    21  H   -0.000000   0.000000   0.000000   0.000000   0.000001  -0.000072
    22  H   -0.000000   0.000000  -0.000000   0.000000  -0.000004  -0.000119
    23  H    0.000000  -0.000000   0.000000   0.000040   0.000000  -0.000030
    24  H    0.000000   0.000000   0.000000   0.000000  -0.000000   0.000005
    25  H    0.000000  -0.000000   0.000000   0.000025  -0.000000  -0.000092
    26  H    0.000000  -0.000000   0.000000   0.000007  -0.000003  -0.000052
    27  H    0.005598  -0.000882   0.000004  -0.061603   0.002382   0.000026
               7          8          9         10         11         12
     1  O    0.000004  -0.000000  -0.000000   0.000000  -0.000000  -0.000000
     2  N   -0.000144   0.000003  -0.000003   0.000000  -0.000000   0.000003
     3  O    0.000000  -0.000000   0.000000   0.000000  -0.000000  -0.000000
     4  C    0.003064  -0.000183   0.000942  -0.000036  -0.000035  -0.000077
     5  C   -0.031877   0.002523   0.001158  -0.000065   0.000028  -0.000153
     6  N    0.172790  -0.050868  -0.060652   0.003645  -0.000202   0.004015
     7  C    5.020187   0.418789   0.347429  -0.054863  -0.008846  -0.060862
     8  H    0.418789   0.541606  -0.055642   0.000857  -0.000388  -0.002269
     9  C    0.347429  -0.055642   5.158108   0.324146  -0.050130  -0.005307
    10  C   -0.054863   0.000857   0.324146   5.121086   0.336675  -0.060910
    11  C   -0.008846  -0.000388  -0.050130   0.336675   5.119567   0.336256
    12  C   -0.060862  -0.002269  -0.005307  -0.060910   0.336256   5.118269
    13  C    0.342796  -0.038902  -0.059719  -0.000289  -0.050887   0.370859
    14  H   -0.046989  -0.000609   0.004439  -0.000400   0.004164  -0.036070
    15  N   -0.058447   0.004023  -0.015020   0.001642  -0.013038  -0.081561
    16  C   -0.001678   0.000002  -0.001433  -0.000016   0.000040   0.002735
    17  H    0.001742  -0.000056  -0.000070   0.000001   0.000000   0.000000
    18  H   -0.022353  -0.004782   0.001650  -0.000090   0.000003  -0.000122
    19  H   -0.036703   0.004415   0.390104  -0.032180  -0.002260   0.000697
    20  H   -0.041586  -0.002015   0.399551  -0.035497   0.003926  -0.000407
    21  H    0.004598  -0.000074  -0.036302   0.402544  -0.034909   0.004339
    22  H   -0.004839   0.003585  -0.046852   0.397641  -0.045557  -0.001023
    23  H    0.000564   0.000038  -0.001939  -0.038991   0.399218  -0.037846
    24  H   -0.000129  -0.000103   0.004361  -0.038351   0.402273  -0.038771
    25  H    0.005108  -0.000019  -0.000434   0.004186  -0.033410   0.398263
    26  H   -0.004009   0.001734   0.000955  -0.002215  -0.041385   0.396763
    27  H   -0.000397   0.000009  -0.000060   0.000007   0.000011  -0.000037
              13         14         15         16         17         18
     1  O   -0.000027  -0.000006   0.000290   0.001526   0.000208   0.000001
     2  N   -0.000056  -0.000099   0.002448  -0.028451  -0.006884  -0.000052
     3  O   -0.000004   0.000000  -0.000017   0.002464   0.016734   0.000011
     4  C   -0.012959   0.002931  -0.061766   0.331473  -0.023842   0.001889
     5  C   -0.000505   0.007436  -0.007559  -0.049338   0.375155  -0.031731
     6  N   -0.046177  -0.007371   0.001691  -0.001907  -0.033653   0.338692
     7  C    0.342796  -0.046989  -0.058447  -0.001678   0.001742  -0.022353
     8  H   -0.038902  -0.000609   0.004023   0.000002  -0.000056  -0.004782
     9  C   -0.059719   0.004439  -0.015020  -0.001433  -0.000070   0.001650
    10  C   -0.000289  -0.000400   0.001642  -0.000016   0.000001  -0.000090
    11  C   -0.050887   0.004164  -0.013038   0.000040   0.000000   0.000003
    12  C    0.370859  -0.036070  -0.081561   0.002735   0.000000  -0.000122
    13  C    5.043486   0.401265   0.245638  -0.071548   0.000026   0.002804
    14  H    0.401265   0.530709  -0.037603  -0.004852   0.000117  -0.000111
    15  N    0.245638  -0.037603   6.958984   0.583121  -0.000099  -0.000119
    16  C   -0.071548  -0.004852   0.583121   4.710085   0.001938  -0.000177
    17  H    0.000026   0.000117  -0.000099   0.001938   0.377472  -0.003043
    18  H    0.002804  -0.000111  -0.000119  -0.000177  -0.003043   0.315035
    19  H   -0.007598   0.000112   0.007880   0.002909   0.000012  -0.000144
    20  H    0.004279  -0.000066   0.000134  -0.000032   0.000004   0.000546
    21  H   -0.000424   0.000010  -0.000037   0.000003  -0.000000   0.000002
    22  H    0.000051  -0.000056   0.000017  -0.000002   0.000000   0.000000
    23  H   -0.007452   0.000001   0.008449   0.000096   0.000000   0.000000
    24  H    0.004706  -0.000056   0.000140   0.000007   0.000000  -0.000000
    25  H   -0.035522  -0.002802   0.000259  -0.000015  -0.000000   0.000002
    26  H   -0.047314  -0.001053   0.004866  -0.000072   0.000000   0.000000
    27  H    0.005079  -0.000183  -0.040200   0.402534  -0.000078   0.000001
              19         20         21         22         23         24
     1  O    0.000000   0.000000  -0.000000  -0.000000   0.000000   0.000000
     2  N   -0.000002  -0.000000   0.000000   0.000000  -0.000000   0.000000
     3  O    0.000000   0.000000   0.000000  -0.000000   0.000000   0.000000
     4  C   -0.000967  -0.000090   0.000000   0.000000   0.000040   0.000000
     5  C    0.000812   0.000181   0.000001  -0.000004   0.000000  -0.000000
     6  N   -0.000112  -0.000550  -0.000072  -0.000119  -0.000030   0.000005
     7  C   -0.036703  -0.041586   0.004598  -0.004839   0.000564  -0.000129
     8  H    0.004415  -0.002015  -0.000074   0.003585   0.000038  -0.000103
     9  C    0.390104   0.399551  -0.036302  -0.046852  -0.001939   0.004361
    10  C   -0.032180  -0.035497   0.402544   0.397641  -0.038991  -0.038351
    11  C   -0.002260   0.003926  -0.034909  -0.045557   0.399218   0.402273
    12  C    0.000697  -0.000407   0.004339  -0.001023  -0.037846  -0.038771
    13  C   -0.007598   0.004279  -0.000424   0.000051  -0.007452   0.004706
    14  H    0.000112  -0.000066   0.000010  -0.000056   0.000001  -0.000056
    15  N    0.007880   0.000134  -0.000037   0.000017   0.008449   0.000140
    16  C    0.002909  -0.000032   0.000003  -0.000002   0.000096   0.000007
    17  H    0.000012   0.000004  -0.000000   0.000000   0.000000   0.000000
    18  H   -0.000144   0.000546   0.000002   0.000000   0.000000  -0.000000
    19  H    0.504536  -0.024396  -0.002775   0.003950   0.001510  -0.000066
    20  H   -0.024396   0.538631  -0.002654  -0.002996  -0.000047  -0.000082
    21  H   -0.002775  -0.002654   0.523921  -0.027410  -0.002912  -0.002234
    22  H    0.003950  -0.002996  -0.027410   0.571838   0.004145  -0.003665
    23  H    0.001510  -0.000047  -0.002912   0.004145   0.499146  -0.025471
    24  H   -0.000066  -0.000082  -0.002234  -0.003665  -0.025471   0.538282
    25  H   -0.000027   0.000012  -0.000087  -0.000080  -0.002334  -0.002267
    26  H    0.000019  -0.000030  -0.000082   0.002378   0.004062  -0.003053
    27  H    0.000078   0.000000  -0.000000   0.000000  -0.000034  -0.000000
              25         26         27
     1  O    0.000000   0.000000   0.005598
     2  N   -0.000000  -0.000000  -0.000882
     3  O    0.000000   0.000000   0.000004
     4  C    0.000025   0.000007  -0.061603
     5  C   -0.000000  -0.000003   0.002382
     6  N   -0.000092  -0.000052   0.000026
     7  C    0.005108  -0.004009  -0.000397
     8  H   -0.000019   0.001734   0.000009
     9  C   -0.000434   0.000955  -0.000060
    10  C    0.004186  -0.002215   0.000007
    11  C   -0.033410  -0.041385   0.000011
    12  C    0.398263   0.396763  -0.000037
    13  C   -0.035522  -0.047314   0.005079
    14  H   -0.002802  -0.001053  -0.000183
    15  N    0.000259   0.004866  -0.040200
    16  C   -0.000015  -0.000072   0.402534
    17  H   -0.000000   0.000000  -0.000078
    18  H    0.000002   0.000000   0.000001
    19  H   -0.000027   0.000019   0.000078
    20  H    0.000012  -0.000030   0.000000
    21  H   -0.000087  -0.000082  -0.000000
    22  H   -0.000080   0.002378   0.000000
    23  H   -0.002334   0.004062  -0.000034
    24  H   -0.002267  -0.003053  -0.000000
    25  H    0.506399  -0.024149  -0.000011
    26  H   -0.024149   0.562123   0.000001
    27  H   -0.000011   0.000001   0.441084
 Mulliken charges:
               1
     1  O   -0.466576
     2  N    0.489869
     3  O   -0.502141
     4  C    0.010334
     5  C    0.173909
     6  N   -0.768442
     7  C    0.056651
     8  H    0.178326
     9  C   -0.299279
    10  C   -0.328525
    11  C   -0.321114
    12  C   -0.306784
    13  C   -0.041607
    14  H    0.187141
    15  N   -0.504118
    16  C    0.120588
    17  H    0.294317
    18  H    0.402086
    19  H    0.190196
    20  H    0.163183
    21  H    0.174554
    22  H    0.148995
    23  H    0.199787
    24  H    0.164472
    25  H    0.186994
    26  H    0.150509
    27  H    0.246673
 Sum of Mulliken charges =  -0.00000
 Mulliken charges with hydrogens summed into heavy atoms:
               1
     1  O   -0.466576
     2  N    0.489869
     3  O   -0.502141
     4  C    0.010334
     5  C    0.468226
     6  N   -0.366357
     7  C    0.234977
     9  C    0.054101
    10  C   -0.004976
    11  C    0.043144
    12  C    0.030719
    13  C    0.145534
    15  N   -0.504118
    16  C    0.367261
 Electronic spatial extent (au):  <R**2>=           3002.8024
 Charge=              0.0000 electrons
 Dipole moment (field-independent basis, Debye):
    X=              5.3461    Y=              4.7029    Z=              1.3872  Tot=              7.2541
 Quadrupole moment (field-independent basis, Debye-Ang):
   XX=           -105.9448   YY=            -79.7271   ZZ=            -81.1761
   XY=             -1.9596   XZ=              0.2550   YZ=              2.4600
 Traceless Quadrupole moment (field-independent basis, Debye-Ang):
   XX=            -16.9954   YY=              9.2222   ZZ=              7.7732
   XY=             -1.9596   XZ=              0.2550   YZ=              2.4600
 Octapole moment (field-independent basis, Debye-Ang**2):
  XXX=             91.2799  YYY=             35.3312  ZZZ=             -0.8793  XYY=             -4.1104
  XXY=             10.3100  XXZ=              2.5394  XZZ=            -10.3747  YZZ=             -0.1431
  YYZ=              9.1544  XYZ=             -0.5393
 Hexadecapole moment (field-independent basis, Debye-Ang**3):
 XXXX=          -3379.1036 YYYY=           -603.7825 ZZZZ=           -302.7137 XXXY=            -28.2273
 XXXZ=              8.2850 YYYX=            -14.0773 YYYZ=             27.3274 ZZZX=             12.8949
 ZZZY=              8.3853 XXYY=           -627.8401 XXZZ=           -522.3778 YYZZ=           -155.4136
 XXYZ=             -3.3935 YYXZ=              5.2716 ZZXY=              3.5701
 N-N= 9.315444068395D+02 E-N=-3.409793490599D+03  KE= 6.596291723005D+02
 Unable to Open any file for archive entry.
 1\1\GINC-LOTUS\FOpt\RMP2-FC\6-31G(d)\C9H13N3O2\ALEXEY\02-Jul-2023\0\\#
 MP2/6-31G* SCF=Tight Opt=(ModRedun, MaxCycle=20 ) NoSymm\\MolName:\\0,
 1\O,-3.4938496229,-1.414947914,-0.3138389393\N,-3.1196714952,-0.249690
 0135,-0.076875483\O,-3.901690796,0.6986205659,0.1274997963\C,-1.686480
 213,-0.0160883094,-0.0309816429\C,-1.3038053577,1.2529230862,0.3132228
 426\N,-0.0605385318,1.766817779,0.3118871848\C,1.2003943073,1.03012977
 76,0.3201665858\H,1.8380868767,1.5616320906,1.0431853748\C,1.933117458
 6,1.0286725556,-1.0196124363\C,3.3260661019,0.4201087193,-0.8200339439
 \C,3.2612549631,-0.9708315461,-0.1834366827\C,2.4378204364,-0.96941845
 26,1.1066119237\C,1.0357325187,-0.4125225887,0.8365161089\H,0.43800541
 83,-0.3809160725,1.7620505352\N,0.405733036,-1.307859329,-0.129743736\
 C,-0.8352940747,-1.1146406295,-0.445879887\H,-2.0979986178,1.964391380
 5,0.5229490803\H,-0.0019585057,2.7279164325,0.6281776936\H,1.353842603
 5,0.4479703289,-1.7450843407\H,2.0093976366,2.0537920508,-1.4024510475
 \H,3.8513425287,0.372731495,-1.7807868437\H,3.9136385174,1.0900446859,
 -0.1761980099\H,2.7976111822,-1.6721244812,-0.8841363179\H,4.275388418
 4,-1.3350705076,0.0192753359\H,2.3409021475,-1.9881737081,1.4962936641
 \H,2.9331412074,-0.3677292215,1.8811950961\H,-1.2911981441,-1.85474817
 42,-1.1029719112\\Version=ES64L-G16RevC.02\HF=-661.2990067\MP2=-663.33
 39091\RMSD=5.059e-09\RMSF=1.194e-03\Dipole=1.9445637,1.653907,0.497856
 6\PG=C01 [X(C9H13N3O2)]\\@
 The archive entry for this job was punched.


 We find comfort among those who agree with us -- growth among those who don't.
 -- Frank A. Clark
 Job cpu time:       0 days  1 hours  6 minutes 57.2 seconds.
 Elapsed time:       0 days  0 hours 20 minutes 11.4 seconds.
 File lengths (MBytes):  RWF=     36 Int=      0 D2E=      0 Chk=      7 Scr=      1
 Normal termination of Gaussian 16 at Sun Jul  2 06:30:36 2023.
