 Entering Gaussian System, Link 0=g16
 Initial command:
 /home/alexey/programs//g16/l1.exe "/home/alexey/tmp/Gau-1450936.inp" -scrdir="/home/alexey/tmp/"
 Entering Link 1 = /home/alexey/programs//g16/l1.exe PID=   1450938.
  
 Copyright (c) 1988-2021, Gaussian, Inc.  All Rights Reserved.
  
 This is part of the Gaussian(R) 16 program.  It is based on
 the Gaussian(R) 09 system (copyright 2009, Gaussian, Inc.),
 the Gaussian(R) 03 system (copyright 2003, Gaussian, Inc.),
 the Gaussian(R) 98 system (copyright 1998, Gaussian, Inc.),
 the Gaussian(R) 94 system (copyright 1995, Gaussian, Inc.),
 the Gaussian 92(TM) system (copyright 1992, Gaussian, Inc.),
 the Gaussian 90(TM) system (copyright 1990, Gaussian, Inc.),
 the Gaussian 88(TM) system (copyright 1988, Gaussian, Inc.),
 the Gaussian 86(TM) system (copyright 1986, Carnegie Mellon
 University), and the Gaussian 82(TM) system (copyright 1983,
 Carnegie Mellon University). Gaussian is a federally registered
 trademark of Gaussian, Inc.
  
 This software contains proprietary and confidential information,
 including trade secrets, belonging to Gaussian, Inc.
  
 This software is provided under written license and may be
 used, copied, transmitted, or stored only in accord with that
 written license.
  
 The following legend is applicable only to US Government
 contracts under FAR:
  
                    RESTRICTED RIGHTS LEGEND
  
 Use, reproduction and disclosure by the US Government is
 subject to restrictions as set forth in subparagraphs (a)
 and (c) of the Commercial Computer Software - Restricted
 Rights clause in FAR 52.227-19.
  
 Gaussian, Inc.
 340 Quinnipiac St., Bldg. 40, Wallingford CT 06492
  
  
 ---------------------------------------------------------------
 Warning -- This program may not be used in any manner that
 competes with the business of Gaussian, Inc. or will provide
 assistance to any competitor of Gaussian, Inc.  The licensee
 of this program is prohibited from giving any competitor of
 Gaussian, Inc. access to this program.  By using this program,
 the user acknowledges that Gaussian, Inc. is engaged in the
 business of creating and licensing software in the field of
 computational chemistry and represents and warrants to the
 licensee that it is not a competitor of Gaussian, Inc. and that
 it will not use this program in any manner prohibited above.
 ---------------------------------------------------------------
  

 Cite this work as:
 Gaussian 16, Revision C.02,
 M. J. Frisch, G. W. Trucks, H. B. Schlegel, G. E. Scuseria, 
 M. A. Robb, J. R. Cheeseman, G. Scalmani, V. Barone, 
 G. A. Petersson, H. Nakatsuji, X. Li, M. Caricato, A. V. Marenich, 
 J. Bloino, B. G. Janesko, R. Gomperts, B. Mennucci, H. P. Hratchian, 
 J. V. Ortiz, A. F. Izmaylov, J. L. Sonnenberg, D. Williams-Young, 
 F. Ding, F. Lipparini, F. Egidi, J. Goings, B. Peng, A. Petrone, 
 T. Henderson, D. Ranasinghe, V. G. Zakrzewski, J. Gao, N. Rega, 
 G. Zheng, W. Liang, M. Hada, M. Ehara, K. Toyota, R. Fukuda, 
 J. Hasegawa, M. Ishida, T. Nakajima, Y. Honda, O. Kitao, H. Nakai, 
 T. Vreven, K. Throssell, J. A. Montgomery, Jr., J. E. Peralta, 
 F. Ogliaro, M. J. Bearpark, J. J. Heyd, E. N. Brothers, K. N. Kudin, 
 V. N. Staroverov, T. A. Keith, R. Kobayashi, J. Normand, 
 K. Raghavachari, A. P. Rendell, J. C. Burant, S. S. Iyengar, 
 J. Tomasi, M. Cossi, J. M. Millam, M. Klene, C. Adamo, R. Cammi, 
 J. W. Ochterski, R. L. Martin, K. Morokuma, O. Farkas, 
 J. B. Foresman, and D. J. Fox, Gaussian, Inc., Wallingford CT, 2019.
 
 ******************************************
 Gaussian 16:  ES64L-G16RevC.02  7-Dec-2021
                 2-Jul-2023 
 ******************************************
 %mem=8GB
 %NPROCS=4
 Will use up to    4 processors via shared memory.
 %NoSave
 ---------------------------------------------------------
 #MP2/6-31G* SCF=Tight Opt=(ModRedun, MaxCycle=20 ) NoSymm
 ---------------------------------------------------------
 1/6=20,18=120,19=15,38=1/1,3;
 2/9=110,12=2,15=1,17=6,18=5,40=1/2;
 3/5=1,6=6,7=1,11=9,25=1,30=1,71=1/1,2,3;
 4//1;
 5/5=2,32=2,38=5/2;
 8/6=4,10=2/1;
 9/15=2,16=-3/6;
 10/5=1,31=1/2;
 6/7=2,8=2,9=2,10=2/1;
 7/12=2,30=1/1,2,3,16;
 1/6=20,18=20,19=15/3(2);
 2/9=110,15=1/2;
 99//99;
 2/9=110,15=1/2;
 3/5=1,6=6,7=1,11=9,25=1,30=1,71=1/1,2,3;
 4/5=5,16=3,69=1/1;
 5/5=2,32=2,38=5/2;
 8/6=4,10=2/1;
 9/15=2,16=-3/6;
 10/5=1,31=1/2;
 7/12=2,30=1/1,2,3,16;
 1/6=20,18=20,19=15/3(-8);
 2/9=110,15=1/2;
 6/7=2,8=2,9=2,10=2/1;
 99/9=10/99;
 --------
 MolName:
 --------
 Symbolic Z-matrix:
 Charge =  0 Multiplicity = 1
 8                    0    -3.61961  -1.44419  -0.18744 
 7                    0    -3.25842  -0.2796   -0.02703 
 8                    0    -4.03747   0.66164   0.12783 
 6                    0    -1.75763   0.00629  -0.04157 
 6                    0    -1.36923   1.31436   0.27019 
 7                    0    -0.08128   1.76747   0.39349 
 6                    0     1.19801   0.99532   0.36256 
 1                    0     1.8621    1.49209   1.1168 
 6                    0     1.96197   1.04839  -0.98405 
 6                    0     3.37387   0.46122  -0.79602 
 6                    0     3.31166  -0.95565  -0.20386 
 6                    0     2.46375  -0.99103   1.08596 
 6                    0     1.02695  -0.45432   0.84047 
 1                    0     0.47827  -0.4945    1.81062 
 7                    0     0.37035  -1.32223  -0.13979 
 6                    0    -0.87111  -1.11977  -0.43721 
 1                    0    -2.15687   2.05528   0.48578 
 1                    0     0.15149   2.75052   0.23318 
 1                    0     1.41208   0.47319  -1.75904 
 1                    0     2.04847   2.09893  -1.33411 
 1                    0     3.90827   0.43861  -1.77095 
 1                    0     3.9514    1.11377  -0.10371 
 1                    0     2.86397  -1.64361  -0.95622 
 1                    0     4.33956  -1.32021   0.0123 
 1                    0     2.40505  -2.03791   1.45655 
 1                    0     2.95832  -0.38136   1.87094 
 1                    0    -1.37292  -1.86968  -1.06767 
 
 The following ModRedundant input section has been read:
 D       4       5       6       7 F                                           
 D       1       2       4      16 F                                           
 D       7      13      15      16 F                                           
 D       7       9      10      11 F                                           
 D       9      10      11      12 F                                           
 D       6       7      13      15 F                                           
 

 GradGradGradGradGradGradGradGradGradGradGradGradGradGradGradGradGradGrad
 Berny optimization.
 Initialization pass.
                           ----------------------------
                           !    Initial Parameters    !
                           ! (Angstroms and Degrees)  !
 --------------------------                            --------------------------
 ! Name  Definition              Value          Derivative Info.                !
 --------------------------------------------------------------------------------
 ! R1    R(1,2)                  1.2298         estimate D2E/DX2                !
 ! R2    R(2,3)                  1.2316         estimate D2E/DX2                !
 ! R3    R(2,4)                  1.5278         estimate D2E/DX2                !
 ! R4    R(4,5)                  1.3997         estimate D2E/DX2                !
 ! R5    R(4,16)                 1.4868         estimate D2E/DX2                !
 ! R6    R(5,6)                  1.3709         estimate D2E/DX2                !
 ! R7    R(5,17)                 1.1026         estimate D2E/DX2                !
 ! R8    R(6,7)                  1.4946         estimate D2E/DX2                !
 ! R9    R(6,18)                 1.0229         estimate D2E/DX2                !
 ! R10   R(7,8)                  1.121          estimate D2E/DX2                !
 ! R11   R(7,9)                  1.5491         estimate D2E/DX2                !
 ! R12   R(7,13)                 1.5359         estimate D2E/DX2                !
 ! R13   R(9,10)                 1.5406         estimate D2E/DX2                !
 ! R14   R(9,19)                 1.1108         estimate D2E/DX2                !
 ! R15   R(9,20)                 1.1107         estimate D2E/DX2                !
 ! R16   R(10,11)                1.5369         estimate D2E/DX2                !
 ! R17   R(10,21)                1.112          estimate D2E/DX2                !
 ! R18   R(10,22)                1.1129         estimate D2E/DX2                !
 ! R19   R(11,12)                1.544          estimate D2E/DX2                !
 ! R20   R(11,23)                1.1134         estimate D2E/DX2                !
 ! R21   R(11,24)                1.1118         estimate D2E/DX2                !
 ! R22   R(12,13)                1.5533         estimate D2E/DX2                !
 ! R23   R(12,25)                1.1121         estimate D2E/DX2                !
 ! R24   R(12,26)                1.1102         estimate D2E/DX2                !
 ! R25   R(13,14)                1.1153         estimate D2E/DX2                !
 ! R26   R(13,15)                1.4647         estimate D2E/DX2                !
 ! R27   R(15,16)                1.2925         estimate D2E/DX2                !
 ! R28   R(16,27)                1.1008         estimate D2E/DX2                !
 ! A1    A(1,2,3)              123.6647         estimate D2E/DX2                !
 ! A2    A(1,2,4)              117.6743         estimate D2E/DX2                !
 ! A3    A(3,2,4)              118.6555         estimate D2E/DX2                !
 ! A4    A(2,4,5)              116.4446         estimate D2E/DX2                !
 ! A5    A(2,4,16)             116.521          estimate D2E/DX2                !
 ! A6    A(5,4,16)             126.9868         estimate D2E/DX2                !
 ! A7    A(4,5,6)              126.1307         estimate D2E/DX2                !
 ! A8    A(4,5,17)             118.2489         estimate D2E/DX2                !
 ! A9    A(6,5,17)             115.558          estimate D2E/DX2                !
 ! A10   A(5,6,7)              129.1646         estimate D2E/DX2                !
 ! A11   A(5,6,18)             121.1551         estimate D2E/DX2                !
 ! A12   A(7,6,18)             107.3671         estimate D2E/DX2                !
 ! A13   A(6,7,8)              105.3195         estimate D2E/DX2                !
 ! A14   A(6,7,9)              114.9867         estimate D2E/DX2                !
 ! A15   A(6,7,13)             112.6958         estimate D2E/DX2                !
 ! A16   A(8,7,9)              106.1131         estimate D2E/DX2                !
 ! A17   A(8,7,13)             105.9544         estimate D2E/DX2                !
 ! A18   A(9,7,13)             110.9608         estimate D2E/DX2                !
 ! A19   A(7,9,10)             109.4386         estimate D2E/DX2                !
 ! A20   A(7,9,19)             110.158          estimate D2E/DX2                !
 ! A21   A(7,9,20)             110.1681         estimate D2E/DX2                !
 ! A22   A(10,9,19)            109.9666         estimate D2E/DX2                !
 ! A23   A(10,9,20)            109.1214         estimate D2E/DX2                !
 ! A24   A(19,9,20)            107.9655         estimate D2E/DX2                !
 ! A25   A(9,10,11)            111.1791         estimate D2E/DX2                !
 ! A26   A(9,10,21)            109.9474         estimate D2E/DX2                !
 ! A27   A(9,10,22)            109.1483         estimate D2E/DX2                !
 ! A28   A(11,10,21)           109.7859         estimate D2E/DX2                !
 ! A29   A(11,10,22)           108.7759         estimate D2E/DX2                !
 ! A30   A(21,10,22)           107.9334         estimate D2E/DX2                !
 ! A31   A(10,11,12)           111.4217         estimate D2E/DX2                !
 ! A32   A(10,11,23)           108.9984         estimate D2E/DX2                !
 ! A33   A(10,11,24)           109.8626         estimate D2E/DX2                !
 ! A34   A(12,11,23)           109.239          estimate D2E/DX2                !
 ! A35   A(12,11,24)           109.742          estimate D2E/DX2                !
 ! A36   A(23,11,24)           107.4874         estimate D2E/DX2                !
 ! A37   A(11,12,13)           111.5949         estimate D2E/DX2                !
 ! A38   A(11,12,25)           109.2047         estimate D2E/DX2                !
 ! A39   A(11,12,26)           109.4784         estimate D2E/DX2                !
 ! A40   A(13,12,25)           109.2149         estimate D2E/DX2                !
 ! A41   A(13,12,26)           109.5163         estimate D2E/DX2                !
 ! A42   A(25,12,26)           107.7494         estimate D2E/DX2                !
 ! A43   A(7,13,12)            105.7996         estimate D2E/DX2                !
 ! A44   A(7,13,14)            111.0667         estimate D2E/DX2                !
 ! A45   A(7,13,15)            113.6374         estimate D2E/DX2                !
 ! A46   A(12,13,14)           107.7667         estimate D2E/DX2                !
 ! A47   A(12,13,15)           108.4027         estimate D2E/DX2                !
 ! A48   A(14,13,15)           109.8941         estimate D2E/DX2                !
 ! A49   A(13,15,16)           119.4559         estimate D2E/DX2                !
 ! A50   A(4,16,15)            129.0584         estimate D2E/DX2                !
 ! A51   A(4,16,27)            113.3641         estimate D2E/DX2                !
 ! A52   A(15,16,27)           117.5771         estimate D2E/DX2                !
 ! D1    D(1,2,4,5)           -174.0737         estimate D2E/DX2                !
 ! D2    D(1,2,4,16)             8.2587         Frozen                          !
 ! D3    D(3,2,4,5)              6.7478         estimate D2E/DX2                !
 ! D4    D(3,2,4,16)          -170.9199         estimate D2E/DX2                !
 ! D5    D(2,4,5,6)            175.859          estimate D2E/DX2                !
 ! D6    D(2,4,5,17)            -1.1319         estimate D2E/DX2                !
 ! D7    D(16,4,5,6)            -6.7539         estimate D2E/DX2                !
 ! D8    D(16,4,5,17)          176.2552         estimate D2E/DX2                !
 ! D9    D(2,4,16,15)         -155.1783         estimate D2E/DX2                !
 ! D10   D(2,4,16,27)           24.5891         estimate D2E/DX2                !
 ! D11   D(5,4,16,15)           27.4363         estimate D2E/DX2                !
 ! D12   D(5,4,16,27)         -152.7963         estimate D2E/DX2                !
 ! D13   D(4,5,6,7)             -6.4193         Frozen                          !
 ! D14   D(4,5,6,18)           154.0239         estimate D2E/DX2                !
 ! D15   D(17,5,6,7)           170.6425         estimate D2E/DX2                !
 ! D16   D(17,5,6,18)          -28.9143         estimate D2E/DX2                !
 ! D17   D(5,6,7,8)           -142.934          estimate D2E/DX2                !
 ! D18   D(5,6,7,9)            100.6341         estimate D2E/DX2                !
 ! D19   D(5,6,7,13)           -27.8792         estimate D2E/DX2                !
 ! D20   D(18,6,7,8)            54.5323         estimate D2E/DX2                !
 ! D21   D(18,6,7,9)           -61.8996         estimate D2E/DX2                !
 ! D22   D(18,6,7,13)          169.5871         estimate D2E/DX2                !
 ! D23   D(6,7,9,10)           168.719          estimate D2E/DX2                !
 ! D24   D(6,7,9,19)           -70.2638         estimate D2E/DX2                !
 ! D25   D(6,7,9,20)            48.7399         estimate D2E/DX2                !
 ! D26   D(8,7,9,10)            52.7409         estimate D2E/DX2                !
 ! D27   D(8,7,9,19)           173.7581         estimate D2E/DX2                !
 ! D28   D(8,7,9,20)           -67.2383         estimate D2E/DX2                !
 ! D29   D(13,7,9,10)          -61.9077         estimate D2E/DX2                !
 ! D30   D(13,7,9,19)           59.1095         estimate D2E/DX2                !
 ! D31   D(13,7,9,20)          178.1131         estimate D2E/DX2                !
 ! D32   D(6,7,13,12)         -166.163          estimate D2E/DX2                !
 ! D33   D(6,7,13,14)          -49.4941         estimate D2E/DX2                !
 ! D34   D(6,7,13,15)           75.0222         Frozen                          !
 ! D35   D(8,7,13,12)          -51.4916         estimate D2E/DX2                !
 ! D36   D(8,7,13,14)           65.1773         estimate D2E/DX2                !
 ! D37   D(8,7,13,15)         -170.3065         estimate D2E/DX2                !
 ! D38   D(9,7,13,12)           63.2561         estimate D2E/DX2                !
 ! D39   D(9,7,13,14)          179.925          estimate D2E/DX2                !
 ! D40   D(9,7,13,15)          -55.5587         estimate D2E/DX2                !
 ! D41   D(7,9,10,11)           54.8124         Frozen                          !
 ! D42   D(7,9,10,21)          176.6029         estimate D2E/DX2                !
 ! D43   D(7,9,10,22)          -65.1831         estimate D2E/DX2                !
 ! D44   D(19,9,10,11)         -66.3208         estimate D2E/DX2                !
 ! D45   D(19,9,10,21)          55.4698         estimate D2E/DX2                !
 ! D46   D(19,9,10,22)         173.6837         estimate D2E/DX2                !
 ! D47   D(20,9,10,11)         175.431          estimate D2E/DX2                !
 ! D48   D(20,9,10,21)         -62.7785         estimate D2E/DX2                !
 ! D49   D(20,9,10,22)          55.4355         estimate D2E/DX2                !
 ! D50   D(9,10,11,12)         -52.8224         Frozen                          !
 ! D51   D(9,10,11,23)          67.8036         estimate D2E/DX2                !
 ! D52   D(9,10,11,24)        -174.6615         estimate D2E/DX2                !
 ! D53   D(21,10,11,12)       -174.7069         estimate D2E/DX2                !
 ! D54   D(21,10,11,23)        -54.0809         estimate D2E/DX2                !
 ! D55   D(21,10,11,24)         63.454          estimate D2E/DX2                !
 ! D56   D(22,10,11,12)         67.3938         estimate D2E/DX2                !
 ! D57   D(22,10,11,23)       -171.9802         estimate D2E/DX2                !
 ! D58   D(22,10,11,24)        -54.4453         estimate D2E/DX2                !
 ! D59   D(10,11,12,13)         56.6052         estimate D2E/DX2                !
 ! D60   D(10,11,12,25)        177.4484         estimate D2E/DX2                !
 ! D61   D(10,11,12,26)        -64.8013         estimate D2E/DX2                !
 ! D62   D(23,11,12,13)        -63.8796         estimate D2E/DX2                !
 ! D63   D(23,11,12,25)         56.9637         estimate D2E/DX2                !
 ! D64   D(23,11,12,26)        174.7139         estimate D2E/DX2                !
 ! D65   D(24,11,12,13)        178.5141         estimate D2E/DX2                !
 ! D66   D(24,11,12,25)        -60.6426         estimate D2E/DX2                !
 ! D67   D(24,11,12,26)         57.1076         estimate D2E/DX2                !
 ! D68   D(11,12,13,7)         -60.3255         estimate D2E/DX2                !
 ! D69   D(11,12,13,14)       -179.2034         estimate D2E/DX2                !
 ! D70   D(11,12,13,15)         61.9026         estimate D2E/DX2                !
 ! D71   D(25,12,13,7)         178.8371         estimate D2E/DX2                !
 ! D72   D(25,12,13,14)         59.9592         estimate D2E/DX2                !
 ! D73   D(25,12,13,15)        -58.9347         estimate D2E/DX2                !
 ! D74   D(26,12,13,7)          61.059          estimate D2E/DX2                !
 ! D75   D(26,12,13,14)        -57.8189         estimate D2E/DX2                !
 ! D76   D(26,12,13,15)       -176.7129         estimate D2E/DX2                !
 ! D77   D(7,13,15,16)         -67.1597         Frozen                          !
 ! D78   D(12,13,15,16)        175.5279         estimate D2E/DX2                !
 ! D79   D(14,13,15,16)         57.986          estimate D2E/DX2                !
 ! D80   D(13,15,16,4)           8.0587         estimate D2E/DX2                !
 ! D81   D(13,15,16,27)       -171.7004         estimate D2E/DX2                !
 --------------------------------------------------------------------------------
 Trust Radius=3.00D-01 FncErr=1.00D-07 GrdErr=1.00D-07 EigMax=2.50D+02 EigMin=1.00D-04
 Number of steps in this run=     20 maximum allowed number of steps=    162.
 GradGradGradGradGradGradGradGradGradGradGradGradGradGradGradGradGradGrad

                          Input orientation:                          
 ---------------------------------------------------------------------
 Center     Atomic      Atomic             Coordinates (Angstroms)
 Number     Number       Type             X           Y           Z
 ---------------------------------------------------------------------
      1          8           0       -3.619610   -1.444190   -0.187440
      2          7           0       -3.258420   -0.279600   -0.027030
      3          8           0       -4.037470    0.661640    0.127830
      4          6           0       -1.757630    0.006290   -0.041570
      5          6           0       -1.369230    1.314360    0.270190
      6          7           0       -0.081280    1.767470    0.393490
      7          6           0        1.198010    0.995320    0.362560
      8          1           0        1.862100    1.492090    1.116800
      9          6           0        1.961970    1.048390   -0.984050
     10          6           0        3.373870    0.461220   -0.796020
     11          6           0        3.311660   -0.955650   -0.203860
     12          6           0        2.463750   -0.991030    1.085960
     13          6           0        1.026950   -0.454320    0.840470
     14          1           0        0.478270   -0.494500    1.810620
     15          7           0        0.370350   -1.322230   -0.139790
     16          6           0       -0.871110   -1.119770   -0.437210
     17          1           0       -2.156870    2.055280    0.485780
     18          1           0        0.151490    2.750520    0.233180
     19          1           0        1.412080    0.473190   -1.759040
     20          1           0        2.048470    2.098930   -1.334110
     21          1           0        3.908270    0.438610   -1.770950
     22          1           0        3.951400    1.113770   -0.103710
     23          1           0        2.863970   -1.643610   -0.956220
     24          1           0        4.339560   -1.320210    0.012300
     25          1           0        2.405050   -2.037910    1.456550
     26          1           0        2.958320   -0.381360    1.870940
     27          1           0       -1.372920   -1.869680   -1.067670
 ---------------------------------------------------------------------
                    Distance matrix (angstroms):
                    1          2          3          4          5
     1  O    0.000000
     2  N    1.229821   0.000000
     3  O    2.169913   1.231598   0.000000
     4  C    2.364771   1.527847   2.378203   0.000000
     5  C    3.589322   2.489596   2.750603   1.399677   0.000000
     6  N    4.813732   3.802835   4.116415   2.470057   1.370885
     7  C    5.427999   4.651556   5.251351   3.142819   2.588637
     8  H    6.353891   5.537776   6.039258   4.080670   3.345120
     9  C    6.164542   5.471007   6.113848   3.976137   3.569419
    10  C    7.273907   6.717695   7.471387   5.206577   4.935752
    11  C    6.948485   6.607137   7.532288   5.162303   5.223830
    12  C    6.231707   5.872658   6.776075   4.481743   4.546651
    13  C    4.860757   4.375783   5.234651   2.957033   3.032347
    14  H    4.656906   4.169651   4.955840   2.946294   3.009677
    15  N    3.992108   3.777269   4.841099   2.510560   3.185252
    16  C    2.778828   2.563861   3.676755   1.486762   2.583317
    17  H    3.852158   2.632119   2.367914   2.153103   1.102641
    18  H    5.656298   4.569116   4.682083   3.354255   2.092012
    19  H    5.609294   5.037869   5.770042   3.635211   3.544154
    20  H    6.782012   5.960616   6.421973   4.531688   3.856164
    21  H    7.919685   7.410704   8.172508   5.939704   5.725836
    22  H    7.991894   7.343627   8.005003   5.815789   5.337522
    23  H    6.532044   6.340944   7.356576   4.991787   5.307886
    24  H    7.962641   7.669010   8.609048   6.240050   6.292674
    25  H    6.273096   6.112901   7.110494   4.873502   5.185591
    26  H    6.973930   6.500808   7.284735   5.103739   4.915847
    27  H    2.450196   2.677013   3.864793   2.172590   3.453693
                    6          7          8          9         10
     6  N    0.000000
     7  C    1.494575   0.000000
     8  H    2.091826   1.121015   0.000000
     9  C    2.567014   1.549132   2.149515   0.000000
    10  C    3.880629   2.522288   2.647078   1.540645   0.000000
    11  C    4.391384   2.931660   3.136367   2.539003   1.536894
    12  C    3.816545   2.463938   2.555155   2.948891   2.545427
    13  C    2.522760   1.535941   2.135965   2.541903   3.004055
    14  H    2.727244   2.198742   2.518514   3.520235   4.011542
    15  N    3.167744   2.511656   3.424140   2.977561   3.554218
    16  C    3.106453   3.065044   4.087444   3.609196   4.544021
    17  H    2.097481   3.520500   4.107005   4.487658   5.896874
    18  H    1.022873   2.047601   2.300134   2.767080   4.084591
    19  H    2.922100   2.195366   3.084012   1.110785   2.185445
    20  H    2.762300   2.195433   2.531788   1.110702   2.174470
    21  H    4.729395   3.493895   3.692659   2.186121   1.112018
    22  H    4.115463   2.795102   2.449070   2.176489   1.112949
    23  H    4.704432   3.388002   3.890215   2.839233   2.171629
    24  H    5.405821   3.918379   3.907270   3.500845   2.181612
    25  H    4.668281   3.442999   3.587635   3.959558   3.501190
    26  H    4.004934   2.696136   2.297877   3.344827   2.827596
    27  H    4.127006   4.106515   5.151579   4.432112   5.295177
                   11         12         13         14         15
    11  C    0.000000
    12  C    1.543969   0.000000
    13  C    2.561612   1.553292   0.000000
    14  H    3.506977   2.171130   1.115283   0.000000
    15  N    2.964758   2.448363   1.464685   2.121528   0.000000
    16  C    4.192488   3.668503   2.382839   2.695279   1.292545
    17  H    6.280615   5.566898   4.069473   3.898787   4.264476
    18  H    4.890130   4.480288   3.377311   3.622880   4.095644
    19  H    2.840523   3.368082   2.786764   3.814564   2.632623
    20  H    3.493361   3.946777   3.505907   4.368150   3.993347
    21  H    2.180751   3.506058   3.989843   5.046111   4.275292
    22  H    2.168363   2.838767   3.450042   4.279465   4.331203
    23  H    1.113445   2.180948   2.831457   3.829807   2.643479
    24  H    1.111849   2.186268   3.522643   4.338815   3.972123
    25  H    2.179493   1.112088   2.187801   2.493985   2.683375
    26  H    2.181617   1.110176   2.190293   2.483362   3.409672
    27  H    4.850454   4.486667   3.376924   3.688167   2.049306
                   16         17         18         19         20
    16  C    0.000000
    17  H    3.547680   0.000000
    18  H    4.058852   2.423983   0.000000
    19  H    3.081836   4.503291   3.277844   0.000000
    20  H    4.437162   4.582444   2.545486   1.796827   0.000000
    21  H    5.200950   6.670261   4.845086   2.496458   2.531076
    22  H    5.325085   6.208454   4.151116   3.098162   2.470945
    23  H    3.807178   6.400780   5.299113   2.689488   3.848954
    24  H    5.233863   7.336329   5.844618   3.863168   4.330408
    25  H    3.893910   6.205458   5.431780   4.199004   5.002837
    26  H    4.531814   5.832757   4.513228   4.037062   4.153554
    27  H    1.100753   4.293378   5.036098   3.704492   5.246596
                   21         22         23         24         25
    21  H    0.000000
    22  H    1.799275   0.000000
    23  H    2.467790   3.084221   0.000000
    24  H    2.541543   2.467465   1.794431   0.000000
    25  H    4.337001   3.841705   2.487476   2.518587   0.000000
    26  H    3.852028   2.668495   3.097581   2.498761   1.794989
    27  H    5.806356   6.178881   4.244380   5.839579   4.546762
                   26         27
    26  H    0.000000
    27  H    5.441522   0.000000
 Symmetry turned off by external request.
 Stoichiometry    C9H13N3O2
 Framework group  C1[X(C9H13N3O2)]
 Deg. of freedom    75
 Full point group                 C1      NOp   1
 Rotational constants (GHZ):           1.6753657           0.4000498           0.3550705
 Standard basis: 6-31G(d) (6D, 7F)
   236 basis functions,   444 primitive gaussians,   236 cartesian basis functions
    52 alpha electrons       52 beta electrons
       nuclear repulsion energy       917.3993358801 Hartrees.
 NAtoms=   27 NActive=   27 NUniq=   27 SFac= 1.00D+00 NAtFMM=   60 NAOKFM=F Big=F
 Integral buffers will be    131072 words long.
 Raffenetti 1 integral format.
 Two-electron integral symmetry is turned off.
 One-electron integrals computed using PRISM.
 NBasis=   236 RedAO= T EigKep=  1.27D-03  NBF=   236
 NBsUse=   236 1.00D-06 EigRej= -1.00D+00 NBFU=   236
 ExpMin= 1.61D-01 ExpMax= 5.48D+03 ExpMxC= 8.25D+02 IAcc=3 IRadAn=         5 AccDes= 0.00D+00
 Harris functional with IExCor=  205 and IRadAn=       5 diagonalized for initial guess.
 HarFok:  IExCor=  205 AccDes= 0.00D+00 IRadAn=         5 IDoV= 1 UseB2=F ITyADJ=14
 ICtDFT=  3500011 ScaDFX=  1.000000  1.000000  1.000000  1.000000
 FoFCou: FMM=F IPFlag=           0 FMFlag=      100000 FMFlg1=           0
         NFxFlg=           0 DoJE=T BraDBF=F KetDBF=T FulRan=T
         wScrn=  0.000000 ICntrl=       500 IOpCl=  0 I1Cent=   200000004 NGrid=           0
         NMat0=    1 NMatS0=      1 NMatT0=    0 NMatD0=    1 NMtDS0=    0 NMtDT0=    0
 Symmetry not used in FoFCou.
 Keep R1 ints in memory in canonical form, NReq=397720213.
 Requested convergence on RMS density matrix=1.00D-08 within 128 cycles.
 Requested convergence on MAX density matrix=1.00D-06.
 Requested convergence on             energy=1.00D-06.
 No special actions if energy rises.
 SCF Done:  E(RHF) =  -661.281171088     A.U. after   16 cycles
            NFock= 16  Conv=0.79D-08     -V/T= 2.0037
 ExpMin= 1.61D-01 ExpMax= 5.48D+03 ExpMxC= 8.25D+02 IAcc=3 IRadAn=         5 AccDes= 0.00D+00
 HarFok:  IExCor=  205 AccDes= 0.00D+00 IRadAn=         5 IDoV=-2 UseB2=F ITyADJ=14
 ICtDFT= 12500011 ScaDFX=  1.000000  1.000000  1.000000  1.000000
 Range of M.O.s used for correlation:    15   236
 NBasis=   236 NAE=    52 NBE=    52 NFC=    14 NFV=     0
 NROrb=    222 NOA=    38 NOB=    38 NVA=   184 NVB=   184
 Fully direct method using O(ONN) memory.
 JobTyp=1 Pass  1:  I=  15 to  52 NPSUse=  4 ParTrn=T ParDer=T DoDerP=T.
 Spin components of T(2) and E(2):
     alpha-alpha T2 =       0.9197475782D-01 E2=     -0.2717635207D+00
     alpha-beta  T2 =       0.4996673452D+00 E2=     -0.1493737671D+01
     beta-beta   T2 =       0.9197475782D-01 E2=     -0.2717635207D+00
 ANorm=    0.1297542624D+01
 E2 =    -0.2037264712D+01 EUMP2 =    -0.66331843580006D+03
          IDoAtm=111111111111111111111111111
          Differentiating once with respect to electric field.
                with respect to dipole field.
          Differentiating once with respect to nuclear coordinates.
 Keep R1 ints in memory in canonical form, NReq=397723379.
          There are     1 degrees of freedom in the 1st order CPHF.  IDoFFX=0 NUNeed=     1.
 LinEq1:  Iter=  0 NonCon=     1 RMS=4.61D-03 Max=1.12D-01 NDo=     1
 AX will form     1 AO Fock derivatives at one time.
 LinEq1:  Iter=  1 NonCon=     1 RMS=1.57D-03 Max=2.93D-02 NDo=     1
 LinEq1:  Iter=  2 NonCon=     1 RMS=6.41D-04 Max=1.80D-02 NDo=     1
 LinEq1:  Iter=  3 NonCon=     1 RMS=2.94D-04 Max=9.11D-03 NDo=     1
 LinEq1:  Iter=  4 NonCon=     1 RMS=9.03D-05 Max=2.10D-03 NDo=     1
 LinEq1:  Iter=  5 NonCon=     1 RMS=3.75D-05 Max=1.88D-03 NDo=     1
 LinEq1:  Iter=  6 NonCon=     1 RMS=1.54D-05 Max=5.83D-04 NDo=     1
 LinEq1:  Iter=  7 NonCon=     1 RMS=5.92D-06 Max=1.01D-04 NDo=     1
 LinEq1:  Iter=  8 NonCon=     1 RMS=2.36D-06 Max=5.98D-05 NDo=     1
 LinEq1:  Iter=  9 NonCon=     1 RMS=8.80D-07 Max=2.52D-05 NDo=     1
 LinEq1:  Iter= 10 NonCon=     1 RMS=4.32D-07 Max=1.50D-05 NDo=     1
 LinEq1:  Iter= 11 NonCon=     1 RMS=1.54D-07 Max=5.73D-06 NDo=     1
 LinEq1:  Iter= 12 NonCon=     1 RMS=5.40D-08 Max=7.65D-07 NDo=     1
 LinEq1:  Iter= 13 NonCon=     1 RMS=1.70D-08 Max=3.31D-07 NDo=     1
 LinEq1:  Iter= 14 NonCon=     1 RMS=5.38D-09 Max=1.41D-07 NDo=     1
 LinEq1:  Iter= 15 NonCon=     1 RMS=1.99D-09 Max=4.75D-08 NDo=     1
 LinEq1:  Iter= 16 NonCon=     1 RMS=7.52D-10 Max=1.30D-08 NDo=     1
 LinEq1:  Iter= 17 NonCon=     1 RMS=2.52D-10 Max=3.75D-09 NDo=     1
 LinEq1:  Iter= 18 NonCon=     1 RMS=8.72D-11 Max=1.05D-09 NDo=     1
 LinEq1:  Iter= 19 NonCon=     0 RMS=2.92D-11 Max=3.85D-10 NDo=     1
 Linear equations converged to 1.000D-10 1.000D-09 after    19 iterations.
 End of Minotr F.D. properties file   721 does not exist.
 End of Minotr F.D. properties file   722 does not exist.
 End of Minotr F.D. properties file   788 does not exist.

 **********************************************************************

            Population analysis using the SCF Density.

 **********************************************************************

 Alpha  occ. eigenvalues --  -20.59828 -20.59392 -15.85281 -15.63377 -15.56819
 Alpha  occ. eigenvalues --  -11.35880 -11.30468 -11.30087 -11.30079 -11.27687
 Alpha  occ. eigenvalues --  -11.24634 -11.23883 -11.23400 -11.22854  -1.58484
 Alpha  occ. eigenvalues --   -1.37985  -1.28603  -1.22725  -1.13280  -1.08374
 Alpha  occ. eigenvalues --   -1.01812  -1.00677  -0.93598  -0.88964  -0.84938
 Alpha  occ. eigenvalues --   -0.81541  -0.78022  -0.76966  -0.74326  -0.71128
 Alpha  occ. eigenvalues --   -0.70327  -0.69779  -0.67399  -0.64362  -0.63261
 Alpha  occ. eigenvalues --   -0.61656  -0.60348  -0.57425  -0.56482  -0.54886
 Alpha  occ. eigenvalues --   -0.53621  -0.50725  -0.49384  -0.48483  -0.47796
 Alpha  occ. eigenvalues --   -0.47688  -0.46154  -0.45692  -0.44010  -0.42096
 Alpha  occ. eigenvalues --   -0.39932  -0.33772
 Alpha virt. eigenvalues --    0.07376   0.11787   0.18131   0.21387   0.23414
 Alpha virt. eigenvalues --    0.24258   0.26298   0.27812   0.28556   0.28871
 Alpha virt. eigenvalues --    0.29921   0.31087   0.31846   0.32280   0.33337
 Alpha virt. eigenvalues --    0.33788   0.34240   0.35468   0.37582   0.38582
 Alpha virt. eigenvalues --    0.40616   0.41719   0.44412   0.45258   0.45647
 Alpha virt. eigenvalues --    0.46103   0.49720   0.53181   0.57575   0.58990
 Alpha virt. eigenvalues --    0.63298   0.69128   0.69219   0.72207   0.74024
 Alpha virt. eigenvalues --    0.74919   0.75687   0.75856   0.77795   0.79243
 Alpha virt. eigenvalues --    0.80543   0.83629   0.84985   0.85362   0.87972
 Alpha virt. eigenvalues --    0.89071   0.90186   0.90766   0.91853   0.93903
 Alpha virt. eigenvalues --    0.95158   0.97204   0.98876   1.00391   1.01958
 Alpha virt. eigenvalues --    1.02757   1.05086   1.06494   1.07008   1.08681
 Alpha virt. eigenvalues --    1.09585   1.10467   1.11356   1.11975   1.13252
 Alpha virt. eigenvalues --    1.13835   1.14160   1.15427   1.16353   1.17248
 Alpha virt. eigenvalues --    1.17986   1.20003   1.21251   1.22341   1.22987
 Alpha virt. eigenvalues --    1.23716   1.24276   1.25618   1.27044   1.27528
 Alpha virt. eigenvalues --    1.29398   1.31257   1.33040   1.36066   1.39676
 Alpha virt. eigenvalues --    1.42854   1.46250   1.47254   1.49399   1.52718
 Alpha virt. eigenvalues --    1.54782   1.55450   1.60394   1.61475   1.65979
 Alpha virt. eigenvalues --    1.68593   1.70315   1.72787   1.73430   1.76942
 Alpha virt. eigenvalues --    1.77740   1.80035   1.84365   1.89155   1.92558
 Alpha virt. eigenvalues --    1.93702   1.96108   1.97509   1.99033   2.00878
 Alpha virt. eigenvalues --    2.02949   2.03780   2.05981   2.08884   2.11898
 Alpha virt. eigenvalues --    2.12919   2.13649   2.17730   2.18858   2.19433
 Alpha virt. eigenvalues --    2.20715   2.22065   2.24085   2.25124   2.26346
 Alpha virt. eigenvalues --    2.29227   2.32237   2.33380   2.35543   2.35987
 Alpha virt. eigenvalues --    2.38609   2.39852   2.41644   2.43228   2.46362
 Alpha virt. eigenvalues --    2.48670   2.50384   2.50702   2.56758   2.57198
 Alpha virt. eigenvalues --    2.60740   2.62888   2.65916   2.68544   2.68833
 Alpha virt. eigenvalues --    2.69677   2.70131   2.74690   2.77101   2.80952
 Alpha virt. eigenvalues --    2.84707   2.86755   2.89978   2.91363   2.95211
 Alpha virt. eigenvalues --    2.97586   2.98430   3.02202   3.03633   3.05685
 Alpha virt. eigenvalues --    3.07046   3.12780   3.19160   3.22719   3.27192
 Alpha virt. eigenvalues --    3.30783   3.33796   3.37266   3.43375   3.59903
 Alpha virt. eigenvalues --    4.10023   4.23284   4.32040   4.36392   4.43158
 Alpha virt. eigenvalues --    4.52629   4.59636   4.60183   4.70832   4.77608
 Alpha virt. eigenvalues --    4.96434   4.99235   5.02844   5.09924
          Condensed to atoms (all electrons):
               1          2          3          4          5          6
     1  O    8.299833   0.313181  -0.089704  -0.079221   0.003516  -0.000013
     2  N    0.313181   5.682333   0.309120   0.265544  -0.046252   0.000846
     3  O   -0.089704   0.309120   8.331018  -0.087517   0.008010   0.000464
     4  C   -0.079221   0.265544  -0.087517   5.245489   0.567179  -0.047895
     5  C    0.003516  -0.046252   0.008010   0.567179   4.671252   0.307690
     6  N   -0.000013   0.000846   0.000464  -0.047895   0.307690   7.188465
     7  C    0.000003  -0.000093   0.000002   0.004218  -0.029230   0.198589
     8  H   -0.000000   0.000002  -0.000000  -0.000186   0.002343  -0.049784
     9  C   -0.000000  -0.000003   0.000000   0.000479   0.001613  -0.056287
    10  C   -0.000000   0.000000  -0.000000  -0.000019  -0.000061   0.003337
    11  C   -0.000000  -0.000000  -0.000000  -0.000014   0.000015  -0.000154
    12  C   -0.000000   0.000002  -0.000000  -0.000107  -0.000129   0.003604
    13  C   -0.000019  -0.000024  -0.000002  -0.010382   0.000455  -0.044581
    14  H   -0.000003  -0.000055   0.000000   0.002940   0.004744  -0.005564
    15  N    0.000185   0.001638  -0.000013  -0.061378  -0.003677   0.001859
    16  C    0.003402  -0.026704   0.001950   0.318135  -0.041279  -0.001198
    17  H    0.000127  -0.004140   0.012020  -0.026959   0.377146  -0.033849
    18  H    0.000000  -0.000035   0.000008   0.000972  -0.024453   0.328448
    19  H    0.000000   0.000000   0.000000  -0.000781   0.000683   0.000612
    20  H    0.000000  -0.000000   0.000000  -0.000027   0.000029  -0.001669
    21  H   -0.000000  -0.000000   0.000000   0.000000   0.000001  -0.000059
    22  H   -0.000000   0.000000  -0.000000  -0.000000  -0.000002  -0.000097
    23  H    0.000000  -0.000000   0.000000   0.000025  -0.000000  -0.000024
    24  H    0.000000   0.000000   0.000000   0.000000  -0.000000   0.000004
    25  H    0.000000  -0.000000   0.000000   0.000019  -0.000001  -0.000071
    26  H    0.000000  -0.000000   0.000000   0.000006  -0.000001  -0.000067
    27  H    0.005367  -0.000253   0.000003  -0.066252   0.002134   0.000042
               7          8          9         10         11         12
     1  O    0.000003  -0.000000  -0.000000  -0.000000  -0.000000  -0.000000
     2  N   -0.000093   0.000002  -0.000003   0.000000  -0.000000   0.000002
     3  O    0.000002  -0.000000   0.000000  -0.000000  -0.000000  -0.000000
     4  C    0.004218  -0.000186   0.000479  -0.000019  -0.000014  -0.000107
     5  C   -0.029230   0.002343   0.001613  -0.000061   0.000015  -0.000129
     6  N    0.198589  -0.049784  -0.056287   0.003337  -0.000154   0.003604
     7  C    5.004886   0.416592   0.340847  -0.049337  -0.007720  -0.064191
     8  H    0.416592   0.547091  -0.060445   0.001450  -0.000326  -0.002852
     9  C    0.340847  -0.060445   5.181050   0.317969  -0.053064  -0.006190
    10  C   -0.049337   0.001450   0.317969   5.126770   0.332747  -0.060175
    11  C   -0.007720  -0.000326  -0.053064   0.332747   5.124018   0.330634
    12  C   -0.064191  -0.002852  -0.006190  -0.060175   0.330634   5.137112
    13  C    0.331819  -0.040245  -0.050617  -0.001692  -0.047886   0.368304
    14  H   -0.040277  -0.000943   0.003864  -0.000391   0.003956  -0.040748
    15  N   -0.058278   0.004040  -0.012858   0.001454  -0.007737  -0.074225
    16  C   -0.002287   0.000019  -0.000874  -0.000027   0.000003   0.002487
    17  H    0.001423  -0.000019  -0.000065   0.000001   0.000000   0.000001
    18  H   -0.028543  -0.002723   0.000844  -0.000120   0.000011  -0.000137
    19  H   -0.035008   0.004091   0.386040  -0.032581  -0.002258   0.000626
    20  H   -0.041673  -0.001850   0.397231  -0.037354   0.004138  -0.000362
    21  H    0.004045  -0.000080  -0.035834   0.400138  -0.035837   0.004212
    22  H   -0.004229   0.003510  -0.045689   0.395970  -0.045622  -0.001227
    23  H    0.000431   0.000033  -0.002004  -0.040091   0.396694  -0.036618
    24  H   -0.000141  -0.000099   0.004396  -0.038482   0.400300  -0.037870
    25  H    0.004986  -0.000005  -0.000370   0.004097  -0.033911   0.395412
    26  H   -0.004452   0.001598   0.001044  -0.002404  -0.042322   0.394673
    27  H   -0.000402   0.000009  -0.000059   0.000005   0.000005  -0.000019
              13         14         15         16         17         18
     1  O   -0.000019  -0.000003   0.000185   0.003402   0.000127   0.000000
     2  N   -0.000024  -0.000055   0.001638  -0.026704  -0.004140  -0.000035
     3  O   -0.000002   0.000000  -0.000013   0.001950   0.012020   0.000008
     4  C   -0.010382   0.002940  -0.061378   0.318135  -0.026959   0.000972
     5  C    0.000455   0.004744  -0.003677  -0.041279   0.377146  -0.024453
     6  N   -0.044581  -0.005564   0.001859  -0.001198  -0.033849   0.328448
     7  C    0.331819  -0.040277  -0.058278  -0.002287   0.001423  -0.028543
     8  H   -0.040245  -0.000943   0.004040   0.000019  -0.000019  -0.002723
     9  C   -0.050617   0.003864  -0.012858  -0.000874  -0.000065   0.000844
    10  C   -0.001692  -0.000391   0.001454  -0.000027   0.000001  -0.000120
    11  C   -0.047886   0.003956  -0.007737   0.000003   0.000000   0.000011
    12  C    0.368304  -0.040748  -0.074225   0.002487   0.000001  -0.000137
    13  C    5.023708   0.402481   0.240034  -0.069674  -0.000042   0.003697
    14  H    0.402481   0.519168  -0.035805  -0.004848   0.000062   0.000009
    15  N    0.240034  -0.035805   6.936962   0.587745  -0.000058  -0.000119
    16  C   -0.069674  -0.004848   0.587745   4.699472   0.001653  -0.000212
    17  H   -0.000042   0.000062  -0.000058   0.001653   0.385850  -0.001897
    18  H    0.003697   0.000009  -0.000119  -0.000212  -0.001897   0.324623
    19  H   -0.006255   0.000065   0.006946   0.002526   0.000011  -0.000128
    20  H    0.003866  -0.000049   0.000079  -0.000031  -0.000001   0.002844
    21  H   -0.000378   0.000009  -0.000030   0.000002  -0.000000  -0.000000
    22  H    0.000319  -0.000044   0.000003  -0.000001   0.000000   0.000002
    23  H   -0.005871   0.000008   0.006775   0.000064   0.000000   0.000000
    24  H    0.004143  -0.000058   0.000043   0.000005   0.000000  -0.000000
    25  H   -0.034454  -0.002658   0.000782  -0.000061  -0.000000   0.000002
    26  H   -0.044832  -0.000903   0.004190  -0.000054   0.000000  -0.000001
    27  H    0.004878  -0.000173  -0.039830   0.402450  -0.000059   0.000002
              19         20         21         22         23         24
     1  O    0.000000   0.000000  -0.000000  -0.000000   0.000000   0.000000
     2  N    0.000000  -0.000000  -0.000000   0.000000  -0.000000   0.000000
     3  O    0.000000   0.000000   0.000000  -0.000000   0.000000   0.000000
     4  C   -0.000781  -0.000027   0.000000  -0.000000   0.000025   0.000000
     5  C    0.000683   0.000029   0.000001  -0.000002  -0.000000  -0.000000
     6  N    0.000612  -0.001669  -0.000059  -0.000097  -0.000024   0.000004
     7  C   -0.035008  -0.041673   0.004045  -0.004229   0.000431  -0.000141
     8  H    0.004091  -0.001850  -0.000080   0.003510   0.000033  -0.000099
     9  C    0.386040   0.397231  -0.035834  -0.045689  -0.002004   0.004396
    10  C   -0.032581  -0.037354   0.400138   0.395970  -0.040091  -0.038482
    11  C   -0.002258   0.004138  -0.035837  -0.045622   0.396694   0.400300
    12  C    0.000626  -0.000362   0.004212  -0.001227  -0.036618  -0.037870
    13  C   -0.006255   0.003866  -0.000378   0.000319  -0.005871   0.004143
    14  H    0.000065  -0.000049   0.000009  -0.000044   0.000008  -0.000058
    15  N    0.006946   0.000079  -0.000030   0.000003   0.006775   0.000043
    16  C    0.002526  -0.000031   0.000002  -0.000001   0.000064   0.000005
    17  H    0.000011  -0.000001  -0.000000   0.000000   0.000000   0.000000
    18  H   -0.000128   0.002844  -0.000000   0.000002   0.000000  -0.000000
    19  H    0.506754  -0.024013  -0.002592   0.003756   0.001641  -0.000070
    20  H   -0.024013   0.550072  -0.002617  -0.002965  -0.000049  -0.000090
    21  H   -0.002592  -0.002617   0.526051  -0.024692  -0.002813  -0.002060
    22  H    0.003756  -0.002965  -0.024692   0.568867   0.004061  -0.003596
    23  H    0.001641  -0.000049  -0.002813   0.004061   0.509583  -0.024988
    24  H   -0.000070  -0.000090  -0.002060  -0.003596  -0.024988   0.541024
    25  H   -0.000027   0.000011  -0.000086  -0.000082  -0.002091  -0.002381
    26  H    0.000023  -0.000035  -0.000074   0.002464   0.003821  -0.002766
    27  H    0.000076   0.000000  -0.000000   0.000000  -0.000022  -0.000000
              25         26         27
     1  O    0.000000   0.000000   0.005367
     2  N   -0.000000  -0.000000  -0.000253
     3  O    0.000000   0.000000   0.000003
     4  C    0.000019   0.000006  -0.066252
     5  C   -0.000001  -0.000001   0.002134
     6  N   -0.000071  -0.000067   0.000042
     7  C    0.004986  -0.004452  -0.000402
     8  H   -0.000005   0.001598   0.000009
     9  C   -0.000370   0.001044  -0.000059
    10  C    0.004097  -0.002404   0.000005
    11  C   -0.033911  -0.042322   0.000005
    12  C    0.395412   0.394673  -0.000019
    13  C   -0.034454  -0.044832   0.004878
    14  H   -0.002658  -0.000903  -0.000173
    15  N    0.000782   0.004190  -0.039830
    16  C   -0.000061  -0.000054   0.402450
    17  H   -0.000000   0.000000  -0.000059
    18  H    0.000002  -0.000001   0.000002
    19  H   -0.000027   0.000023   0.000076
    20  H    0.000011  -0.000035   0.000000
    21  H   -0.000086  -0.000074  -0.000000
    22  H   -0.000082   0.002464   0.000000
    23  H   -0.002091   0.003821  -0.000022
    24  H   -0.002381  -0.002766  -0.000000
    25  H    0.510320  -0.023100  -0.000010
    26  H   -0.023100   0.561060   0.000001
    27  H   -0.000010   0.000001   0.452123
 Mulliken charges:
               1
     1  O   -0.456654
     2  N    0.504896
     3  O   -0.485359
     4  C   -0.024266
     5  C    0.198277
     6  N   -0.792646
     7  C    0.058023
     8  H    0.178778
     9  C   -0.311019
    10  C   -0.321202
    11  C   -0.315669
    12  C   -0.312217
    13  C   -0.026751
    14  H    0.195215
    15  N   -0.498730
    16  C    0.127338
    17  H    0.288797
    18  H    0.396904
    19  H    0.189864
    20  H    0.154517
    21  H    0.172694
    22  H    0.149294
    23  H    0.191435
    24  H    0.162685
    25  H    0.183678
    26  H    0.152132
    27  H    0.239986
 Sum of Mulliken charges =  -0.00000
 Mulliken charges with hydrogens summed into heavy atoms:
               1
     1  O   -0.456654
     2  N    0.504896
     3  O   -0.485359
     4  C   -0.024266
     5  C    0.487075
     6  N   -0.395742
     7  C    0.236801
     9  C    0.033362
    10  C    0.000786
    11  C    0.038452
    12  C    0.023592
    13  C    0.168464
    15  N   -0.498730
    16  C    0.367324
 Electronic spatial extent (au):  <R**2>=           3126.6971
 Charge=              0.0000 electrons
 Dipole moment (field-independent basis, Debye):
    X=              5.3660    Y=              4.5083    Z=              0.5134  Tot=              7.0273
 Quadrupole moment (field-independent basis, Debye-Ang):
   XX=           -105.4729   YY=            -80.2202   ZZ=            -82.2780
   XY=             -1.8453   XZ=              0.8859   YZ=              0.0683
 Traceless Quadrupole moment (field-independent basis, Debye-Ang):
   XX=            -16.1492   YY=              9.1035   ZZ=              7.0457
   XY=             -1.8453   XZ=              0.8859   YZ=              0.0683
 Octapole moment (field-independent basis, Debye-Ang**2):
  XXX=            101.5615  YYY=             36.7961  ZZZ=             -5.2165  XYY=             -1.4265
  XXY=             11.6994  XXZ=             -0.2106  XZZ=             -8.2360  YZZ=             -2.8742
  YYZ=              0.8792  XYZ=             -1.3679
 Hexadecapole moment (field-independent basis, Debye-Ang**3):
 XXXX=          -3561.8937 YYYY=           -619.6536 ZZZZ=           -299.0477 XXXY=            -40.7023
 XXXZ=             24.5743 YYYX=            -20.3448 YYYZ=             11.7361 ZZZX=             20.3557
 ZZZY=              8.7172 XXYY=           -657.0373 XXZZ=           -543.7300 YYZZ=           -164.5959
 XXYZ=              2.3412 YYXZ=              9.9515 ZZXY=              2.4893
 N-N= 9.173993358801D+02 E-N=-3.380808779993D+03  KE= 6.588551899884D+02
 Calling FoFJK, ICntrl=  10002127 FMM=F ISym2X=0 I1Cent= 0 IOpClX= 0 NMat=1 NMatS=1 NMatT=0.
 -------------------------------------------------------------------
 Center     Atomic                   Forces (Hartrees/Bohr)
 Number     Number              X              Y              Z
 -------------------------------------------------------------------
      1        8           0.002365906   -0.019242232   -0.003037116
      2        7           0.039327140    0.013757419   -0.001807439
      3        8          -0.005228676    0.015842877    0.003577321
      4        6          -0.003055236    0.008491506    0.009302977
      5        6           0.003258306   -0.016587485   -0.004697381
      6        7           0.014713707   -0.009861941   -0.006744220
      7        6          -0.004712832    0.005149142    0.002916695
      8        1          -0.010184774   -0.001697150   -0.007645378
      9        6          -0.003939680    0.000230949   -0.002122708
     10        6           0.002840369   -0.000890640    0.000968806
     11        6          -0.001031319   -0.004607687   -0.002397073
     12        6           0.000801238   -0.008777822   -0.002882535
     13        6           0.008874454   -0.001931057    0.004613906
     14        1           0.000916976    0.004446287   -0.009861414
     15        7           0.000183420    0.000698321    0.001685399
     16        6          -0.021064029    0.007674743    0.003332901
     17        1           0.007204672   -0.006070662   -0.006020464
     18        1          -0.017643168   -0.001725606    0.005942603
     19        1           0.003108184    0.005871839    0.007691124
     20        1          -0.003240012   -0.007357195    0.002607210
     21        1          -0.004346919    0.002403235    0.009627967
     22        1          -0.004001547   -0.003974214   -0.007396452
     23        1           0.003990587    0.006127302    0.009293760
     24        1          -0.009382418    0.002618757   -0.002117124
     25        1          -0.000785694    0.010598196   -0.002413599
     26        1          -0.004778444   -0.004800151   -0.004361855
     27        1           0.005809786    0.003613270    0.001944089
 -------------------------------------------------------------------
 Cartesian Forces:  Max     0.039327140 RMS     0.008375434

 GradGradGradGradGradGradGradGradGradGradGradGradGradGradGradGradGradGrad
 Berny optimization.
 FormGI is forming the generalized inverse of G from B-inverse, IUseBI=4.
 Internal  Forces:  Max     0.037768880 RMS     0.006893378
 Search for a local minimum.
 Step number   1 out of a maximum of   20
 All quantities printed in internal units (Hartrees-Bohrs-Radians)
 Mixed Optimization -- RFO/linear search
 Second derivative matrix not updated -- first step.
 ITU=  0
     Eigenvalues ---    0.00231   0.00771   0.01045   0.01158   0.01230
     Eigenvalues ---    0.01492   0.01537   0.01883   0.01990   0.02088
     Eigenvalues ---    0.02669   0.03625   0.04501   0.04677   0.04830
     Eigenvalues ---    0.05041   0.05138   0.05298   0.05867   0.06246
     Eigenvalues ---    0.07200   0.07699   0.07720   0.07847   0.07993
     Eigenvalues ---    0.08050   0.08054   0.10453   0.11736   0.12260
     Eigenvalues ---    0.13157   0.15199   0.15684   0.15989   0.16000
     Eigenvalues ---    0.19896   0.21963   0.23098   0.24978   0.25000
     Eigenvalues ---    0.25000   0.25368   0.26204   0.26645   0.27979
     Eigenvalues ---    0.28083   0.28452   0.29623   0.31461   0.31669
     Eigenvalues ---    0.32047   0.32238   0.32290   0.32380   0.32387
     Eigenvalues ---    0.32405   0.32517   0.32526   0.32581   0.33310
     Eigenvalues ---    0.33392   0.33599   0.35226   0.43883   0.44228
     Eigenvalues ---    0.49179   0.66945   0.90424   0.911611000.00000
     Eigenvalues --- 1000.000001000.000001000.000001000.000001000.00000
     Eigenvalues --- 1000.000001000.000001000.000001000.000001000.00000
     Eigenvalues --- 1000.000001000.000001000.000001000.000001000.00000
     Eigenvalues --- 1000.000001000.000001000.000001000.000001000.00000
     Eigenvalues --- 1000.000001000.000001000.000001000.000001000.00000
     Eigenvalues --- 1000.000001000.000001000.000001000.000001000.00000
     Eigenvalues --- 1000.000001000.000001000.000001000.000001000.00000
     Eigenvalues --- 1000.000001000.000001000.000001000.000001000.00000
     Eigenvalues --- 1000.000001000.000001000.000001000.000001000.00000
     Eigenvalues --- 1000.000001000.000001000.000001000.000001000.00000
     Eigenvalues --- 1000.000001000.000001000.000001000.000001000.00000
     Eigenvalues --- 1000.000001000.000001000.000001000.000001000.00000
     Eigenvalues --- 1000.000001000.000001000.000001000.000001000.00000
     Eigenvalues --- 1000.000001000.000001000.000001000.000001000.00000
     Eigenvalues --- 1000.000001000.000001000.000001000.000001000.00000
     Eigenvalues --- 1000.000001000.000001000.000001000.000001000.00000
     Eigenvalues --- 1000.000001000.000001000.000001000.000001000.00000
     Eigenvalues --- 1000.000001000.000001000.000001000.000001000.00000
     Eigenvalues --- 1000.00000
 RFO step:  Lambda=-2.37999329D-02 EMin= 2.30739828D-03
 Linear search not attempted -- first point.
 Iteration  1 RMS(Cart)=  0.05571515 RMS(Int)=  0.00107043
 Iteration  2 RMS(Cart)=  0.00117245 RMS(Int)=  0.00027801
 Iteration  3 RMS(Cart)=  0.00000069 RMS(Int)=  0.00027801
 Iteration  1 RMS(Cart)=  0.00003152 RMS(Int)=  0.00002848
 Iteration  2 RMS(Cart)=  0.00001891 RMS(Int)=  0.00003131
 Iteration  3 RMS(Cart)=  0.00001254 RMS(Int)=  0.00003536
 Iteration  4 RMS(Cart)=  0.00000899 RMS(Int)=  0.00003872
 Iteration  5 RMS(Cart)=  0.00000681 RMS(Int)=  0.00004134
 Iteration  6 RMS(Cart)=  0.00000537 RMS(Int)=  0.00004338
 Iteration  7 RMS(Cart)=  0.00000434 RMS(Int)=  0.00004500
 Iteration  8 RMS(Cart)=  0.00000357 RMS(Int)=  0.00004630
 Iteration  9 RMS(Cart)=  0.00000296 RMS(Int)=  0.00004737
 Iteration 10 RMS(Cart)=  0.00000248 RMS(Int)=  0.00004825
 Iteration 11 RMS(Cart)=  0.00000208 RMS(Int)=  0.00004898
 Iteration 12 RMS(Cart)=  0.00000175 RMS(Int)=  0.00004959
 Iteration 13 RMS(Cart)=  0.00000148 RMS(Int)=  0.00005010
 Iteration 14 RMS(Cart)=  0.00000124 RMS(Int)=  0.00005053
 Iteration 15 RMS(Cart)=  0.00000105 RMS(Int)=  0.00005090
 Iteration 16 RMS(Cart)=  0.00000089 RMS(Int)=  0.00005121
 Variable       Old X    -DE/DX   Delta X   Delta X   Delta X     New X
                                 (Linear)    (Quad)   (Total)
    R1        2.32402   0.01792   0.00000   0.01916   0.01916   2.34319
    R2        2.32738   0.01587   0.00000   0.01710   0.01710   2.34448
    R3        2.88721  -0.03777   0.00000  -0.11802  -0.11802   2.76920
    R4        2.64501  -0.03467   0.00000  -0.07499  -0.07473   2.57028
    R5        2.80957  -0.02191   0.00000  -0.06283  -0.06256   2.74701
    R6        2.59060  -0.02466   0.00000  -0.04785  -0.04777   2.54283
    R7        2.08369  -0.01040   0.00000  -0.02908  -0.02908   2.05461
    R8        2.82434  -0.01940   0.00000  -0.05392  -0.05405   2.77029
    R9        1.93295  -0.00660   0.00000  -0.01428  -0.01428   1.91867
   R10        2.11841  -0.01193   0.00000  -0.03525  -0.03525   2.08316
   R11        2.92744  -0.01298   0.00000  -0.04409  -0.04411   2.88332
   R12        2.90251  -0.00432   0.00000  -0.00845  -0.00847   2.89404
   R13        2.91140  -0.00462   0.00000  -0.01432  -0.01435   2.89705
   R14        2.09908  -0.00995   0.00000  -0.02850  -0.02850   2.07058
   R15        2.09892  -0.00803   0.00000  -0.02301  -0.02301   2.07591
   R16        2.90431  -0.00182   0.00000  -0.00718  -0.00723   2.89708
   R17        2.10141  -0.01058   0.00000  -0.03043  -0.03043   2.07098
   R18        2.10317  -0.00901   0.00000  -0.02598  -0.02598   2.07719
   R19        2.91768  -0.00909   0.00000  -0.02891  -0.02888   2.88879
   R20        2.10411  -0.01167   0.00000  -0.03371  -0.03371   2.07040
   R21        2.10109  -0.00994   0.00000  -0.02859  -0.02859   2.07250
   R22        2.93530  -0.01058   0.00000  -0.03640  -0.03638   2.89892
   R23        2.10154  -0.01074   0.00000  -0.03090  -0.03090   2.07065
   R24        2.09793  -0.00785   0.00000  -0.02245  -0.02245   2.07548
   R25        2.10758  -0.00919   0.00000  -0.02669  -0.02669   2.08089
   R26        2.76785  -0.00524   0.00000  -0.01065  -0.01100   2.75685
   R27        2.44256  -0.00562   0.00000  -0.00754  -0.00757   2.43499
   R28        2.08012  -0.00622   0.00000  -0.01730  -0.01730   2.06282
    A1        2.15836   0.01097   0.00000   0.04019   0.04004   2.19840
    A2        2.05380  -0.00760   0.00000  -0.02764  -0.02779   2.02602
    A3        2.07093  -0.00336   0.00000  -0.01215  -0.01229   2.05864
    A4        2.03234  -0.00757   0.00000  -0.02504  -0.02545   2.00689
    A5        2.03368  -0.00303   0.00000  -0.00839  -0.00882   2.02486
    A6        2.21634   0.01054   0.00000   0.03217   0.03253   2.24887
    A7        2.20140   0.00615   0.00000   0.01843   0.01873   2.22013
    A8        2.06383  -0.00330   0.00000  -0.00989  -0.01026   2.05357
    A9        2.01687  -0.00280   0.00000  -0.00714  -0.00752   2.00935
   A10        2.25435  -0.00562   0.00000  -0.01958  -0.01965   2.23470
   A11        2.11456  -0.01250   0.00000  -0.07027  -0.07089   2.04367
   A12        1.87391   0.01832   0.00000   0.10027   0.10041   1.97432
   A13        1.83817  -0.00167   0.00000  -0.01777  -0.01760   1.82058
   A14        2.00690  -0.00109   0.00000  -0.01311  -0.01320   1.99369
   A15        1.96691   0.00108   0.00000   0.00177   0.00140   1.96831
   A16        1.85202   0.00270   0.00000   0.02370   0.02358   1.87560
   A17        1.84925   0.00085   0.00000   0.01958   0.01933   1.86858
   A18        1.93663  -0.00155   0.00000  -0.00975  -0.00943   1.92720
   A19        1.91006   0.00015   0.00000  -0.00473  -0.00486   1.90520
   A20        1.92262  -0.00074   0.00000  -0.01307  -0.01305   1.90957
   A21        1.92280  -0.00166   0.00000  -0.00698  -0.00697   1.91582
   A22        1.91928  -0.00041   0.00000   0.00552   0.00549   1.92477
   A23        1.90453   0.00306   0.00000   0.02462   0.02461   1.92914
   A24        1.88435  -0.00038   0.00000  -0.00494  -0.00519   1.87917
   A25        1.94044  -0.00086   0.00000   0.00556   0.00547   1.94592
   A26        1.91894  -0.00071   0.00000  -0.00687  -0.00689   1.91205
   A27        1.90500   0.00030   0.00000  -0.00294  -0.00301   1.90199
   A28        1.91612   0.00078   0.00000   0.00709   0.00713   1.92325
   A29        1.89850   0.00172   0.00000   0.01120   0.01121   1.90971
   A30        1.88379  -0.00122   0.00000  -0.01452  -0.01460   1.86920
   A31        1.94467   0.00067   0.00000   0.00532   0.00540   1.95008
   A32        1.90238   0.00060   0.00000   0.00580   0.00578   1.90816
   A33        1.91746   0.00038   0.00000   0.00525   0.00522   1.92268
   A34        1.90658  -0.00115   0.00000  -0.01425  -0.01429   1.89230
   A35        1.91536  -0.00048   0.00000   0.00012   0.00004   1.91540
   A36        1.87601  -0.00006   0.00000  -0.00261  -0.00265   1.87336
   A37        1.94770  -0.00300   0.00000  -0.01846  -0.01847   1.92923
   A38        1.90598   0.00253   0.00000   0.01670   0.01655   1.92253
   A39        1.91076   0.00141   0.00000   0.01354   0.01350   1.92426
   A40        1.90616   0.00021   0.00000  -0.00291  -0.00277   1.90339
   A41        1.91142  -0.00021   0.00000  -0.00457  -0.00450   1.90692
   A42        1.88058  -0.00087   0.00000  -0.00380  -0.00398   1.87660
   A43        1.84655   0.00459   0.00000   0.02370   0.02372   1.87027
   A44        1.93848  -0.00434   0.00000  -0.03077  -0.03122   1.90726
   A45        1.98335   0.00079   0.00000   0.01015   0.01046   1.99381
   A46        1.88088   0.00221   0.00000   0.03002   0.03033   1.91122
   A47        1.89198  -0.00393   0.00000  -0.02839  -0.02847   1.86351
   A48        1.91801   0.00087   0.00000  -0.00240  -0.00231   1.91570
   A49        2.08490  -0.00625   0.00000  -0.01470  -0.01523   2.06967
   A50        2.25249  -0.00506   0.00000  -0.02195  -0.02193   2.23057
   A51        1.97858   0.00557   0.00000   0.02754   0.02709   2.00567
   A52        2.05211  -0.00050   0.00000  -0.00544  -0.00588   2.04623
    D1       -3.03816  -0.00071   0.00000  -0.02997  -0.02938  -3.06754
    D2        0.14414   0.00043   0.00000   0.00000  -0.00000   0.14414
    D3        0.11777  -0.00176   0.00000  -0.06060  -0.06031   0.05746
    D4       -2.98311  -0.00062   0.00000  -0.03064  -0.03093  -3.01405
    D5        3.06932   0.00073   0.00000   0.02710   0.02738   3.09670
    D6       -0.01976  -0.00033   0.00000  -0.00637  -0.00650  -0.02625
    D7       -0.11788  -0.00098   0.00000  -0.00777  -0.00791  -0.12579
    D8        3.07623  -0.00203   0.00000  -0.04125  -0.04179   3.03445
    D9       -2.70837  -0.00198   0.00000  -0.04057  -0.04094  -2.74931
   D10        0.42916   0.00041   0.00000   0.00547   0.00525   0.43441
   D11        0.47885  -0.00017   0.00000  -0.00530  -0.00498   0.47387
   D12       -2.66680   0.00222   0.00000   0.04074   0.04121  -2.62559
   D13       -0.11204  -0.00030   0.00000   0.00000   0.00000  -0.11204
   D14        2.68822   0.00370   0.00000   0.06003   0.05844   2.74667
   D15        2.97827   0.00071   0.00000   0.03259   0.03305   3.01132
   D16       -0.50465   0.00470   0.00000   0.09262   0.09149  -0.41316
   D17       -2.49467  -0.00067   0.00000  -0.00639  -0.00588  -2.50055
   D18        1.75640  -0.00230   0.00000  -0.01677  -0.01632   1.74008
   D19       -0.48658  -0.00010   0.00000   0.00737   0.00744  -0.47914
   D20        0.95177  -0.00003   0.00000  -0.03633  -0.03712   0.91465
   D21       -1.08035  -0.00166   0.00000  -0.04671  -0.04756  -1.12791
   D22        2.95985   0.00054   0.00000  -0.02257  -0.02380   2.93606
   D23        2.94470   0.00231   0.00000   0.02607   0.02589   2.97059
   D24       -1.22633   0.00144   0.00000   0.02162   0.02147  -1.20486
   D25        0.85067  -0.00052   0.00000   0.00303   0.00296   0.85363
   D26        0.92050   0.00319   0.00000   0.03953   0.03949   0.96000
   D27        3.03265   0.00232   0.00000   0.03508   0.03508   3.06773
   D28       -1.17353   0.00036   0.00000   0.01648   0.01656  -1.15697
   D29       -1.08049   0.00146   0.00000   0.00812   0.00814  -1.07235
   D30        1.03165   0.00058   0.00000   0.00367   0.00372   1.03538
   D31        3.10866  -0.00138   0.00000  -0.01493  -0.01480   3.09386
   D32       -2.90009  -0.00098   0.00000  -0.01363  -0.01341  -2.91351
   D33       -0.86383   0.00207   0.00000   0.01989   0.01972  -0.84412
   D34        1.30938   0.00039   0.00000   0.00000  -0.00001   1.30937
   D35       -0.89870  -0.00193   0.00000  -0.02241  -0.02233  -0.92103
   D36        1.13756   0.00112   0.00000   0.01111   0.01081   1.14836
   D37       -2.97241  -0.00057   0.00000  -0.00878  -0.00892  -2.98133
   D38        1.10403   0.00096   0.00000   0.01157   0.01166   1.11569
   D39        3.14028   0.00401   0.00000   0.04509   0.04479  -3.09811
   D40       -0.96968   0.00232   0.00000   0.02520   0.02506  -0.94462
   D41        0.95666   0.00067   0.00000   0.00000   0.00000   0.95666
   D42        3.08230   0.00060   0.00000   0.00799   0.00795   3.09025
   D43       -1.13766  -0.00112   0.00000  -0.01547  -0.01544  -1.15310
   D44       -1.15752   0.00174   0.00000   0.01570   0.01576  -1.14175
   D45        0.96813   0.00167   0.00000   0.02368   0.02371   0.99184
   D46        3.03135  -0.00005   0.00000   0.00023   0.00032   3.03167
   D47        3.06185   0.00062   0.00000   0.00371   0.00367   3.06552
   D48       -1.09569   0.00055   0.00000   0.01170   0.01161  -1.08408
   D49        0.96753  -0.00117   0.00000  -0.01176  -0.01177   0.95576
   D50       -0.92193  -0.00080   0.00000   0.00000   0.00000  -0.92192
   D51        1.18340  -0.00141   0.00000  -0.01057  -0.01058   1.17281
   D52       -3.04842  -0.00090   0.00000  -0.00730  -0.00733  -3.05575
   D53       -3.04921   0.00013   0.00000   0.00015   0.00016  -3.04905
   D54       -0.94389  -0.00047   0.00000  -0.01042  -0.01042  -0.95431
   D55        1.10748   0.00003   0.00000  -0.00715  -0.00717   1.10031
   D56        1.17624   0.00015   0.00000   0.00704   0.00707   1.18331
   D57       -3.00162  -0.00046   0.00000  -0.00353  -0.00352  -3.00514
   D58       -0.95025   0.00005   0.00000  -0.00026  -0.00026  -0.95051
   D59        0.98795  -0.00085   0.00000  -0.01172  -0.01174   0.97621
   D60        3.09706  -0.00082   0.00000  -0.01605  -0.01618   3.08088
   D61       -1.13100   0.00042   0.00000  -0.00305  -0.00301  -1.13401
   D62       -1.11491  -0.00127   0.00000  -0.01292  -0.01290  -1.12781
   D63        0.99420  -0.00124   0.00000  -0.01725  -0.01734   0.97686
   D64        3.04933   0.00000   0.00000  -0.00426  -0.00418   3.04516
   D65        3.11566  -0.00025   0.00000  -0.00146  -0.00145   3.11421
   D66       -1.05841  -0.00021   0.00000  -0.00579  -0.00589  -1.06431
   D67        0.99672   0.00103   0.00000   0.00721   0.00727   1.00399
   D68       -1.05288   0.00004   0.00000  -0.00054  -0.00048  -1.05336
   D69       -3.12769   0.00158   0.00000   0.00786   0.00750  -3.12019
   D70        1.08040   0.00147   0.00000   0.00960   0.00958   1.08998
   D71        3.12130  -0.00134   0.00000  -0.00765  -0.00753   3.11377
   D72        1.04649   0.00020   0.00000   0.00075   0.00045   1.04694
   D73       -1.02860   0.00008   0.00000   0.00249   0.00253  -1.02608
   D74        1.06568  -0.00029   0.00000   0.00129   0.00146   1.06714
   D75       -1.00913   0.00125   0.00000   0.00970   0.00944  -0.99969
   D76       -3.08422   0.00113   0.00000   0.01143   0.01152  -3.07271
   D77       -1.17216   0.00388   0.00000   0.00000  -0.00001  -1.17217
   D78        3.06354   0.00029   0.00000  -0.01676  -0.01668   3.04686
   D79        1.01205  -0.00059   0.00000  -0.03503  -0.03528   0.97676
   D80        0.14065   0.00165   0.00000   0.01330   0.01299   0.15364
   D81       -2.99674  -0.00084   0.00000  -0.03445  -0.03419  -3.03093
         Item               Value     Threshold  Converged?
 Maximum Force            0.037769     0.000450     NO 
 RMS     Force            0.006990     0.000300     NO 
 Maximum Displacement     0.293112     0.001800     NO 
 RMS     Displacement     0.055782     0.001200     NO 
 Predicted change in Energy=-1.327800D-02
 GradGradGradGradGradGradGradGradGradGradGradGradGradGradGradGradGradGrad

                          Input orientation:                          
 ---------------------------------------------------------------------
 Center     Atomic      Atomic             Coordinates (Angstroms)
 Number     Number       Type             X           Y           Z
 ---------------------------------------------------------------------
      1          8           0       -3.480623   -1.423427   -0.230834
      2          7           0       -3.127696   -0.249509   -0.044121
      3          8           0       -3.882362    0.716411    0.147388
      4          6           0       -1.682822   -0.005488   -0.030830
      5          6           0       -1.318465    1.271098    0.265036
      6          7           0       -0.068008    1.751894    0.390940
      7          6           0        1.193336    1.005146    0.369451
      8          1           0        1.827203    1.519561    1.110253
      9          6           0        1.924781    1.049851   -0.968839
     10          6           0        3.325397    0.450691   -0.796999
     11          6           0        3.263311   -0.961269   -0.203021
     12          6           0        2.442728   -0.997371    1.086249
     13          6           0        1.033414   -0.442491    0.842889
     14          1           0        0.465094   -0.455888    1.785959
     15          7           0        0.396173   -1.323687   -0.129581
     16          6           0       -0.843301   -1.126180   -0.421176
     17          1           0       -2.111030    1.994952    0.438222
     18          1           0        0.058141    2.751286    0.263769
     19          1           0        1.356961    0.480768   -1.713347
     20          1           0        1.990500    2.088035   -1.321842
     21          1           0        3.837456    0.431414   -1.765738
     22          1           0        3.913297    1.100705   -0.133601
     23          1           0        2.799454   -1.639490   -0.927731
     24          1           0        4.276082   -1.334257   -0.008160
     25          1           0        2.363425   -2.026296    1.454580
     26          1           0        2.935918   -0.403574    1.867544
     27          1           0       -1.327367   -1.859865   -1.068460
 ---------------------------------------------------------------------
                    Distance matrix (angstroms):
                    1          2          3          4          5
     1  O    0.000000
     2  N    1.239960   0.000000
     3  O    2.209831   1.240644   0.000000
     4  C    2.298399   1.465395   2.321825   0.000000
     5  C    3.490169   2.383515   2.625849   1.360134   0.000000
     6  N    4.702680   3.681926   3.959903   2.423614   1.345607
     7  C    5.301340   4.518464   5.088751   3.074718   2.527999
     8  H    6.215522   5.386392   5.845622   3.993510   3.266704
     9  C    5.990004   5.298204   5.922842   3.874068   3.477074
    10  C    7.082003   6.534487   7.274219   5.086981   4.833885
    11  C    6.759808   6.432481   7.348335   5.040575   5.118126
    12  C    6.082953   5.732945   6.620066   4.387695   4.468436
    13  C    4.742536   4.258975   5.098198   2.886572   2.966755
    14  H    4.535666   4.037316   4.791614   2.849057   2.911489
    15  N    3.879400   3.684944   4.748113   2.463661   3.135063
    16  C    2.660837   2.475719   3.599208   1.453656   2.538427
    17  H    3.742825   2.510751   2.203830   2.098841   1.087252
    18  H    5.495062   4.387383   4.436420   3.273766   2.021386
    19  H    5.406110   4.840637   5.564923   3.508218   3.420019
    20  H    6.591953   5.769975   6.207294   4.420729   3.759630
    21  H    7.703937   7.207008   7.958446   5.802953   5.604698
    22  H    7.813498   7.169845   7.810181   5.705329   5.249693
    23  H    6.322319   6.151741   7.166088   4.854400   5.181841
    24  H    7.760413   7.482907   8.413658   6.105300   6.177497
    25  H    6.112035   5.962842   6.945577   4.760486   5.083713
    26  H    6.827539   6.359686   7.120550   5.009496   4.844825
    27  H    2.351299   2.623681   3.826680   2.154469   3.403119
                    6          7          8          9         10
     6  N    0.000000
     7  C    1.465975   0.000000
     8  H    2.040396   1.102360   0.000000
     9  C    2.512583   1.525788   2.133723   0.000000
    10  C    3.823549   2.492732   2.650411   1.533051   0.000000
    11  C    4.337249   2.911925   3.153032   2.534313   1.533068
    12  C    3.787573   2.466750   2.591215   2.946654   2.534287
    13  C    2.496540   1.531461   2.133362   2.510772   2.956382
    14  H    2.665441   2.161354   2.492853   3.462203   3.959153
    15  N    3.153665   2.511567   3.416006   2.945281   3.489158
    16  C    3.089324   3.052136   4.059164   3.563331   4.472786
    17  H    2.057973   3.450113   4.023345   4.377307   5.784917
    18  H    1.015318   2.085387   2.315872   2.810436   4.134359
    19  H    2.841535   2.154018   3.045150   1.095704   2.171483
    20  H    2.698901   2.160691   2.502981   1.098524   2.176765
    21  H    4.652696   3.446676   3.673759   2.162369   1.095916
    22  H    4.068167   2.767739   2.464630   2.157407   1.099200
    23  H    4.632787   3.355056   3.883073   2.828303   2.159297
    24  H    5.343662   3.888280   3.923281   3.483603   2.170739
    25  H    4.617132   3.425822   3.602665   3.940564   3.482881
    26  H    3.981202   2.695435   2.345461   3.343637   2.825111
    27  H    4.093975   4.077967   5.110638   4.364955   5.201978
                   11         12         13         14         15
    11  C    0.000000
    12  C    1.528684   0.000000
    13  C    2.517041   1.534041   0.000000
    14  H    3.470081   2.166526   1.101157   0.000000
    15  N    2.890885   2.402730   1.458863   2.104072   0.000000
    16  C    4.115707   3.617583   2.363757   2.651911   1.288539
    17  H    6.167170   5.487318   3.999052   3.802556   4.197838
    18  H    4.926872   4.518313   3.389210   3.573323   4.107846
    19  H    2.827495   3.346867   2.737048   3.730669   2.586018
    20  H    3.488561   3.939941   3.464914   4.296141   3.950090
    21  H    2.170552   3.481454   3.928269   4.977417   4.195214
    22  H    2.163109   2.837698   3.410090   4.242381   4.271751
    23  H    1.095606   2.143755   2.772508   3.770181   2.551967
    24  H    1.096721   2.161576   3.469067   4.302793   3.881823
    25  H    2.166037   1.095739   2.156741   2.485890   2.621699
    26  H    2.169205   1.098296   2.161239   2.472724   3.359378
    27  H    4.757182   4.427221   3.351938   3.651270   2.034593
                   16         17         18         19         20
    16  C    0.000000
    17  H    3.476661   0.000000
    18  H    4.039367   2.303862   0.000000
    19  H    3.015484   4.353041   3.278898   0.000000
    20  H    4.378676   4.464195   2.586131   1.771427   0.000000
    21  H    5.113065   6.533497   4.876877   2.481539   2.520453
    22  H    5.259938   6.117122   4.212428   3.068350   2.466553
    23  H    3.713455   6.260021   5.311627   2.682065   3.834602
    24  H    5.140230   7.216516   5.878489   3.837088   4.319922
    25  H    3.822533   6.101161   5.436694   4.163424   4.977480
    26  H    4.476929   5.767805   4.561451   4.012225   4.156213
    27  H    1.091600   4.212343   4.995716   3.619400   5.163172
                   21         22         23         24         25
    21  H    0.000000
    22  H    1.765665   0.000000
    23  H    2.463402   3.062672   0.000000
    24  H    2.529638   2.465033   1.766129   0.000000
    25  H    4.310865   3.834392   2.452580   2.505351   0.000000
    26  H    3.835456   2.687510   3.059359   2.486057   1.769608
    27  H    5.693114   6.091264   4.135096   5.727053   4.473855
                   26         27
    26  H    0.000000
    27  H    5.377406   0.000000
 Symmetry turned off by external request.
 Stoichiometry    C9H13N3O2
 Framework group  C1[X(C9H13N3O2)]
 Deg. of freedom    75
 Full point group                 C1      NOp   1
 Rotational constants (GHZ):           1.6872349           0.4216574           0.3723280
 Standard basis: 6-31G(d) (6D, 7F)
   236 basis functions,   444 primitive gaussians,   236 cartesian basis functions
    52 alpha electrons       52 beta electrons
       nuclear repulsion energy       932.1777801657 Hartrees.
 NAtoms=   27 NActive=   27 NUniq=   27 SFac= 1.00D+00 NAtFMM=   60 NAOKFM=F Big=F
 Integral buffers will be    131072 words long.
 Raffenetti 1 integral format.
 Two-electron integral symmetry is turned off.
 One-electron integrals computed using PRISM.
 NBasis=   236 RedAO= T EigKep=  1.01D-03  NBF=   236
 NBsUse=   236 1.00D-06 EigRej= -1.00D+00 NBFU=   236
 Initial guess from the checkpoint file:  "/home/alexey/tmp/Gau-1450938.chk"
 B after Tr=     0.055992    0.005453    0.000236
         Rot=    0.999998   -0.001226    0.000560    0.001106 Ang=  -0.20 deg.
 ExpMin= 1.61D-01 ExpMax= 5.48D+03 ExpMxC= 8.25D+02 IAcc=3 IRadAn=         5 AccDes= 0.00D+00
 Harris functional with IExCor=  205 and IRadAn=       5 diagonalized for initial guess.
 HarFok:  IExCor=  205 AccDes= 0.00D+00 IRadAn=         5 IDoV= 1 UseB2=F ITyADJ=14
 ICtDFT=  3500011 ScaDFX=  1.000000  1.000000  1.000000  1.000000
 FoFCou: FMM=F IPFlag=           0 FMFlag=      100000 FMFlg1=           0
         NFxFlg=           0 DoJE=T BraDBF=F KetDBF=T FulRan=T
         wScrn=  0.000000 ICntrl=       500 IOpCl=  0 I1Cent=   200000004 NGrid=           0
         NMat0=    1 NMatS0=      1 NMatT0=    0 NMatD0=    1 NMtDS0=    0 NMtDT0=    0
 Symmetry not used in FoFCou.
 Keep R1 ints in memory in canonical form, NReq=397720213.
 Requested convergence on RMS density matrix=1.00D-08 within 128 cycles.
 Requested convergence on MAX density matrix=1.00D-06.
 Requested convergence on             energy=1.00D-06.
 No special actions if energy rises.
 SCF Done:  E(RHF) =  -661.298322074     A.U. after   15 cycles
            NFock= 15  Conv=0.39D-08     -V/T= 2.0024
 ExpMin= 1.61D-01 ExpMax= 5.48D+03 ExpMxC= 8.25D+02 IAcc=3 IRadAn=         5 AccDes= 0.00D+00
 HarFok:  IExCor=  205 AccDes= 0.00D+00 IRadAn=         5 IDoV=-2 UseB2=F ITyADJ=14
 ICtDFT= 12500011 ScaDFX=  1.000000  1.000000  1.000000  1.000000
 Range of M.O.s used for correlation:    15   236
 NBasis=   236 NAE=    52 NBE=    52 NFC=    14 NFV=     0
 NROrb=    222 NOA=    38 NOB=    38 NVA=   184 NVB=   184
 Fully direct method using O(ONN) memory.
 JobTyp=1 Pass  1:  I=  15 to  52 NPSUse=  4 ParTrn=T ParDer=T DoDerP=T.
 Spin components of T(2) and E(2):
     alpha-alpha T2 =       0.9124633433D-01 E2=     -0.2723321055D+00
     alpha-beta  T2 =       0.4912473931D+00 E2=     -0.1488010409D+01
     beta-beta   T2 =       0.9124633433D-01 E2=     -0.2723321055D+00
 ANorm=    0.1293731062D+01
 E2 =    -0.2032674620D+01 EUMP2 =    -0.66333099669419D+03
          IDoAtm=111111111111111111111111111
          Differentiating once with respect to electric field.
                with respect to dipole field.
          Differentiating once with respect to nuclear coordinates.
 Keep R1 ints in memory in canonical form, NReq=397723379.
          There are     1 degrees of freedom in the 1st order CPHF.  IDoFFX=0 NUNeed=     1.
 LinEq1:  Iter=  0 NonCon=     1 RMS=4.57D-03 Max=1.05D-01 NDo=     1
 AX will form     1 AO Fock derivatives at one time.
 LinEq1:  Iter=  1 NonCon=     1 RMS=1.53D-03 Max=2.72D-02 NDo=     1
 LinEq1:  Iter=  2 NonCon=     1 RMS=6.42D-04 Max=1.77D-02 NDo=     1
 LinEq1:  Iter=  3 NonCon=     1 RMS=2.80D-04 Max=8.19D-03 NDo=     1
[...]
    26  H    2.175638   1.098819   2.166898   2.496879   3.363134
    27  H    4.724854   4.419263   3.356860   3.657005   2.029516
                   16         17         18         19         20
    16  C    0.000000
    17  H    3.464086   0.000000
    18  H    4.087674   2.236806   0.000000
    19  H    2.990748   4.304915   3.511933   0.000000
    20  H    4.374484   4.449719   2.880993   1.768586   0.000000
    21  H    5.096709   6.512178   5.085696   2.499027   2.521151
    22  H    5.248523   6.100978   4.312064   3.070248   2.461383
    23  H    3.696029   6.236577   5.421021   2.704419   3.843050
    24  H    5.134450   7.201806   5.935859   3.849760   4.317085
    25  H    3.822242   6.089252   5.369311   4.171898   4.984992
    26  H    4.495206   5.781574   4.484238   4.036009   4.181784
    27  H    1.089803   4.215101   5.078578   3.583099   5.147158
                   21         22         23         24         25
    21  H    0.000000
    22  H    1.758978   0.000000
    23  H    2.469330   3.062257   0.000000
    24  H    2.517396   2.459764   1.764627   0.000000
    25  H    4.312093   3.839397   2.444476   2.519715   0.000000
    26  H    3.846471   2.703929   3.060516   2.491532   1.768038
    27  H    5.653231   6.060478   4.091791   5.695879   4.455744
                   26         27
    26  H    0.000000
    27  H    5.378953   0.000000
 Symmetry turned off by external request.
 Stoichiometry    C9H13N3O2
 Framework group  C1[X(C9H13N3O2)]
 Deg. of freedom    75
 Full point group                 C1      NOp   1
 Rotational constants (GHZ):           1.6801988           0.4192898           0.3721142

 **********************************************************************

            Population analysis using the SCF Density.

 **********************************************************************

 Alpha  occ. eigenvalues --  -20.59236 -20.58906 -15.84723 -15.64137 -15.56108
 Alpha  occ. eigenvalues --  -11.35022 -11.29624 -11.29554 -11.28621 -11.27133
 Alpha  occ. eigenvalues --  -11.23729 -11.23209 -11.22694 -11.22091  -1.57130
 Alpha  occ. eigenvalues --   -1.36727  -1.30973  -1.23062  -1.14697  -1.09815
 Alpha  occ. eigenvalues --   -1.02802  -1.01308  -0.94479  -0.89678  -0.85564
 Alpha  occ. eigenvalues --   -0.82444  -0.78609  -0.77410  -0.75199  -0.72020
 Alpha  occ. eigenvalues --   -0.69778  -0.69445  -0.67820  -0.64887  -0.63776
 Alpha  occ. eigenvalues --   -0.62367  -0.60276  -0.57699  -0.57001  -0.55074
 Alpha  occ. eigenvalues --   -0.54581  -0.50762  -0.50106  -0.48653  -0.48101
 Alpha  occ. eigenvalues --   -0.47377  -0.46147  -0.46044  -0.43683  -0.41696
 Alpha  occ. eigenvalues --   -0.39844  -0.33825
 Alpha virt. eigenvalues --    0.07469   0.11809   0.17307   0.21848   0.24112
 Alpha virt. eigenvalues --    0.25662   0.27132   0.28692   0.29044   0.29635
 Alpha virt. eigenvalues --    0.30683   0.31801   0.32035   0.32766   0.33950
 Alpha virt. eigenvalues --    0.34385   0.35852   0.37314   0.38577   0.40291
 Alpha virt. eigenvalues --    0.41387   0.42445   0.45031   0.46118   0.46730
 Alpha virt. eigenvalues --    0.47073   0.48999   0.53994   0.57579   0.59406
 Alpha virt. eigenvalues --    0.63926   0.69540   0.69912   0.72859   0.74241
 Alpha virt. eigenvalues --    0.74875   0.75781   0.76681   0.78662   0.79437
 Alpha virt. eigenvalues --    0.81387   0.84701   0.85724   0.85808   0.88525
 Alpha virt. eigenvalues --    0.89429   0.91048   0.92109   0.92852   0.94526
 Alpha virt. eigenvalues --    0.95646   0.98039   0.99634   1.01673   1.02469
 Alpha virt. eigenvalues --    1.03151   1.05867   1.06965   1.07890   1.09003
 Alpha virt. eigenvalues --    1.10278   1.11422   1.11854   1.12439   1.13917
 Alpha virt. eigenvalues --    1.14767   1.14985   1.15836   1.16900   1.18722
 Alpha virt. eigenvalues --    1.19136   1.21336   1.22572   1.23908   1.24521
 Alpha virt. eigenvalues --    1.24836   1.26034   1.26904   1.27484   1.29548
 Alpha virt. eigenvalues --    1.30011   1.33130   1.36074   1.37181   1.40865
 Alpha virt. eigenvalues --    1.41841   1.46467   1.48736   1.51712   1.54282
 Alpha virt. eigenvalues --    1.56380   1.58766   1.59544   1.63458   1.65648
 Alpha virt. eigenvalues --    1.68039   1.68643   1.72991   1.75214   1.77355
 Alpha virt. eigenvalues --    1.81585   1.84591   1.87699   1.90640   1.93516
 Alpha virt. eigenvalues --    1.95823   1.96959   1.99717   2.01575   2.02521
 Alpha virt. eigenvalues --    2.05097   2.05609   2.08488   2.09578   2.12392
 Alpha virt. eigenvalues --    2.13267   2.15292   2.18821   2.20022   2.22454
 Alpha virt. eigenvalues --    2.22631   2.24493   2.25499   2.28211   2.29544
 Alpha virt. eigenvalues --    2.31988   2.33715   2.34691   2.36386   2.38484
 Alpha virt. eigenvalues --    2.40483   2.41917   2.43855   2.45133   2.47366
 Alpha virt. eigenvalues --    2.50718   2.51943   2.53103   2.55570   2.61522
 Alpha virt. eigenvalues --    2.62308   2.65186   2.67623   2.70328   2.70491
 Alpha virt. eigenvalues --    2.72260   2.72653   2.76992   2.78447   2.83807
 Alpha virt. eigenvalues --    2.88548   2.88952   2.92949   2.93137   2.96072
 Alpha virt. eigenvalues --    2.99441   3.01348   3.04323   3.05733   3.07683
 Alpha virt. eigenvalues --    3.09409   3.15044   3.21228   3.25222   3.27447
 Alpha virt. eigenvalues --    3.33468   3.37810   3.38797   3.52172   3.65777
 Alpha virt. eigenvalues --    4.13705   4.28087   4.34711   4.38916   4.46309
 Alpha virt. eigenvalues --    4.56309   4.61871   4.62349   4.73452   4.79756
 Alpha virt. eigenvalues --    4.99404   5.00894   5.05008   5.11165
          Condensed to atoms (all electrons):
               1          2          3          4          5          6
     1  O    8.316270   0.306976  -0.082453  -0.085550   0.004642  -0.000016
     2  N    0.306976   5.721790   0.301338   0.264221  -0.053558   0.000970
     3  O   -0.082453   0.301338   8.353573  -0.092734   0.003685   0.000783
     4  C   -0.085550   0.264221  -0.092734   5.226205   0.560207  -0.047283
     5  C    0.004642  -0.053558   0.003685   0.560207   4.709595   0.317382
     6  N   -0.000016   0.000970   0.000783  -0.047283   0.317382   7.195506
     7  C    0.000004  -0.000139   0.000002   0.004647  -0.030178   0.169387
     8  H   -0.000000   0.000002  -0.000000  -0.000263   0.003096  -0.050669
     9  C   -0.000000  -0.000004  -0.000000   0.000859   0.000622  -0.061603
    10  C    0.000000   0.000000   0.000000  -0.000038  -0.000052   0.003745
    11  C   -0.000000  -0.000000  -0.000000  -0.000028   0.000025  -0.000189
    12  C   -0.000000   0.000002  -0.000000  -0.000127  -0.000176   0.003871
    13  C   -0.000025  -0.000039  -0.000004  -0.011571  -0.000565  -0.047662
    14  H   -0.000004  -0.000105   0.000001   0.002650   0.006067  -0.006956
    15  N    0.000383   0.002360  -0.000016  -0.063528  -0.006355   0.001587
    16  C    0.000751  -0.027280   0.002550   0.328425  -0.050307  -0.001880
    17  H    0.000219  -0.007211   0.017343  -0.023142   0.374533  -0.034203
    18  H    0.000001  -0.000050   0.000011   0.001506  -0.031412   0.338662
    19  H    0.000001  -0.000004   0.000000  -0.001223   0.001229  -0.000348
    20  H    0.000000  -0.000000   0.000000  -0.000079   0.000152  -0.000429
    21  H   -0.000000   0.000000   0.000000   0.000001   0.000001  -0.000077
    22  H   -0.000000   0.000000  -0.000000  -0.000000  -0.000003  -0.000117
    23  H    0.000000  -0.000000   0.000000   0.000040  -0.000000  -0.000030
    24  H    0.000000   0.000000   0.000000   0.000000  -0.000000   0.000006
    25  H    0.000000  -0.000000   0.000000   0.000024   0.000000  -0.000090
    26  H    0.000000  -0.000000   0.000000   0.000006  -0.000002  -0.000059
    27  H    0.006128  -0.000885   0.000018  -0.063461   0.002215   0.000017
               7          8          9         10         11         12
     1  O    0.000004  -0.000000  -0.000000   0.000000  -0.000000  -0.000000
     2  N   -0.000139   0.000002  -0.000004   0.000000  -0.000000   0.000002
     3  O    0.000002  -0.000000  -0.000000   0.000000  -0.000000  -0.000000
     4  C    0.004647  -0.000263   0.000859  -0.000038  -0.000028  -0.000127
     5  C   -0.030178   0.003096   0.000622  -0.000052   0.000025  -0.000176
     6  N    0.169387  -0.050669  -0.061603   0.003745  -0.000189   0.003871
     7  C    5.017585   0.418405   0.350510  -0.054660  -0.009027  -0.061060
     8  H    0.418405   0.538248  -0.055119   0.000780  -0.000326  -0.002227
     9  C    0.350510  -0.055119   5.158264   0.324756  -0.050407  -0.005354
    10  C   -0.054660   0.000780   0.324756   5.119363   0.336993  -0.060996
    11  C   -0.009027  -0.000326  -0.050407   0.336993   5.119858   0.335967
    12  C   -0.061060  -0.002227  -0.005354  -0.060996   0.335967   5.118638
    13  C    0.338588  -0.037947  -0.060192  -0.000286  -0.050668   0.371963
    14  H   -0.046561  -0.000746   0.004420  -0.000405   0.004196  -0.036362
    15  N   -0.058003   0.003907  -0.014645   0.001559  -0.013013  -0.081970
    16  C   -0.001785   0.000011  -0.001280  -0.000028   0.000028   0.002607
    17  H    0.001616  -0.000045  -0.000070   0.000001   0.000000   0.000000
    18  H   -0.021245  -0.004479   0.001329  -0.000083   0.000004  -0.000114
    19  H   -0.036835   0.004362   0.390208  -0.032067  -0.002210   0.000688
    20  H   -0.042439  -0.002082   0.399489  -0.035311   0.003932  -0.000415
    21  H    0.004598  -0.000076  -0.036355   0.402430  -0.034901   0.004349
    22  H   -0.004844   0.003561  -0.046956   0.397750  -0.045415  -0.001021
    23  H    0.000577   0.000034  -0.001957  -0.039021   0.399162  -0.037840
    24  H   -0.000130  -0.000102   0.004388  -0.038441   0.402339  -0.038695
    25  H    0.005150  -0.000025  -0.000423   0.004189  -0.033390   0.398260
    26  H   -0.003910   0.001686   0.000969  -0.002233  -0.041503   0.396739
    27  H   -0.000408   0.000009  -0.000058   0.000007   0.000012  -0.000036
              13         14         15         16         17         18
     1  O   -0.000025  -0.000004   0.000383   0.000751   0.000219   0.000001
     2  N   -0.000039  -0.000105   0.002360  -0.027280  -0.007211  -0.000050
     3  O   -0.000004   0.000001  -0.000016   0.002550   0.017343   0.000011
     4  C   -0.011571   0.002650  -0.063528   0.328425  -0.023142   0.001506
     5  C   -0.000565   0.006067  -0.006355  -0.050307   0.374533  -0.031412
     6  N   -0.047662  -0.006956   0.001587  -0.001880  -0.034203   0.338662
     7  C    0.338588  -0.046561  -0.058003  -0.001785   0.001616  -0.021245
     8  H   -0.037947  -0.000746   0.003907   0.000011  -0.000045  -0.004479
     9  C   -0.060192   0.004420  -0.014645  -0.001280  -0.000070   0.001329
    10  C   -0.000286  -0.000405   0.001559  -0.000028   0.000001  -0.000083
    11  C   -0.050668   0.004196  -0.013013   0.000028   0.000000   0.000004
    12  C    0.371963  -0.036362  -0.081970   0.002607   0.000000  -0.000114
    13  C    5.040046   0.403073   0.244794  -0.071111  -0.000009   0.002971
    14  H    0.403073   0.526764  -0.037345  -0.004526   0.000093  -0.000108
    15  N    0.244794  -0.037345   6.964984   0.585205  -0.000080  -0.000132
    16  C   -0.071111  -0.004526   0.585205   4.710164   0.002017  -0.000197
    17  H   -0.000009   0.000093  -0.000080   0.002017   0.376615  -0.002816
    18  H    0.002971  -0.000108  -0.000132  -0.000197  -0.002816   0.310620
    19  H   -0.007532   0.000106   0.007695   0.003003   0.000016  -0.000149
    20  H    0.004340  -0.000066   0.000127  -0.000036   0.000002   0.000808
    21  H   -0.000433   0.000010  -0.000041   0.000004  -0.000000   0.000001
    22  H    0.000046  -0.000055   0.000019  -0.000002   0.000000   0.000001
    23  H   -0.007511   0.000003   0.008576   0.000105   0.000000   0.000000
    24  H    0.004698  -0.000057   0.000135   0.000007   0.000000  -0.000000
    25  H   -0.035545  -0.002818   0.000407  -0.000022  -0.000000   0.000002
    26  H   -0.047423  -0.001047   0.004895  -0.000061   0.000000  -0.000000
    27  H    0.005062  -0.000174  -0.040313   0.403683  -0.000079   0.000001
              19         20         21         22         23         24
     1  O    0.000001   0.000000  -0.000000  -0.000000   0.000000   0.000000
     2  N   -0.000004  -0.000000   0.000000   0.000000  -0.000000   0.000000
     3  O    0.000000   0.000000   0.000000  -0.000000   0.000000   0.000000
     4  C   -0.001223  -0.000079   0.000001  -0.000000   0.000040   0.000000
     5  C    0.001229   0.000152   0.000001  -0.000003  -0.000000  -0.000000
     6  N   -0.000348  -0.000429  -0.000077  -0.000117  -0.000030   0.000006
     7  C   -0.036835  -0.042439   0.004598  -0.004844   0.000577  -0.000130
     8  H    0.004362  -0.002082  -0.000076   0.003561   0.000034  -0.000102
     9  C    0.390208   0.399489  -0.036355  -0.046956  -0.001957   0.004388
    10  C   -0.032067  -0.035311   0.402430   0.397750  -0.039021  -0.038441
    11  C   -0.002210   0.003932  -0.034901  -0.045415   0.399162   0.402339
    12  C    0.000688  -0.000415   0.004349  -0.001021  -0.037840  -0.038695
    13  C   -0.007532   0.004340  -0.000433   0.000046  -0.007511   0.004698
    14  H    0.000106  -0.000066   0.000010  -0.000055   0.000003  -0.000057
    15  N    0.007695   0.000127  -0.000041   0.000019   0.008576   0.000135
    16  C    0.003003  -0.000036   0.000004  -0.000002   0.000105   0.000007
    17  H    0.000016   0.000002  -0.000000   0.000000   0.000000   0.000000
    18  H   -0.000149   0.000808   0.000001   0.000001   0.000000  -0.000000
    19  H    0.504857  -0.024726  -0.002787   0.003958   0.001513  -0.000066
    20  H   -0.024726   0.541211  -0.002691  -0.002992  -0.000045  -0.000083
    21  H   -0.002787  -0.002691   0.524012  -0.027390  -0.002898  -0.002241
    22  H    0.003958  -0.002992  -0.027390   0.571336   0.004138  -0.003658
    23  H    0.001513  -0.000045  -0.002898   0.004138   0.498985  -0.025453
    24  H   -0.000066  -0.000083  -0.002241  -0.003658  -0.025453   0.538151
    25  H   -0.000029   0.000012  -0.000087  -0.000080  -0.002315  -0.002290
    26  H    0.000019  -0.000030  -0.000081   0.002382   0.004066  -0.003036
    27  H    0.000083   0.000000  -0.000000   0.000000  -0.000035  -0.000000
              25         26         27
     1  O    0.000000   0.000000   0.006128
     2  N   -0.000000  -0.000000  -0.000885
     3  O    0.000000   0.000000   0.000018
     4  C    0.000024   0.000006  -0.063461
     5  C    0.000000  -0.000002   0.002215
     6  N   -0.000090  -0.000059   0.000017
     7  C    0.005150  -0.003910  -0.000408
     8  H   -0.000025   0.001686   0.000009
     9  C   -0.000423   0.000969  -0.000058
    10  C    0.004189  -0.002233   0.000007
    11  C   -0.033390  -0.041503   0.000012
    12  C    0.398260   0.396739  -0.000036
    13  C   -0.035545  -0.047423   0.005062
    14  H   -0.002818  -0.001047  -0.000174
    15  N    0.000407   0.004895  -0.040313
    16  C   -0.000022  -0.000061   0.403683
    17  H   -0.000000   0.000000  -0.000079
    18  H    0.000002  -0.000000   0.000001
    19  H   -0.000029   0.000019   0.000083
    20  H    0.000012  -0.000030   0.000000
    21  H   -0.000087  -0.000081  -0.000000
    22  H   -0.000080   0.002382   0.000000
    23  H   -0.002315   0.004066  -0.000035
    24  H   -0.002290  -0.003036  -0.000000
    25  H    0.506105  -0.024079  -0.000013
    26  H   -0.024079   0.562359   0.000001
    27  H   -0.000013   0.000001   0.439337
 Mulliken charges:
               1
     1  O   -0.467327
     2  N    0.491617
     3  O   -0.504098
     4  C    0.000236
     5  C    0.189156
     6  N   -0.780303
     7  C    0.060156
     8  H    0.180003
     9  C   -0.301392
    10  C   -0.327952
    11  C   -0.321439
    12  C   -0.306692
    13  C   -0.037057
    14  H    0.189951
    15  N   -0.511193
    16  C    0.119957
    17  H    0.295199
    18  H    0.404868
    19  H    0.190237
    20  H    0.161351
    21  H    0.174654
    22  H    0.149344
    23  H    0.199906
    24  H    0.164529
    25  H    0.187055
    26  H    0.150343
    27  H    0.248890
 Sum of Mulliken charges =  -0.00000
 Mulliken charges with hydrogens summed into heavy atoms:
               1
     1  O   -0.467327
     2  N    0.491617
     3  O   -0.504098
     4  C    0.000236
     5  C    0.484355
     6  N   -0.375435
     7  C    0.240158
     9  C    0.050196
    10  C   -0.003955
    11  C    0.042997
    12  C    0.030706
    13  C    0.152894
    15  N   -0.511193
    16  C    0.368847
 Electronic spatial extent (au):  <R**2>=           3005.5674
 Charge=             -0.0000 electrons
 Dipole moment (field-independent basis, Debye):
    X=              5.4149    Y=              4.7989    Z=              1.2818  Tot=              7.3480
 Quadrupole moment (field-independent basis, Debye-Ang):
   XX=           -106.1241   YY=            -79.2260   ZZ=            -81.5031
   XY=             -1.7733   XZ=             -0.1295   YZ=              1.8478
 Traceless Quadrupole moment (field-independent basis, Debye-Ang):
   XX=            -17.1731   YY=              9.7251   ZZ=              7.4480
   XY=             -1.7733   XZ=             -0.1295   YZ=              1.8478
 Octapole moment (field-independent basis, Debye-Ang**2):
  XXX=             92.3772  YYY=             36.3149  ZZZ=             -1.4853  XYY=             -4.5655
  XXY=              9.5483  XXZ=              4.9189  XZZ=             -9.7440  YZZ=             -0.3884
  YYZ=              8.0099  XYZ=              0.2704
 Hexadecapole moment (field-independent basis, Debye-Ang**3):
 XXXX=          -3382.2853 YYYY=           -600.9791 ZZZZ=           -303.8453 XXXY=            -20.9674
 XXXZ=            -13.4559 YYYX=             -9.0270 YYYZ=             24.9386 ZZZX=              1.8674
 ZZZY=              7.0469 XXYY=           -627.7674 XXZZ=           -523.8876 YYZZ=           -157.3211
 XXYZ=             -4.3616 YYXZ=              1.6737 ZZXY=              4.6696
 N-N= 9.312192458162D+02 E-N=-3.409154775419D+03  KE= 6.596283618653D+02
 Unable to Open any file for archive entry.
 1\1\GINC-LOTUS\FOpt\RMP2-FC\6-31G(d)\C9H13N3O2\ALEXEY\02-Jul-2023\0\\#
 MP2/6-31G* SCF=Tight Opt=(ModRedun, MaxCycle=20 ) NoSymm\\MolName:\\0,
 1\O,-3.5058005606,-1.3909724304,-0.3722436079\N,-3.1215995127,-0.23282
 23672,-0.1183685624\O,-3.8962762158,0.7275113653,0.0566979356\C,-1.687
 3933075,-0.023602291,-0.0089697187\C,-1.30201732,1.2611688302,0.275414
 537\N,-0.0575858911,1.7501206344,0.3859320285\C,1.2053454931,1.0236075
 027,0.3590232794\H,1.8532233237,1.5528768698,1.0741850688\C,1.90923358
 54,1.0347438539,-0.9966975779\C,3.3076973718,0.4283555216,-0.832252295
 7\C,3.2598399128,-0.9677255432,-0.2056151246\C,2.4644574919,-0.9782776
 437,1.1017142466\C,1.0547310109,-0.4247216695,0.8651607381\H,0.4783567
 052,-0.4035778167,1.8037061527\N,0.4080028052,-1.317605922,-0.09153399
 33\C,-0.8391813993,-1.137321128,-0.38676061\H,-2.0965735797,1.98831084
 05,0.4190210955\H,0.0027072101,2.7351970647,0.615189588\H,1.3154286801
 ,0.4572730774,-1.7132218596\H,1.9751666766,2.0627818119,-1.3741272267\
 H,3.811881906,0.3902696313,-1.804687438\H,3.9072194355,1.0947635416,-0
 .19577375\H,2.7826175347,-1.6646603968,-0.9016556116\H,4.2790611225,-1
 .3309405407,-0.028044331\H,2.3792622855,-2.0001409085,1.4858576077\H,2
 .9742551731,-0.380050799,1.8695912095\H,-1.3010599374,-1.8915410885,-1
 .0235417802\\Version=ES64L-G16RevC.02\HF=-661.3004078\MP2=-663.3346485
 \RMSD=7.840e-09\RMSF=9.239e-05\Dipole=1.9790585,1.6925982,0.4714742\PG
 =C01 [X(C9H13N3O2)]\\@
 The archive entry for this job was punched.


 OPTIMIST - A PESSIMIST WHO LACKS EXPERIENCE
 Job cpu time:       0 days  0 hours 56 minutes 54.3 seconds.
 Elapsed time:       0 days  0 hours 17 minutes 16.2 seconds.
 File lengths (MBytes):  RWF=     36 Int=      0 D2E=      0 Chk=      7 Scr=      1
 Normal termination of Gaussian 16 at Sun Jul  2 05:33:46 2023.
