 Entering Gaussian System, Link 0=g16
 Initial command:
 /home/alexey/programs//g16/l1.exe "/home/alexey/tmp/Gau-1453210.inp" -scrdir="/home/alexey/tmp/"
 Entering Link 1 = /home/alexey/programs//g16/l1.exe PID=   1453212.
  
 Copyright (c) 1988-2021, Gaussian, Inc.  All Rights Reserved.
  
 This is part of the Gaussian(R) 16 program.  It is based on
 the Gaussian(R) 09 system (copyright 2009, Gaussian, Inc.),
 the Gaussian(R) 03 system (copyright 2003, Gaussian, Inc.),
 the Gaussian(R) 98 system (copyright 1998, Gaussian, Inc.),
 the Gaussian(R) 94 system (copyright 1995, Gaussian, Inc.),
 the Gaussian 92(TM) system (copyright 1992, Gaussian, Inc.),
 the Gaussian 90(TM) system (copyright 1990, Gaussian, Inc.),
 the Gaussian 88(TM) system (copyright 1988, Gaussian, Inc.),
 the Gaussian 86(TM) system (copyright 1986, Carnegie Mellon
 University), and the Gaussian 82(TM) system (copyright 1983,
 Carnegie Mellon University). Gaussian is a federally registered
 trademark of Gaussian, Inc.
  
 This software contains proprietary and confidential information,
 including trade secrets, belonging to Gaussian, Inc.
  
 This software is provided under written license and may be
 used, copied, transmitted, or stored only in accord with that
 written license.
  
 The following legend is applicable only to US Government
 contracts under FAR:
  
                    RESTRICTED RIGHTS LEGEND
  
 Use, reproduction and disclosure by the US Government is
 subject to restrictions as set forth in subparagraphs (a)
 and (c) of the Commercial Computer Software - Restricted
 Rights clause in FAR 52.227-19.
  
 Gaussian, Inc.
 340 Quinnipiac St., Bldg. 40, Wallingford CT 06492
  
  
 ---------------------------------------------------------------
 Warning -- This program may not be used in any manner that
 competes with the business of Gaussian, Inc. or will provide
 assistance to any competitor of Gaussian, Inc.  The licensee
 of this program is prohibited from giving any competitor of
 Gaussian, Inc. access to this program.  By using this program,
 the user acknowledges that Gaussian, Inc. is engaged in the
 business of creating and licensing software in the field of
 computational chemistry and represents and warrants to the
 licensee that it is not a competitor of Gaussian, Inc. and that
 it will not use this program in any manner prohibited above.
 ---------------------------------------------------------------
  

 Cite this work as:
 Gaussian 16, Revision C.02,
 M. J. Frisch, G. W. Trucks, H. B. Schlegel, G. E. Scuseria, 
 M. A. Robb, J. R. Cheeseman, G. Scalmani, V. Barone, 
 G. A. Petersson, H. Nakatsuji, X. Li, M. Caricato, A. V. Marenich, 
 J. Bloino, B. G. Janesko, R. Gomperts, B. Mennucci, H. P. Hratchian, 
 J. V. Ortiz, A. F. Izmaylov, J. L. Sonnenberg, D. Williams-Young, 
 F. Ding, F. Lipparini, F. Egidi, J. Goings, B. Peng, A. Petrone, 
 T. Henderson, D. Ranasinghe, V. G. Zakrzewski, J. Gao, N. Rega, 
 G. Zheng, W. Liang, M. Hada, M. Ehara, K. Toyota, R. Fukuda, 
 J. Hasegawa, M. Ishida, T. Nakajima, Y. Honda, O. Kitao, H. Nakai, 
 T. Vreven, K. Throssell, J. A. Montgomery, Jr., J. E. Peralta, 
 F. Ogliaro, M. J. Bearpark, J. J. Heyd, E. N. Brothers, K. N. Kudin, 
 V. N. Staroverov, T. A. Keith, R. Kobayashi, J. Normand, 
 K. Raghavachari, A. P. Rendell, J. C. Burant, S. S. Iyengar, 
 J. Tomasi, M. Cossi, J. M. Millam, M. Klene, C. Adamo, R. Cammi, 
 J. W. Ochterski, R. L. Martin, K. Morokuma, O. Farkas, 
 J. B. Foresman, and D. J. Fox, Gaussian, Inc., Wallingford CT, 2019.
 
 ******************************************
 Gaussian 16:  ES64L-G16RevC.02  7-Dec-2021
                 2-Jul-2023 
 ******************************************
 %mem=8GB
 %NPROCS=4
 Will use up to    4 processors via shared memory.
 %NoSave
 ---------------------------------------------------------
 #MP2/6-31G* SCF=Tight Opt=(ModRedun, MaxCycle=20 ) NoSymm
 ---------------------------------------------------------
 1/6=20,18=120,19=15,38=1/1,3;
 2/9=110,12=2,15=1,17=6,18=5,40=1/2;
 3/5=1,6=6,7=1,11=9,25=1,30=1,71=1/1,2,3;
 4//1;
 5/5=2,32=2,38=5/2;
 8/6=4,10=2/1;
 9/15=2,16=-3/6;
 10/5=1,31=1/2;
 6/7=2,8=2,9=2,10=2/1;
 7/12=2,30=1/1,2,3,16;
 1/6=20,18=20,19=15/3(2);
 2/9=110,15=1/2;
 99//99;
 2/9=110,15=1/2;
 3/5=1,6=6,7=1,11=9,25=1,30=1,71=1/1,2,3;
 4/5=5,16=3,69=1/1;
 5/5=2,32=2,38=5/2;
 8/6=4,10=2/1;
 9/15=2,16=-3/6;
 10/5=1,31=1/2;
 7/12=2,30=1/1,2,3,16;
 1/6=20,18=20,19=15/3(-8);
 2/9=110,15=1/2;
 6/7=2,8=2,9=2,10=2/1;
 99/9=10/99;
 --------
 MolName:
 --------
 Symbolic Z-matrix:
 Charge =  0 Multiplicity = 1
 8                    0    -3.64191  -1.40799  -0.26047 
 7                    0    -3.26172  -0.24707  -0.1182 
 8                    0    -4.02657   0.71489  -0.03656 
 6                    0    -1.75446   0.00465  -0.05126 
 6                    0    -1.35874   1.31873   0.22396 
 7                    0    -0.08132   1.74495   0.4751 
 6                    0     1.203     0.98717   0.40223 
 1                    0     1.88544   1.48474   1.13921 
 6                    0     1.92698   1.04881  -0.96589 
 6                    0     3.34696   0.4692   -0.81947 
 6                    0     3.30926  -0.94966  -0.2297 
 6                    0     2.49827  -0.99318   1.08344 
 6                    0     1.05227  -0.46479   0.87721 
 1                    0     0.52713  -0.50956   1.86 
 7                    0     0.37445  -1.33755  -0.08282 
 6                    0    -0.87567  -1.15674  -0.35437 
 1                    0    -2.1421    2.08775   0.32645 
 1                    0     0.15735   2.73748   0.41093 
 1                    0     1.35834   0.47228  -1.72622 
 1                    0     1.99643   2.1009   -1.31503 
 1                    0     3.85356   0.45211  -1.80923 
 1                    0     3.94025   1.1232   -0.14206 
 1                    0     2.84464  -1.63819  -0.97117 
 1                    0     4.34489  -1.30884  -0.04351 
 1                    0     2.45614  -2.04116   1.4531 
 1                    0     3.01048  -0.38213   1.85586 
 1                    0    -1.38433  -1.94902  -0.92456 
 
 The following ModRedundant input section has been read:
 D       4       5       6       7 F                                           
 D       1       2       4      16 F                                           
 D       7      13      15      16 F                                           
 D       7       9      10      11 F                                           
 D       9      10      11      12 F                                           
 D       6       7      13      15 F                                           
 

 GradGradGradGradGradGradGradGradGradGradGradGradGradGradGradGradGradGrad
 Berny optimization.
 Initialization pass.
                           ----------------------------
                           !    Initial Parameters    !
                           ! (Angstroms and Degrees)  !
 --------------------------                            --------------------------
 ! Name  Definition              Value          Derivative Info.                !
 --------------------------------------------------------------------------------
 ! R1    R(1,2)                  1.2298         estimate D2E/DX2                !
 ! R2    R(2,3)                  1.2317         estimate D2E/DX2                !
 ! R3    R(2,4)                  1.5296         estimate D2E/DX2                !
 ! R4    R(4,5)                  1.3997         estimate D2E/DX2                !
 ! R5    R(4,16)                 1.4876         estimate D2E/DX2                !
 ! R6    R(5,6)                  1.3699         estimate D2E/DX2                !
 ! R7    R(5,17)                 1.1025         estimate D2E/DX2                !
 ! R8    R(6,7)                  1.493          estimate D2E/DX2                !
 ! R9    R(6,18)                 1.0228         estimate D2E/DX2                !
 ! R10   R(7,8)                  1.1209         estimate D2E/DX2                !
 ! R11   R(7,9)                  1.5491         estimate D2E/DX2                !
 ! R12   R(7,13)                 1.5351         estimate D2E/DX2                !
 ! R13   R(9,10)                 1.5407         estimate D2E/DX2                !
 ! R14   R(9,19)                 1.1108         estimate D2E/DX2                !
 ! R15   R(9,20)                 1.1107         estimate D2E/DX2                !
 ! R16   R(10,11)                1.537          estimate D2E/DX2                !
 ! R17   R(10,21)                1.112          estimate D2E/DX2                !
 ! R18   R(10,22)                1.1129         estimate D2E/DX2                !
 ! R19   R(11,12)                1.544          estimate D2E/DX2                !
 ! R20   R(11,23)                1.1134         estimate D2E/DX2                !
 ! R21   R(11,24)                1.1118         estimate D2E/DX2                !
 ! R22   R(12,13)                1.5533         estimate D2E/DX2                !
 ! R23   R(12,25)                1.1121         estimate D2E/DX2                !
 ! R24   R(12,26)                1.1101         estimate D2E/DX2                !
 ! R25   R(13,14)                1.1152         estimate D2E/DX2                !
 ! R26   R(13,15)                1.4638         estimate D2E/DX2                !
 ! R27   R(15,16)                1.292          estimate D2E/DX2                !
 ! R28   R(16,27)                1.1007         estimate D2E/DX2                !
 ! A1    A(1,2,3)              123.5693         estimate D2E/DX2                !
 ! A2    A(1,2,4)              117.712          estimate D2E/DX2                !
 ! A3    A(3,2,4)              118.717          estimate D2E/DX2                !
 ! A4    A(2,4,5)              116.212          estimate D2E/DX2                !
 ! A5    A(2,4,16)             116.4053         estimate D2E/DX2                !
 ! A6    A(5,4,16)             127.3014         estimate D2E/DX2                !
 ! A7    A(4,5,6)              126.2845         estimate D2E/DX2                !
 ! A8    A(4,5,17)             118.1804         estimate D2E/DX2                !
 ! A9    A(6,5,17)             115.3725         estimate D2E/DX2                !
 ! A10   A(5,6,7)              129.443          estimate D2E/DX2                !
 ! A11   A(5,6,18)             120.5315         estimate D2E/DX2                !
 ! A12   A(7,6,18)             106.7819         estimate D2E/DX2                !
 ! A13   A(6,7,8)              105.4465         estimate D2E/DX2                !
 ! A14   A(6,7,9)              115.1472         estimate D2E/DX2                !
 ! A15   A(6,7,13)             112.3649         estimate D2E/DX2                !
 ! A16   A(8,7,9)              106.1689         estimate D2E/DX2                !
 ! A17   A(8,7,13)             106.0338         estimate D2E/DX2                !
 ! A18   A(9,7,13)             110.9033         estimate D2E/DX2                !
 ! A19   A(7,9,10)             109.3803         estimate D2E/DX2                !
 ! A20   A(7,9,19)             110.159          estimate D2E/DX2                !
 ! A21   A(7,9,20)             110.1536         estimate D2E/DX2                !
 ! A22   A(10,9,19)            109.975          estimate D2E/DX2                !
 ! A23   A(10,9,20)            109.1838         estimate D2E/DX2                !
 ! A24   A(19,9,20)            107.9682         estimate D2E/DX2                !
 ! A25   A(9,10,11)            111.1703         estimate D2E/DX2                !
 ! A26   A(9,10,21)            109.9423         estimate D2E/DX2                !
 ! A27   A(9,10,22)            109.1535         estimate D2E/DX2                !
 ! A28   A(11,10,21)           109.7865         estimate D2E/DX2                !
 ! A29   A(11,10,22)           108.7832         estimate D2E/DX2                !
 ! A30   A(21,10,22)           107.9347         estimate D2E/DX2                !
 ! A31   A(10,11,12)           111.4225         estimate D2E/DX2                !
 ! A32   A(10,11,23)           108.9994         estimate D2E/DX2                !
 ! A33   A(10,11,24)           109.854          estimate D2E/DX2                !
 ! A34   A(12,11,23)           109.2537         estimate D2E/DX2                !
 ! A35   A(12,11,24)           109.738          estimate D2E/DX2                !
 ! A36   A(23,11,24)           107.4835         estimate D2E/DX2                !
 ! A37   A(11,12,13)           111.4981         estimate D2E/DX2                !
 ! A38   A(11,12,25)           109.2183         estimate D2E/DX2                !
 ! A39   A(11,12,26)           109.5053         estimate D2E/DX2                !
 ! A40   A(13,12,25)           109.2349         estimate D2E/DX2                !
 ! A41   A(13,12,26)           109.5525         estimate D2E/DX2                !
 ! A42   A(25,12,26)           107.7525         estimate D2E/DX2                !
 ! A43   A(7,13,12)            105.7494         estimate D2E/DX2                !
 ! A44   A(7,13,14)            110.9092         estimate D2E/DX2                !
 ! A45   A(7,13,15)            113.9832         estimate D2E/DX2                !
 ! A46   A(12,13,14)           107.9214         estimate D2E/DX2                !
 ! A47   A(12,13,15)           108.3803         estimate D2E/DX2                !
 ! A48   A(14,13,15)           109.6326         estimate D2E/DX2                !
 ! A49   A(13,15,16)           120.1618         estimate D2E/DX2                !
 ! A50   A(4,16,15)            129.6451         estimate D2E/DX2                !
 ! A51   A(4,16,27)            113.2351         estimate D2E/DX2                !
 ! A52   A(15,16,27)           117.0836         estimate D2E/DX2                !
 ! D1    D(1,2,4,5)           -174.7787         estimate D2E/DX2                !
 ! D2    D(1,2,4,16)             8.2579         Frozen                          !
 ! D3    D(3,2,4,5)              5.6898         estimate D2E/DX2                !
 ! D4    D(3,2,4,16)          -171.2736         estimate D2E/DX2                !
 ! D5    D(2,4,5,6)            172.3319         estimate D2E/DX2                !
 ! D6    D(2,4,5,17)            -2.8008         estimate D2E/DX2                !
 ! D7    D(16,4,5,6)           -11.0877         estimate D2E/DX2                !
 ! D8    D(16,4,5,17)          173.7797         estimate D2E/DX2                !
 ! D9    D(2,4,16,15)         -161.9907         estimate D2E/DX2                !
 ! D10   D(2,4,16,27)           20.2939         estimate D2E/DX2                !
 ! D11   D(5,4,16,15)           21.4345         estimate D2E/DX2                !
 ! D12   D(5,4,16,27)         -156.2808         estimate D2E/DX2                !
 ! D13   D(4,5,6,7)              6.1891         Frozen                          !
 ! D14   D(4,5,6,18)           163.0067         estimate D2E/DX2                !
 ! D15   D(17,5,6,7)          -178.5591         estimate D2E/DX2                !
 ! D16   D(17,5,6,18)          -21.7415         estimate D2E/DX2                !
 ! D17   D(5,6,7,8)           -151.9918         estimate D2E/DX2                !
 ! D18   D(5,6,7,9)             91.337          estimate D2E/DX2                !
 ! D19   D(5,6,7,13)           -36.9326         estimate D2E/DX2                !
 ! D20   D(18,6,7,8)            48.7503         estimate D2E/DX2                !
 ! D21   D(18,6,7,9)           -67.9209         estimate D2E/DX2                !
 ! D22   D(18,6,7,13)          163.8095         estimate D2E/DX2                !
 ! D23   D(6,7,9,10)           168.9618         estimate D2E/DX2                !
 ! D24   D(6,7,9,19)           -70.0474         estimate D2E/DX2                !
 ! D25   D(6,7,9,20)            48.9512         estimate D2E/DX2                !
 ! D26   D(8,7,9,10)            52.7014         estimate D2E/DX2                !
 ! D27   D(8,7,9,19)           173.6923         estimate D2E/DX2                !
 ! D28   D(8,7,9,20)           -67.3091         estimate D2E/DX2                !
 ! D29   D(13,7,9,10)          -62.0433         estimate D2E/DX2                !
 ! D30   D(13,7,9,19)           58.9476         estimate D2E/DX2                !
 ! D31   D(13,7,9,20)          177.9462         estimate D2E/DX2                !
 ! D32   D(6,7,13,12)         -166.0277         estimate D2E/DX2                !
 ! D33   D(6,7,13,14)          -49.2842         estimate D2E/DX2                !
 ! D34   D(6,7,13,15)           75.0225         Frozen                          !
 ! D35   D(8,7,13,12)          -51.3253         estimate D2E/DX2                !
 ! D36   D(8,7,13,14)           65.4181         estimate D2E/DX2                !
 ! D37   D(8,7,13,15)         -170.2751         estimate D2E/DX2                !
 ! D38   D(9,7,13,12)           63.5038         estimate D2E/DX2                !
 ! D39   D(9,7,13,14)         -179.7527         estimate D2E/DX2                !
 ! D40   D(9,7,13,15)          -55.446          estimate D2E/DX2                !
 ! D41   D(7,9,10,11)           54.8121         Frozen                          !
 ! D42   D(7,9,10,21)          176.594          estimate D2E/DX2                !
 ! D43   D(7,9,10,22)          -65.1904         estimate D2E/DX2                !
 ! D44   D(19,9,10,11)         -66.2904         estimate D2E/DX2                !
 ! D45   D(19,9,10,21)          55.4915         estimate D2E/DX2                !
 ! D46   D(19,9,10,22)         173.7071         estimate D2E/DX2                !
 ! D47   D(20,9,10,11)         175.4157         estimate D2E/DX2                !
 ! D48   D(20,9,10,21)         -62.8024         estimate D2E/DX2                !
 ! D49   D(20,9,10,22)          55.4132         estimate D2E/DX2                !
 ! D50   D(9,10,11,12)         -52.8224         Frozen                          !
 ! D51   D(9,10,11,23)          67.8232         estimate D2E/DX2                !
 ! D52   D(9,10,11,24)        -174.651          estimate D2E/DX2                !
 ! D53   D(21,10,11,12)       -174.6949         estimate D2E/DX2                !
 ! D54   D(21,10,11,23)        -54.0494         estimate D2E/DX2                !
 ! D55   D(21,10,11,24)         63.4764         estimate D2E/DX2                !
 ! D56   D(22,10,11,12)         67.3996         estimate D2E/DX2                !
 ! D57   D(22,10,11,23)       -171.9549         estimate D2E/DX2                !
 ! D58   D(22,10,11,24)        -54.4291         estimate D2E/DX2                !
 ! D59   D(10,11,12,13)         56.6639         estimate D2E/DX2                !
 ! D60   D(10,11,12,25)        177.4794         estimate D2E/DX2                !
 ! D61   D(10,11,12,26)        -64.743          estimate D2E/DX2                !
 ! D62   D(23,11,12,13)        -63.8323         estimate D2E/DX2                !
 ! D63   D(23,11,12,25)         56.9831         estimate D2E/DX2                !
 ! D64   D(23,11,12,26)        174.7607         estimate D2E/DX2                !
 ! D65   D(24,11,12,13)        178.5597         estimate D2E/DX2                !
 ! D66   D(24,11,12,25)        -60.6248         estimate D2E/DX2                !
 ! D67   D(24,11,12,26)         57.1528         estimate D2E/DX2                !
 ! D68   D(11,12,13,7)         -60.508          estimate D2E/DX2                !
 ! D69   D(11,12,13,14)       -179.2537         estimate D2E/DX2                !
 ! D70   D(11,12,13,15)         62.0895         estimate D2E/DX2                !
 ! D71   D(25,12,13,7)         178.6863         estimate D2E/DX2                !
 ! D72   D(25,12,13,14)         59.9406         estimate D2E/DX2                !
 ! D73   D(25,12,13,15)        -58.7163         estimate D2E/DX2                !
 ! D74   D(26,12,13,7)          60.8715         estimate D2E/DX2                !
 ! D75   D(26,12,13,14)        -57.8742         estimate D2E/DX2                !
 ! D76   D(26,12,13,15)       -176.531          estimate D2E/DX2                !
 ! D77   D(7,13,15,16)         -67.1608         Frozen                          !
 ! D78   D(12,13,15,16)        175.396          estimate D2E/DX2                !
 ! D79   D(14,13,15,16)         57.8282         estimate D2E/DX2                !
 ! D80   D(13,15,16,4)          13.9454         estimate D2E/DX2                !
 ! D81   D(13,15,16,27)       -168.4125         estimate D2E/DX2                !
 --------------------------------------------------------------------------------
 Trust Radius=3.00D-01 FncErr=1.00D-07 GrdErr=1.00D-07 EigMax=2.50D+02 EigMin=1.00D-04
 Number of steps in this run=     20 maximum allowed number of steps=    162.
 GradGradGradGradGradGradGradGradGradGradGradGradGradGradGradGradGradGrad

                          Input orientation:                          
 ---------------------------------------------------------------------
 Center     Atomic      Atomic             Coordinates (Angstroms)
 Number     Number       Type             X           Y           Z
 ---------------------------------------------------------------------
      1          8           0       -3.641910   -1.407990   -0.260470
      2          7           0       -3.261720   -0.247070   -0.118200
      3          8           0       -4.026570    0.714890   -0.036560
      4          6           0       -1.754460    0.004650   -0.051260
      5          6           0       -1.358740    1.318730    0.223960
      6          7           0       -0.081320    1.744950    0.475100
      7          6           0        1.203000    0.987170    0.402230
      8          1           0        1.885440    1.484740    1.139210
      9          6           0        1.926980    1.048810   -0.965890
     10          6           0        3.346960    0.469200   -0.819470
     11          6           0        3.309260   -0.949660   -0.229700
     12          6           0        2.498270   -0.993180    1.083440
     13          6           0        1.052270   -0.464790    0.877210
     14          1           0        0.527130   -0.509560    1.860000
     15          7           0        0.374450   -1.337550   -0.082820
     16          6           0       -0.875670   -1.156740   -0.354370
     17          1           0       -2.142100    2.087750    0.326450
     18          1           0        0.157350    2.737480    0.410930
     19          1           0        1.358340    0.472280   -1.726220
     20          1           0        1.996430    2.100900   -1.315030
     21          1           0        3.853560    0.452110   -1.809230
     22          1           0        3.940250    1.123200   -0.142060
     23          1           0        2.844640   -1.638190   -0.971170
     24          1           0        4.344890   -1.308840   -0.043510
     25          1           0        2.456140   -2.041160    1.453100
     26          1           0        3.010480   -0.382130    1.855860
     27          1           0       -1.384330   -1.949020   -0.924560
 ---------------------------------------------------------------------
                    Distance matrix (angstroms):
                    1          2          3          4          5
     1  O    0.000000
     2  N    1.229846   0.000000
     3  O    2.169036   1.231677   0.000000
     4  C    2.366810   1.529600   2.380576   0.000000
     5  C    3.589225   2.487998   2.747692   1.399695   0.000000
     6  N    4.812473   3.799354   4.109479   2.470849   1.369867
     7  C    5.445100   4.661322   5.255005   3.149217   2.589252
     8  H    6.393637   5.574361   6.076756   4.105698   3.374899
     9  C    6.127481   5.414840   6.034891   3.934440   3.504933
    10  C    7.258142   6.684271   7.419047   5.179811   4.894288
    11  C    6.966332   6.609375   7.524788   5.155949   5.209762
    12  C    6.299204   5.931113   6.837064   4.513194   4.578227
    13  C    4.921308   4.432691   5.293509   2.993353   3.069307
    14  H    4.762821   4.282238   5.082559   3.020427   3.094475
    15  N    4.020904   3.796331   4.856298   2.516894   3.186516
    16  C    2.779213   2.564471   3.678610   1.487607   2.587619
    17  H    3.848909   2.627289   2.359608   2.152263   1.102519
    18  H    5.663045   4.569197   4.668651   3.367046   2.084787
    19  H    5.539525   4.944507   5.648988   3.565627   3.449957
    20  H    6.724231   5.881624   6.311263   4.478901   3.773254
    21  H    7.876592   7.346812   8.081328   5.894113   5.661534
    22  H    7.994379   7.331206   7.977974   5.804233   5.315214
    23  H    6.529427   6.320633   7.322842   4.969595   5.276373
    24  H    7.990361   7.680719   8.612600   6.239182   6.285464
    25  H    6.365802   6.195294   7.200030   4.917071   5.230005
    26  H    7.055886   6.576903   7.369178   5.146976   4.964484
    27  H    2.414621   2.659219   3.855696   2.171745   3.463805
                    6          7          8          9         10
     6  N    0.000000
     7  C    1.492990   0.000000
     8  H    2.092103   1.120910   0.000000
     9  C    2.567943   1.549096   2.150164   0.000000
    10  C    3.880277   2.521390   2.646467   1.540691   0.000000
    11  C    4.387904   2.930354   3.134881   2.539007   1.537015
    12  C    3.810737   2.462429   2.553186   2.948872   2.545564
    13  C    2.515883   1.535094   2.136231   2.540299   3.002776
    14  H    2.714954   2.195927   2.518288   3.517634   4.011106
    15  N    3.165566   2.515172   3.426626   2.980751   3.555674
    16  C    3.120708   3.080530   4.102673   3.618460   4.548692
    17  H    2.094379   3.522316   4.152743   4.393968   5.836319
    18  H    1.022838   2.038883   2.255226   2.806925   4.102754
    19  H    2.922006   2.195345   3.084412   1.110784   2.185592
    20  H    2.765558   2.195201   2.532838   1.110682   2.175306
    21  H    4.729998   3.493181   3.692305   2.186089   1.112007
    22  H    4.115882   2.794153   2.448389   2.176577   1.112921
    23  H    4.700912   3.387289   3.889275   2.839383   2.171735
    24  H    5.402400   3.916863   3.905357   3.500798   2.181606
    25  H    4.661525   3.441725   3.585554   3.959727   3.501434
    26  H    3.998774   2.693512   2.294451   3.344224   2.827609
    27  H    4.159603   4.132295   5.171194   4.466930   5.314503
                   11         12         13         14         15
    11  C    0.000000
    12  C    1.544000   0.000000
    13  C    2.560147   1.553268   0.000000
    14  H    3.507247   2.173091   1.115192   0.000000
    15  N    2.963974   2.447318   1.463833   2.117411   0.000000
    16  C    4.191905   3.671174   2.390091   2.700023   1.291987
    17  H    6.265181   5.621227   4.125869   4.027727   4.270036
    18  H    4.892846   4.455334   3.357504   3.574886   4.110571
    19  H    2.840348   3.367670   2.783815   3.809973   2.635202
    20  H    3.493906   3.946876   3.504300   4.365107   3.996511
    21  H    2.180857   3.506168   3.988094   5.045116   4.276398
    22  H    2.168543   2.839053   3.449790   4.280600   4.332866
    23  H    1.113429   2.181154   2.829482   3.828862   2.642232
    24  H    1.111848   2.186244   3.521575   4.340218   3.970738
    25  H    2.179679   1.112064   2.188023   2.496487   2.680961
    26  H    2.181953   1.110123   2.190702   2.486621   3.408806
    27  H    4.848849   4.474402   3.374364   3.671444   2.043460
                   16         17         18         19         20
    16  C    0.000000
    17  H    3.548813   0.000000
    18  H    4.100947   2.390974   0.000000
    19  H    3.086500   4.367640   3.337801   0.000000
    20  H    4.447926   4.452197   2.601228   1.796841   0.000000
    21  H    5.202945   6.571483   4.879958   2.496682   2.532128
    22  H    5.332569   6.176151   4.149943   3.098309   2.471880
    23  H    3.801703   6.358775   5.317727   2.689474   3.849480
    24  H    5.232018   7.331762   5.840780   3.863079   4.331092
    25  H    3.892314   6.281803   5.404253   4.198883   5.003053
    26  H    4.537323   5.915106   4.467677   4.036196   4.153105
    27  H    1.100709   4.293571   5.111124   3.745343   5.289977
                   21         22         23         24         25
    21  H    0.000000
    22  H    1.799259   0.000000
    23  H    2.467715   3.084325   0.000000
    24  H    2.541676   2.467441   1.794373   0.000000
    25  H    4.337277   3.841913   2.488052   2.518633   0.000000
    26  H    3.852223   2.668740   3.097949   2.499410   1.794962
    27  H    5.829542   6.196934   4.240634   5.831813   4.517850
                   26         27
    26  H    0.000000
    27  H    5.431412   0.000000
 Symmetry turned off by external request.
 Stoichiometry    C9H13N3O2
 Framework group  C1[X(C9H13N3O2)]
 Deg. of freedom    75
 Full point group                 C1      NOp   1
 Rotational constants (GHZ):           1.6647665           0.3997632           0.3551265
 Standard basis: 6-31G(d) (6D, 7F)
   236 basis functions,   444 primitive gaussians,   236 cartesian basis functions
    52 alpha electrons       52 beta electrons
       nuclear repulsion energy       917.0471894329 Hartrees.
 NAtoms=   27 NActive=   27 NUniq=   27 SFac= 1.00D+00 NAtFMM=   60 NAOKFM=F Big=F
 Integral buffers will be    131072 words long.
 Raffenetti 1 integral format.
 Two-electron integral symmetry is turned off.
 One-electron integrals computed using PRISM.
 NBasis=   236 RedAO= T EigKep=  1.27D-03  NBF=   236
 NBsUse=   236 1.00D-06 EigRej= -1.00D+00 NBFU=   236
 ExpMin= 1.61D-01 ExpMax= 5.48D+03 ExpMxC= 8.25D+02 IAcc=3 IRadAn=         5 AccDes= 0.00D+00
 Harris functional with IExCor=  205 and IRadAn=       5 diagonalized for initial guess.
 HarFok:  IExCor=  205 AccDes= 0.00D+00 IRadAn=         5 IDoV= 1 UseB2=F ITyADJ=14
 ICtDFT=  3500011 ScaDFX=  1.000000  1.000000  1.000000  1.000000
 FoFCou: FMM=F IPFlag=           0 FMFlag=      100000 FMFlg1=           0
         NFxFlg=           0 DoJE=T BraDBF=F KetDBF=T FulRan=T
         wScrn=  0.000000 ICntrl=       500 IOpCl=  0 I1Cent=   200000004 NGrid=           0
         NMat0=    1 NMatS0=      1 NMatT0=    0 NMatD0=    1 NMtDS0=    0 NMtDT0=    0
 Symmetry not used in FoFCou.
 Keep R1 ints in memory in canonical form, NReq=397720213.
 Requested convergence on RMS density matrix=1.00D-08 within 128 cycles.
 Requested convergence on MAX density matrix=1.00D-06.
 Requested convergence on             energy=1.00D-06.
 No special actions if energy rises.
 SCF Done:  E(RHF) =  -661.282087543     A.U. after   16 cycles
            NFock= 16  Conv=0.69D-08     -V/T= 2.0037
 ExpMin= 1.61D-01 ExpMax= 5.48D+03 ExpMxC= 8.25D+02 IAcc=3 IRadAn=         5 AccDes= 0.00D+00
 HarFok:  IExCor=  205 AccDes= 0.00D+00 IRadAn=         5 IDoV=-2 UseB2=F ITyADJ=14
 ICtDFT= 12500011 ScaDFX=  1.000000  1.000000  1.000000  1.000000
 Range of M.O.s used for correlation:    15   236
 NBasis=   236 NAE=    52 NBE=    52 NFC=    14 NFV=     0
 NROrb=    222 NOA=    38 NOB=    38 NVA=   184 NVB=   184
 Fully direct method using O(ONN) memory.
 JobTyp=1 Pass  1:  I=  15 to  52 NPSUse=  4 ParTrn=T ParDer=T DoDerP=T.
 Spin components of T(2) and E(2):
     alpha-alpha T2 =       0.9202466431D-01 E2=     -0.2718258255D+00
     alpha-beta  T2 =       0.4994540500D+00 E2=     -0.1493541361D+01
     beta-beta   T2 =       0.9202466431D-01 E2=     -0.2718258255D+00
 ANorm=    0.1297498893D+01
 E2 =    -0.2037193013D+01 EUMP2 =    -0.66331928055532D+03
          IDoAtm=111111111111111111111111111
          Differentiating once with respect to electric field.
                with respect to dipole field.
          Differentiating once with respect to nuclear coordinates.
 Keep R1 ints in memory in canonical form, NReq=397723379.
          There are     1 degrees of freedom in the 1st order CPHF.  IDoFFX=0 NUNeed=     1.
 LinEq1:  Iter=  0 NonCon=     1 RMS=4.63D-03 Max=1.15D-01 NDo=     1
 AX will form     1 AO Fock derivatives at one time.
 LinEq1:  Iter=  1 NonCon=     1 RMS=1.57D-03 Max=3.01D-02 NDo=     1
 LinEq1:  Iter=  2 NonCon=     1 RMS=6.44D-04 Max=1.85D-02 NDo=     1
 LinEq1:  Iter=  3 NonCon=     1 RMS=2.94D-04 Max=9.35D-03 NDo=     1
 LinEq1:  Iter=  4 NonCon=     1 RMS=9.10D-05 Max=2.20D-03 NDo=     1
 LinEq1:  Iter=  5 NonCon=     1 RMS=3.76D-05 Max=1.84D-03 NDo=     1
 LinEq1:  Iter=  6 NonCon=     1 RMS=1.54D-05 Max=5.70D-04 NDo=     1
 LinEq1:  Iter=  7 NonCon=     1 RMS=5.88D-06 Max=9.25D-05 NDo=     1
 LinEq1:  Iter=  8 NonCon=     1 RMS=2.33D-06 Max=5.54D-05 NDo=     1
 LinEq1:  Iter=  9 NonCon=     1 RMS=8.56D-07 Max=2.44D-05 NDo=     1
 LinEq1:  Iter= 10 NonCon=     1 RMS=4.18D-07 Max=1.46D-05 NDo=     1
 LinEq1:  Iter= 11 NonCon=     1 RMS=1.51D-07 Max=5.68D-06 NDo=     1
 LinEq1:  Iter= 12 NonCon=     1 RMS=5.30D-08 Max=8.26D-07 NDo=     1
 LinEq1:  Iter= 13 NonCon=     1 RMS=1.64D-08 Max=2.94D-07 NDo=     1
 LinEq1:  Iter= 14 NonCon=     1 RMS=4.87D-09 Max=7.83D-08 NDo=     1
 LinEq1:  Iter= 15 NonCon=     1 RMS=1.71D-09 Max=3.38D-08 NDo=     1
 LinEq1:  Iter= 16 NonCon=     1 RMS=6.61D-10 Max=1.10D-08 NDo=     1
 LinEq1:  Iter= 17 NonCon=     1 RMS=2.23D-10 Max=3.61D-09 NDo=     1
 LinEq1:  Iter= 18 NonCon=     1 RMS=7.96D-11 Max=1.07D-09 NDo=     1
 LinEq1:  Iter= 19 NonCon=     0 RMS=2.71D-11 Max=4.42D-10 NDo=     1
 Linear equations converged to 1.000D-10 1.000D-09 after    19 iterations.
 End of Minotr F.D. properties file   721 does not exist.
 End of Minotr F.D. properties file   722 does not exist.
 End of Minotr F.D. properties file   788 does not exist.

 **********************************************************************

            Population analysis using the SCF Density.

 **********************************************************************

 Alpha  occ. eigenvalues --  -20.59760 -20.59349 -15.85247 -15.63745 -15.56492
 Alpha  occ. eigenvalues --  -11.35976 -11.30424 -11.30130 -11.30030 -11.27604
 Alpha  occ. eigenvalues --  -11.24683 -11.23915 -11.23350 -11.22853  -1.58432
 Alpha  occ. eigenvalues --   -1.37926  -1.28822  -1.22616  -1.13304  -1.08387
 Alpha  occ. eigenvalues --   -1.01796  -1.00724  -0.93671  -0.88939  -0.84952
 Alpha  occ. eigenvalues --   -0.81535  -0.77970  -0.77040  -0.74367  -0.71217
 Alpha  occ. eigenvalues --   -0.70254  -0.69754  -0.67361  -0.64281  -0.63251
 Alpha  occ. eigenvalues --   -0.61838  -0.60022  -0.57382  -0.56578  -0.54846
 Alpha  occ. eigenvalues --   -0.53938  -0.50645  -0.49656  -0.48486  -0.47882
 Alpha  occ. eigenvalues --   -0.47691  -0.46243  -0.45612  -0.43991  -0.42088
 Alpha  occ. eigenvalues --   -0.39547  -0.33687
 Alpha virt. eigenvalues --    0.07515   0.11787   0.17676   0.21386   0.23481
 Alpha virt. eigenvalues --    0.24461   0.26421   0.28019   0.28528   0.28866
 Alpha virt. eigenvalues --    0.29820   0.31197   0.31799   0.32350   0.33280
 Alpha virt. eigenvalues --    0.33854   0.34378   0.35528   0.37603   0.38618
 Alpha virt. eigenvalues --    0.40473   0.41432   0.44082   0.45197   0.45485
 Alpha virt. eigenvalues --    0.46615   0.49790   0.53175   0.57468   0.58960
 Alpha virt. eigenvalues --    0.63334   0.68762   0.69286   0.72288   0.74067
 Alpha virt. eigenvalues --    0.74861   0.75644   0.75843   0.78099   0.78796
 Alpha virt. eigenvalues --    0.80643   0.83421   0.84660   0.85393   0.87837
 Alpha virt. eigenvalues --    0.88839   0.90455   0.90703   0.91982   0.93908
 Alpha virt. eigenvalues --    0.94953   0.97258   0.99172   1.00616   1.01997
 Alpha virt. eigenvalues --    1.02817   1.05010   1.06501   1.07064   1.08703
 Alpha virt. eigenvalues --    1.09703   1.10498   1.11636   1.12291   1.13210
 Alpha virt. eigenvalues --    1.13814   1.14050   1.15603   1.16086   1.17035
 Alpha virt. eigenvalues --    1.18047   1.20158   1.21499   1.22267   1.23188
 Alpha virt. eigenvalues --    1.23545   1.24553   1.25191   1.26854   1.27737
 Alpha virt. eigenvalues --    1.29178   1.31654   1.33529   1.36515   1.39342
 Alpha virt. eigenvalues --    1.42452   1.47340   1.47682   1.50467   1.53240
 Alpha virt. eigenvalues --    1.56136   1.56981   1.59508   1.61626   1.66015
 Alpha virt. eigenvalues --    1.68092   1.70408   1.71699   1.73453   1.76359
 Alpha virt. eigenvalues --    1.78219   1.81008   1.84429   1.88993   1.91527
 Alpha virt. eigenvalues --    1.93835   1.96061   1.97600   1.99252   2.00925
 Alpha virt. eigenvalues --    2.02920   2.03518   2.06097   2.09202   2.11846
 Alpha virt. eigenvalues --    2.12395   2.13307   2.17495   2.18618   2.19633
 Alpha virt. eigenvalues --    2.20281   2.22074   2.23844   2.25082   2.26003
 Alpha virt. eigenvalues --    2.29535   2.31949   2.32874   2.35454   2.36254
 Alpha virt. eigenvalues --    2.39583   2.40130   2.42128   2.43730   2.46617
 Alpha virt. eigenvalues --    2.48752   2.50109   2.50562   2.56416   2.57216
 Alpha virt. eigenvalues --    2.60566   2.63592   2.65525   2.68403   2.68953
 Alpha virt. eigenvalues --    2.69328   2.69865   2.74423   2.76375   2.81142
 Alpha virt. eigenvalues --    2.84689   2.86700   2.90037   2.91190   2.94782
 Alpha virt. eigenvalues --    2.97463   2.98248   3.02128   3.04696   3.05831
 Alpha virt. eigenvalues --    3.07403   3.13802   3.18457   3.22884   3.27113
 Alpha virt. eigenvalues --    3.31625   3.33701   3.37673   3.43049   3.60401
 Alpha virt. eigenvalues --    4.10411   4.23453   4.31867   4.36717   4.43510
 Alpha virt. eigenvalues --    4.52385   4.59485   4.60403   4.70691   4.77926
 Alpha virt. eigenvalues --    4.96774   4.99244   5.03256   5.09805
          Condensed to atoms (all electrons):
               1          2          3          4          5          6
     1  O    8.300739   0.312666  -0.090001  -0.078869   0.003575  -0.000011
     2  N    0.312666   5.678819   0.310113   0.266925  -0.047499   0.000757
     3  O   -0.090001   0.310113   8.331755  -0.087994   0.007899   0.000471
     4  C   -0.078869   0.266925  -0.087994   5.251488   0.566050  -0.048669
     5  C    0.003575  -0.047499   0.007899   0.566050   4.676985   0.309801
     6  N   -0.000011   0.000757   0.000471  -0.048669   0.309801   7.170683
     7  C    0.000002  -0.000091   0.000002   0.004938  -0.028841   0.202191
     8  H   -0.000000   0.000001  -0.000000  -0.000247   0.002847  -0.047441
     9  C   -0.000000  -0.000003   0.000000   0.000572   0.000910  -0.057387
    10  C   -0.000000   0.000000  -0.000000  -0.000023  -0.000043   0.003366
    11  C   -0.000000  -0.000000  -0.000000  -0.000011   0.000014  -0.000155
    12  C   -0.000000   0.000001  -0.000000  -0.000180  -0.000153   0.003703
    13  C   -0.000015  -0.000010  -0.000002  -0.009033   0.000261  -0.048349
    14  H   -0.000001  -0.000053   0.000000   0.002530   0.003849  -0.005455
    15  N    0.000281   0.001594  -0.000012  -0.062052  -0.003553   0.001722
    16  C    0.002823  -0.025153   0.002018   0.315180  -0.042245  -0.000307
    17  H    0.000141  -0.004492   0.012716  -0.024922   0.375444  -0.033045
    18  H    0.000000  -0.000034   0.000007   0.001377  -0.025580   0.329647
    19  H    0.000000  -0.000001   0.000000  -0.000940   0.001021   0.000209
    20  H    0.000000  -0.000000   0.000000  -0.000027   0.000017  -0.001111
    21  H   -0.000000  -0.000000  -0.000000   0.000000   0.000001  -0.000061
    22  H   -0.000000   0.000000  -0.000000  -0.000000  -0.000002  -0.000094
    23  H    0.000000  -0.000000   0.000000   0.000025  -0.000001  -0.000024
    24  H    0.000000   0.000000   0.000000   0.000000  -0.000000   0.000005
    25  H    0.000000  -0.000000   0.000000   0.000020  -0.000001  -0.000073
    26  H    0.000000  -0.000000   0.000000   0.000005  -0.000000  -0.000071
    27  H    0.005919  -0.000308   0.000021  -0.067658   0.002027   0.000012
               7          8          9         10         11         12
     1  O    0.000002  -0.000000  -0.000000  -0.000000  -0.000000  -0.000000
     2  N   -0.000091   0.000001  -0.000003   0.000000  -0.000000   0.000001
     3  O    0.000002  -0.000000   0.000000  -0.000000  -0.000000  -0.000000
     4  C    0.004938  -0.000247   0.000572  -0.000023  -0.000011  -0.000180
     5  C   -0.028841   0.002847   0.000910  -0.000043   0.000014  -0.000153
     6  N    0.202191  -0.047441  -0.057387   0.003366  -0.000155   0.003703
     7  C    5.023312   0.414697   0.342113  -0.049395  -0.007872  -0.064933
     8  H    0.414697   0.543747  -0.058836   0.001153  -0.000274  -0.002964
     9  C    0.342113  -0.058836   5.177972   0.318598  -0.053302  -0.005820
    10  C   -0.049395   0.001153   0.318598   5.126830   0.332669  -0.060427
    11  C   -0.007872  -0.000274  -0.053302   0.332669   5.124665   0.330404
    12  C   -0.064933  -0.002964  -0.005820  -0.060427   0.330404   5.139046
    13  C    0.325256  -0.038846  -0.053119  -0.001241  -0.047662   0.368810
    14  H   -0.040619  -0.000948   0.003826  -0.000389   0.003967  -0.040974
    15  N   -0.059206   0.003967  -0.012437   0.001354  -0.007664  -0.074979
    16  C   -0.001772  -0.000024  -0.000615  -0.000048   0.000002   0.002283
    17  H    0.001405  -0.000028  -0.000066   0.000001   0.000000   0.000001
    18  H   -0.029634  -0.003402   0.000878  -0.000114   0.000011  -0.000147
    19  H   -0.035213   0.004018   0.387062  -0.032830  -0.002190   0.000583
    20  H   -0.041937  -0.001833   0.397125  -0.037137   0.004128  -0.000375
    21  H    0.004068  -0.000076  -0.035842   0.400063  -0.035782   0.004222
    22  H   -0.004363   0.003516  -0.045683   0.395917  -0.045602  -0.001209
    23  H    0.000461   0.000034  -0.002010  -0.040112   0.396614  -0.036569
    24  H   -0.000143  -0.000102   0.004405  -0.038502   0.400322  -0.037851
    25  H    0.005065  -0.000011  -0.000377   0.004099  -0.033777   0.395073
    26  H   -0.004443   0.001521   0.001079  -0.002424  -0.042433   0.394501
    27  H   -0.000400   0.000008  -0.000055   0.000004   0.000006  -0.000020
              13         14         15         16         17         18
     1  O   -0.000015  -0.000001   0.000281   0.002823   0.000141   0.000000
     2  N   -0.000010  -0.000053   0.001594  -0.025153  -0.004492  -0.000034
     3  O   -0.000002   0.000000  -0.000012   0.002018   0.012716   0.000007
     4  C   -0.009033   0.002530  -0.062052   0.315180  -0.024922   0.001377
     5  C    0.000261   0.003849  -0.003553  -0.042245   0.375444  -0.025580
     6  N   -0.048349  -0.005455   0.001722  -0.000307  -0.033045   0.329647
     7  C    0.325256  -0.040619  -0.059206  -0.001772   0.001405  -0.029634
     8  H   -0.038846  -0.000948   0.003967  -0.000024  -0.000028  -0.003402
     9  C   -0.053119   0.003826  -0.012437  -0.000615  -0.000066   0.000878
    10  C   -0.001241  -0.000389   0.001354  -0.000048   0.000001  -0.000114
    11  C   -0.047662   0.003967  -0.007664   0.000002   0.000000   0.000011
    12  C    0.368810  -0.040974  -0.074979   0.002283   0.000001  -0.000147
    13  C    5.019656   0.404790   0.242696  -0.068550  -0.000052   0.003922
    14  H    0.404790   0.517451  -0.035359  -0.005202   0.000040  -0.000001
    15  N    0.242696  -0.035359   6.945921   0.588501  -0.000047  -0.000122
    16  C   -0.068550  -0.005202   0.588501   4.697304   0.001627  -0.000199
    17  H   -0.000052   0.000040  -0.000047   0.001627   0.382968  -0.002247
    18  H    0.003922  -0.000001  -0.000122  -0.000199  -0.002247   0.326889
    19  H   -0.006015   0.000063   0.006754   0.002395   0.000012  -0.000129
    20  H    0.003908  -0.000051   0.000083  -0.000035  -0.000004   0.002481
    21  H   -0.000396   0.000009  -0.000033   0.000002  -0.000000   0.000000
    22  H    0.000315  -0.000043   0.000005  -0.000001   0.000000   0.000002
    23  H   -0.005976   0.000008   0.006880   0.000082   0.000000   0.000000
    24  H    0.004152  -0.000059   0.000035   0.000005   0.000000  -0.000000
    25  H   -0.034298  -0.002670   0.001022  -0.000062  -0.000000   0.000003
    26  H   -0.045047  -0.000884   0.004226  -0.000041   0.000000  -0.000001
    27  H    0.004837  -0.000163  -0.040329   0.403541  -0.000061   0.000001
              19         20         21         22         23         24
     1  O    0.000000   0.000000  -0.000000  -0.000000   0.000000   0.000000
     2  N   -0.000001  -0.000000  -0.000000   0.000000  -0.000000   0.000000
     3  O    0.000000   0.000000  -0.000000  -0.000000   0.000000   0.000000
     4  C   -0.000940  -0.000027   0.000000  -0.000000   0.000025   0.000000
     5  C    0.001021   0.000017   0.000001  -0.000002  -0.000001  -0.000000
     6  N    0.000209  -0.001111  -0.000061  -0.000094  -0.000024   0.000005
     7  C   -0.035213  -0.041937   0.004068  -0.004363   0.000461  -0.000143
     8  H    0.004018  -0.001833  -0.000076   0.003516   0.000034  -0.000102
     9  C    0.387062   0.397125  -0.035842  -0.045683  -0.002010   0.004405
    10  C   -0.032830  -0.037137   0.400063   0.395917  -0.040112  -0.038502
    11  C   -0.002190   0.004128  -0.035782  -0.045602   0.396614   0.400322
    12  C    0.000583  -0.000375   0.004222  -0.001209  -0.036569  -0.037851
    13  C   -0.006015   0.003908  -0.000396   0.000315  -0.005976   0.004152
    14  H    0.000063  -0.000051   0.000009  -0.000043   0.000008  -0.000059
    15  N    0.006754   0.000083  -0.000033   0.000005   0.006880   0.000035
    16  C    0.002395  -0.000035   0.000002  -0.000001   0.000082   0.000005
    17  H    0.000012  -0.000004  -0.000000   0.000000   0.000000   0.000000
    18  H   -0.000129   0.002481   0.000000   0.000002   0.000000  -0.000000
    19  H    0.506300  -0.023912  -0.002585   0.003757   0.001650  -0.000072
    20  H   -0.023912   0.548826  -0.002641  -0.002948  -0.000049  -0.000090
    21  H   -0.002585  -0.002641   0.525744  -0.024672  -0.002810  -0.002067
    22  H    0.003757  -0.002948  -0.024672   0.569171   0.004060  -0.003587
    23  H    0.001650  -0.000049  -0.002810   0.004060   0.509365  -0.024958
    24  H   -0.000072  -0.000090  -0.002067  -0.003587  -0.024958   0.540966
    25  H   -0.000027   0.000011  -0.000086  -0.000083  -0.002071  -0.002397
    26  H    0.000022  -0.000035  -0.000073   0.002460   0.003825  -0.002755
    27  H    0.000073   0.000000  -0.000000   0.000000  -0.000022  -0.000000
              25         26         27
     1  O    0.000000   0.000000   0.005919
     2  N   -0.000000  -0.000000  -0.000308
     3  O    0.000000   0.000000   0.000021
     4  C    0.000020   0.000005  -0.067658
     5  C   -0.000001  -0.000000   0.002027
     6  N   -0.000073  -0.000071   0.000012
     7  C    0.005065  -0.004443  -0.000400
     8  H   -0.000011   0.001521   0.000008
     9  C   -0.000377   0.001079  -0.000055
    10  C    0.004099  -0.002424   0.000004
    11  C   -0.033777  -0.042433   0.000006
    12  C    0.395073   0.394501  -0.000020
    13  C   -0.034298  -0.045047   0.004837
    14  H   -0.002670  -0.000884  -0.000163
    15  N    0.001022   0.004226  -0.040329
    16  C   -0.000062  -0.000041   0.403541
    17  H   -0.000000   0.000000  -0.000061
    18  H    0.000003  -0.000001   0.000001
    19  H   -0.000027   0.000022   0.000073
    20  H    0.000011  -0.000035   0.000000
    21  H   -0.000086  -0.000073  -0.000000
    22  H   -0.000083   0.002460   0.000000
    23  H   -0.002071   0.003825  -0.000022
    24  H   -0.002397  -0.002755  -0.000000
    25  H    0.509909  -0.023123  -0.000012
    26  H   -0.023123   0.562574   0.000001
    27  H   -0.000012   0.000001   0.449497
 Mulliken charges:
               1
     1  O   -0.457250
     2  N    0.506768
     3  O   -0.486993
     4  C   -0.028484
     5  C    0.197215
     6  N   -0.780312
     7  C    0.045353
     8  H    0.179521
     9  C   -0.308989
    10  C   -0.321367
    11  C   -0.316077
    12  C   -0.312028
    13  C   -0.019992
    14  H    0.196336
    15  N   -0.509245
    16  C    0.128490
    17  H    0.290609
    18  H    0.396392
    19  H    0.189993
    20  H    0.155607
    21  H    0.173016
    22  H    0.149083
    23  H    0.191599
    24  H    0.162694
    25  H    0.183865
    26  H    0.151114
    27  H    0.243082
 Sum of Mulliken charges =  -0.00000
 Mulliken charges with hydrogens summed into heavy atoms:
               1
     1  O   -0.457250
     2  N    0.506768
     3  O   -0.486993
     4  C   -0.028484
     5  C    0.487825
     6  N   -0.383920
     7  C    0.224874
     9  C    0.036611
    10  C    0.000732
    11  C    0.038216
    12  C    0.022951
    13  C    0.176344
    15  N   -0.509245
    16  C    0.371572
 Electronic spatial extent (au):  <R**2>=           3128.8705
 Charge=             -0.0000 electrons
 Dipole moment (field-independent basis, Debye):
    X=              5.4413    Y=              4.5612    Z=              0.7232  Tot=              7.1369
 Quadrupole moment (field-independent basis, Debye-Ang):
   XX=           -105.6401   YY=            -79.8759   ZZ=            -82.4682
   XY=             -1.4390   XZ=              0.1256   YZ=              0.3978
 Traceless Quadrupole moment (field-independent basis, Debye-Ang):
   XX=            -16.3120   YY=              9.4522   ZZ=              6.8599
   XY=             -1.4390   XZ=              0.1256   YZ=              0.3978
 Octapole moment (field-independent basis, Debye-Ang**2):
  XXX=            102.5617  YYY=             36.2708  ZZZ=             -3.5941  XYY=             -1.9008
  XXY=             10.4060  XXZ=              4.6975  XZZ=             -7.4209  YZZ=             -2.6983
  YYZ=              2.8272  XYZ=             -0.5635
 Hexadecapole moment (field-independent basis, Debye-Ang**3):
 XXXX=          -3562.8413 YYYY=           -618.5165 ZZZZ=           -301.9926 XXXY=            -28.8247
 XXXZ=            -16.8212 YYYX=            -10.9740 YYYZ=             17.3123 ZZZX=             -1.1560
 ZZZY=              8.3340 XXYY=           -656.6135 XXZZ=           -545.1287 YYZZ=           -165.2849
 XXYZ=              2.8068 YYXZ=              3.1613 ZZXY=              4.7391
 N-N= 9.170471894329D+02 E-N=-3.380111672458D+03  KE= 6.588589805436D+02
 Calling FoFJK, ICntrl=  10002127 FMM=F ISym2X=0 I1Cent= 0 IOpClX= 0 NMat=1 NMatS=1 NMatT=0.
 -------------------------------------------------------------------
 Center     Atomic                   Forces (Hartrees/Bohr)
 Number     Number              X              Y              Z
 -------------------------------------------------------------------
      1        8           0.002049071   -0.019055892   -0.001788009
      2        7           0.040008515    0.012663399   -0.001431510
      3        8          -0.004851221    0.016346339    0.002621075
      4        6          -0.003277945    0.006278544    0.007501506
      5        6           0.003250163   -0.016654241    0.000742720
      6        7           0.015375800   -0.005330568   -0.010391137
      7        6          -0.005411783    0.004227129    0.003894534
      8        1          -0.011237158   -0.001524668   -0.007412277
      9        6          -0.003988535    0.000818975   -0.002185212
     10        6           0.002755559   -0.001109595    0.000897006
     11        6          -0.000940229   -0.004504160   -0.002210422
     12        6           0.000626104   -0.009089507   -0.002992235
     13        6           0.009471455   -0.001554569    0.003118587
     14        1           0.001235506    0.004173220   -0.010162399
     15        7           0.000669316   -0.002956091    0.006825204
     16        6          -0.021090465    0.010705299   -0.001141161
     17        1           0.007459775   -0.007286861   -0.002185929
     18        1          -0.018108968   -0.002041482    0.002299936
     19        1           0.003193758    0.005752526    0.007617858
     20        1          -0.003127164   -0.007527385    0.002685421
     21        1          -0.004094926    0.002379283    0.009732465
     22        1          -0.004187057   -0.003942883   -0.007270668
     23        1           0.004130512    0.006064528    0.009194802
     24        1          -0.009448312    0.002549695   -0.001893451
     25        1          -0.000900693    0.010609498   -0.002424219
     26        1          -0.004807733   -0.004739061   -0.004221857
     27        1           0.005246655    0.004748529    0.000579371
 -------------------------------------------------------------------
 Cartesian Forces:  Max     0.040008515 RMS     0.008413794

 GradGradGradGradGradGradGradGradGradGradGradGradGradGradGradGradGradGrad
 Berny optimization.
 FormGI is forming the generalized inverse of G from B-inverse, IUseBI=4.
 Internal  Forces:  Max     0.038274832 RMS     0.006974035
 Search for a local minimum.
 Step number   1 out of a maximum of   20
 All quantities printed in internal units (Hartrees-Bohrs-Radians)
 Mixed Optimization -- RFO/linear search
 Second derivative matrix not updated -- first step.
 ITU=  0
     Eigenvalues ---    0.00230   0.00775   0.01049   0.01159   0.01251
     Eigenvalues ---    0.01465   0.01540   0.01870   0.01994   0.02099
     Eigenvalues ---    0.02679   0.03633   0.04502   0.04677   0.04830
     Eigenvalues ---    0.05044   0.05139   0.05300   0.05862   0.06235
     Eigenvalues ---    0.07176   0.07689   0.07707   0.07822   0.07991
     Eigenvalues ---    0.08038   0.08050   0.10443   0.11718   0.12228
     Eigenvalues ---    0.12916   0.14920   0.15333   0.15969   0.15996
     Eigenvalues ---    0.19863   0.22179   0.23193   0.24965   0.25000
     Eigenvalues ---    0.25000   0.25378   0.26235   0.26644   0.27978
     Eigenvalues ---    0.28082   0.28464   0.29460   0.31472   0.31911
     Eigenvalues ---    0.32056   0.32240   0.32293   0.32383   0.32388
     Eigenvalues ---    0.32405   0.32517   0.32528   0.32587   0.33362
     Eigenvalues ---    0.33405   0.33604   0.35385   0.43888   0.44264
     Eigenvalues ---    0.49601   0.67358   0.90391   0.911511000.00000
     Eigenvalues --- 1000.000001000.000001000.000001000.000001000.00000
     Eigenvalues --- 1000.000001000.000001000.000001000.000001000.00000
     Eigenvalues --- 1000.000001000.000001000.000001000.000001000.00000
     Eigenvalues --- 1000.000001000.000001000.000001000.000001000.00000
     Eigenvalues --- 1000.000001000.000001000.000001000.000001000.00000
     Eigenvalues --- 1000.000001000.000001000.000001000.000001000.00000
     Eigenvalues --- 1000.000001000.000001000.000001000.000001000.00000
     Eigenvalues --- 1000.000001000.000001000.000001000.000001000.00000
     Eigenvalues --- 1000.000001000.000001000.000001000.000001000.00000
     Eigenvalues --- 1000.000001000.000001000.000001000.000001000.00000
     Eigenvalues --- 1000.000001000.000001000.000001000.000001000.00000
     Eigenvalues --- 1000.000001000.000001000.000001000.000001000.00000
     Eigenvalues --- 1000.000001000.000001000.000001000.000001000.00000
     Eigenvalues --- 1000.000001000.000001000.000001000.000001000.00000
     Eigenvalues --- 1000.000001000.000001000.000001000.000001000.00000
     Eigenvalues --- 1000.000001000.000001000.000001000.000001000.00000
     Eigenvalues --- 1000.000001000.000001000.000001000.000001000.00000
     Eigenvalues --- 1000.000001000.000001000.000001000.000001000.00000
     Eigenvalues --- 1000.00000
 RFO step:  Lambda=-2.41221131D-02 EMin= 2.30239700D-03
 Linear search not attempted -- first point.
 Iteration  1 RMS(Cart)=  0.05850603 RMS(Int)=  0.00111546
 Iteration  2 RMS(Cart)=  0.00126189 RMS(Int)=  0.00022989
 Iteration  3 RMS(Cart)=  0.00000076 RMS(Int)=  0.00022989
 Iteration  1 RMS(Cart)=  0.00004174 RMS(Int)=  0.00003365
 Iteration  2 RMS(Cart)=  0.00001974 RMS(Int)=  0.00003739
 Iteration  3 RMS(Cart)=  0.00001030 RMS(Int)=  0.00004141
 Iteration  4 RMS(Cart)=  0.00000628 RMS(Int)=  0.00004391
 Iteration  5 RMS(Cart)=  0.00000449 RMS(Int)=  0.00004544
 Iteration  6 RMS(Cart)=  0.00000354 RMS(Int)=  0.00004645
 Iteration  7 RMS(Cart)=  0.00000293 RMS(Int)=  0.00004719
 Iteration  8 RMS(Cart)=  0.00000247 RMS(Int)=  0.00004776
 Iteration  9 RMS(Cart)=  0.00000210 RMS(Int)=  0.00004823
 Iteration 10 RMS(Cart)=  0.00000179 RMS(Int)=  0.00004861
 Iteration 11 RMS(Cart)=  0.00000153 RMS(Int)=  0.00004894
 Iteration 12 RMS(Cart)=  0.00000131 RMS(Int)=  0.00004922
 Iteration 13 RMS(Cart)=  0.00000112 RMS(Int)=  0.00004947
 Iteration 14 RMS(Cart)=  0.00000096 RMS(Int)=  0.00004967
 Variable       Old X    -DE/DX   Delta X   Delta X   Delta X     New X
                                 (Linear)    (Quad)   (Total)
    R1        2.32407   0.01756   0.00000   0.01877   0.01877   2.34284
    R2        2.32753   0.01595   0.00000   0.01719   0.01719   2.34472
    R3        2.89053  -0.03827   0.00000  -0.12009  -0.12009   2.77044
    R4        2.64504  -0.03360   0.00000  -0.07252  -0.07224   2.57280
    R5        2.81117  -0.02331   0.00000  -0.06763  -0.06736   2.74381
    R6        2.58867  -0.02544   0.00000  -0.04834  -0.04824   2.54043
    R7        2.08346  -0.01059   0.00000  -0.02956  -0.02956   2.05390
    R8        2.82134  -0.01891   0.00000  -0.05110  -0.05126   2.77008
    R9        1.93288  -0.00635   0.00000  -0.01372  -0.01372   1.91917
   R10        2.11821  -0.01239   0.00000  -0.03657  -0.03657   2.08164
   R11        2.92737  -0.01292   0.00000  -0.04376  -0.04375   2.88362
   R12        2.90091  -0.00287   0.00000  -0.00361  -0.00372   2.89719
   R13        2.91148  -0.00439   0.00000  -0.01426  -0.01429   2.89720
   R14        2.09908  -0.00984   0.00000  -0.02816  -0.02816   2.07092
   R15        2.09889  -0.00817   0.00000  -0.02338  -0.02338   2.07550
   R16        2.90454  -0.00170   0.00000  -0.00699  -0.00705   2.89749
   R17        2.10139  -0.01056   0.00000  -0.03036  -0.03036   2.07103
   R18        2.10312  -0.00897   0.00000  -0.02586  -0.02586   2.07726
   R19        2.91774  -0.00920   0.00000  -0.02926  -0.02927   2.88847
   R20        2.10407  -0.01160   0.00000  -0.03347  -0.03347   2.07061
   R21        2.10109  -0.00994   0.00000  -0.02855  -0.02855   2.07254
   R22        2.93525  -0.01081   0.00000  -0.03638  -0.03635   2.89890
   R23        2.10150  -0.01077   0.00000  -0.03095  -0.03095   2.07054
   R24        2.09783  -0.00776   0.00000  -0.02218  -0.02218   2.07564
   R25        2.10741  -0.00971   0.00000  -0.02816  -0.02816   2.07925
   R26        2.76624  -0.00513   0.00000  -0.01091  -0.01121   2.75504
   R27        2.44150  -0.00415   0.00000  -0.00607  -0.00605   2.43545
   R28        2.08004  -0.00614   0.00000  -0.01706  -0.01706   2.06298
    A1        2.15669   0.01114   0.00000   0.04065   0.04062   2.19731
    A2        2.05446  -0.00716   0.00000  -0.02611  -0.02614   2.02832
    A3        2.07200  -0.00396   0.00000  -0.01443  -0.01446   2.05754
    A4        2.02828  -0.00867   0.00000  -0.02810  -0.02874   1.99955
    A5        2.03166  -0.00268   0.00000  -0.00627  -0.00695   2.02470
    A6        2.22183   0.01125   0.00000   0.03179   0.03193   2.25375
    A7        2.20408   0.00667   0.00000   0.02160   0.02210   2.22618
    A8        2.06264  -0.00357   0.00000  -0.01215  -0.01239   2.05024
    A9        2.01363  -0.00299   0.00000  -0.00892  -0.00920   2.00443
   A10        2.25921  -0.00677   0.00000  -0.02245  -0.02244   2.23677
   A11        2.10367  -0.01238   0.00000  -0.07360  -0.07384   2.02983
   A12        1.86370   0.01938   0.00000   0.10259   0.10279   1.96648
   A13        1.84039  -0.00243   0.00000  -0.01994  -0.01970   1.82069
   A14        2.00970  -0.00086   0.00000  -0.01469  -0.01476   1.99494
   A15        1.96114   0.00172   0.00000   0.00084   0.00027   1.96141
   A16        1.85300   0.00297   0.00000   0.02566   0.02544   1.87844
   A17        1.85064   0.00124   0.00000   0.02392   0.02375   1.87439
   A18        1.93563  -0.00232   0.00000  -0.01073  -0.01043   1.92520
   A19        1.90905   0.00024   0.00000  -0.00514  -0.00525   1.90379
   A20        1.92264  -0.00071   0.00000  -0.01383  -0.01381   1.90883
   A21        1.92254  -0.00176   0.00000  -0.00632  -0.00633   1.91621
   A22        1.91943  -0.00053   0.00000   0.00474   0.00465   1.92408
   A23        1.90562   0.00315   0.00000   0.02567   0.02569   1.93131
   A24        1.88440  -0.00035   0.00000  -0.00469  -0.00493   1.87947
   A25        1.94029  -0.00077   0.00000   0.00608   0.00594   1.94622
   A26        1.91885  -0.00077   0.00000  -0.00732  -0.00732   1.91153
   A27        1.90509   0.00028   0.00000  -0.00303  -0.00310   1.90199
   A28        1.91614   0.00065   0.00000   0.00684   0.00689   1.92302
   A29        1.89863   0.00183   0.00000   0.01142   0.01146   1.91009
   A30        1.88382  -0.00121   0.00000  -0.01447  -0.01456   1.86926
   A31        1.94469   0.00108   0.00000   0.00627   0.00643   1.95112
   A32        1.90240   0.00035   0.00000   0.00566   0.00561   1.90801
   A33        1.91731   0.00041   0.00000   0.00510   0.00506   1.92237
   A34        1.90684  -0.00131   0.00000  -0.01504  -0.01511   1.89173
   A35        1.91529  -0.00058   0.00000   0.00029   0.00018   1.91547
   A36        1.87594   0.00000   0.00000  -0.00270  -0.00272   1.87322
   A37        1.94601  -0.00349   0.00000  -0.01935  -0.01940   1.92661
   A38        1.90622   0.00249   0.00000   0.01616   0.01600   1.92222
   A39        1.91123   0.00168   0.00000   0.01391   0.01390   1.92513
   A40        1.90651   0.00054   0.00000  -0.00268  -0.00252   1.90399
   A41        1.91205  -0.00022   0.00000  -0.00409  -0.00402   1.90804
   A42        1.88064  -0.00092   0.00000  -0.00341  -0.00360   1.87703
   A43        1.84567   0.00528   0.00000   0.02350   0.02356   1.86923
   A44        1.93573  -0.00452   0.00000  -0.02820  -0.02858   1.90715
   A45        1.98938   0.00023   0.00000   0.00990   0.01004   1.99942
   A46        1.88358   0.00202   0.00000   0.02802   0.02826   1.91184
   A47        1.89159  -0.00434   0.00000  -0.03022  -0.03021   1.86139
   A48        1.91345   0.00152   0.00000  -0.00097  -0.00079   1.91266
   A49        2.09722  -0.00600   0.00000  -0.01297  -0.01325   2.08397
   A50        2.26273  -0.00568   0.00000  -0.02577  -0.02586   2.23688
   A51        1.97633   0.00479   0.00000   0.02272   0.02205   1.99837
   A52        2.04349   0.00083   0.00000   0.00119   0.00053   2.04403
    D1       -3.05046  -0.00036   0.00000  -0.04715  -0.04611  -3.09657
    D2        0.14413   0.00096   0.00000   0.00000  -0.00000   0.14413
    D3        0.09931  -0.00165   0.00000  -0.06100  -0.06047   0.03883
    D4       -2.98929  -0.00033   0.00000  -0.01384  -0.01436  -3.00365
    D5        3.00776   0.00244   0.00000   0.03680   0.03697   3.04472
    D6       -0.04888   0.00101   0.00000   0.02953   0.02956  -0.01933
    D7       -0.19352   0.00036   0.00000  -0.01795  -0.01824  -0.21176
    D8        3.03303  -0.00106   0.00000  -0.02522  -0.02565   3.00738
    D9       -2.82727  -0.00165   0.00000  -0.04726  -0.04787  -2.87514
   D10        0.35420   0.00021   0.00000   0.01131   0.01085   0.36504
   D11        0.37410   0.00060   0.00000   0.00822   0.00862   0.38272
   D12       -2.72762   0.00246   0.00000   0.06679   0.06733  -2.66028
   D13        0.10802  -0.00256   0.00000   0.00000   0.00000   0.10802
   D14        2.84500   0.00226   0.00000   0.04316   0.04245   2.88745
   D15       -3.11644  -0.00121   0.00000   0.00690   0.00706  -3.10939
   D16       -0.37946   0.00361   0.00000   0.05006   0.04951  -0.32995
   D17       -2.65276  -0.00012   0.00000  -0.00379  -0.00348  -2.65624
   D18        1.59413  -0.00169   0.00000  -0.01415  -0.01390   1.58023
   D19       -0.64459   0.00080   0.00000   0.01346   0.01337  -0.63122
   D20        0.85085   0.00060   0.00000  -0.01381  -0.01409   0.83676
   D21       -1.18544  -0.00097   0.00000  -0.02417  -0.02451  -1.20996
   D22        2.85901   0.00151   0.00000   0.00345   0.00276   2.86177
   D23        2.94894   0.00211   0.00000   0.02947   0.02937   2.97831
   D24       -1.22256   0.00116   0.00000   0.02333   0.02324  -1.19932
   D25        0.85436  -0.00082   0.00000   0.00499   0.00496   0.85932
   D26        0.91981   0.00361   0.00000   0.04517   0.04522   0.96503
   D27        3.03150   0.00266   0.00000   0.03903   0.03909   3.07059
   D28       -1.17477   0.00068   0.00000   0.02069   0.02081  -1.15396
   D29       -1.08286   0.00166   0.00000   0.00806   0.00805  -1.07481
   D30        1.02883   0.00071   0.00000   0.00192   0.00192   1.03075
   D31        3.10575  -0.00127   0.00000  -0.01643  -0.01636   3.08939
   D32       -2.89773  -0.00059   0.00000  -0.01602  -0.01581  -2.91354
   D33       -0.86017   0.00252   0.00000   0.01625   0.01611  -0.84406
   D34        1.30939   0.00112   0.00000   0.00000  -0.00001   1.30938
   D35       -0.89580  -0.00189   0.00000  -0.02541  -0.02531  -0.92110
   D36        1.14176   0.00122   0.00000   0.00686   0.00662   1.14838
   D37       -2.97186  -0.00018   0.00000  -0.00938  -0.00950  -2.98136
   D38        1.10835   0.00114   0.00000   0.01279   0.01290   1.12125
   D39       -3.13728   0.00426   0.00000   0.04506   0.04483  -3.09245
   D40       -0.96772   0.00285   0.00000   0.02881   0.02871  -0.93901
   D41        0.95665   0.00088   0.00000   0.00000   0.00001   0.95666
   D42        3.08215   0.00067   0.00000   0.00771   0.00766   3.08980
   D43       -1.13779  -0.00108   0.00000  -0.01601  -0.01597  -1.15376
   D44       -1.15699   0.00195   0.00000   0.01738   0.01746  -1.13953
   D45        0.96851   0.00173   0.00000   0.02509   0.02511   0.99362
   D46        3.03176  -0.00002   0.00000   0.00138   0.00148   3.03324
   D47        3.06158   0.00080   0.00000   0.00489   0.00486   3.06644
   D48       -1.09611   0.00059   0.00000   0.01259   0.01251  -1.08360
   D49        0.96714  -0.00116   0.00000  -0.01112  -0.01112   0.95602
   D50       -0.92192  -0.00079   0.00000   0.00000   0.00001  -0.92192
   D51        1.18374  -0.00151   0.00000  -0.01105  -0.01106   1.17268
   D52       -3.04823  -0.00106   0.00000  -0.00805  -0.00810  -3.05633
   D53       -3.04900   0.00025   0.00000   0.00055   0.00057  -3.04843
   D54       -0.94334  -0.00047   0.00000  -0.01051  -0.01050  -0.95384
   D55        1.10787  -0.00002   0.00000  -0.00751  -0.00753   1.10034
   D56        1.17634   0.00026   0.00000   0.00739   0.00743   1.18377
   D57       -3.00118  -0.00046   0.00000  -0.00366  -0.00364  -3.00482
   D58       -0.94997  -0.00001   0.00000  -0.00066  -0.00068  -0.95064
   D59        0.98897  -0.00119   0.00000  -0.01153  -0.01158   0.97740
   D60        3.09760  -0.00108   0.00000  -0.01651  -0.01667   3.08093
   D61       -1.12998   0.00024   0.00000  -0.00312  -0.00310  -1.13308
   D62       -1.11408  -0.00145   0.00000  -0.01264  -0.01263  -1.12672
   D63        0.99454  -0.00134   0.00000  -0.01763  -0.01773   0.97681
   D64        3.05015  -0.00002   0.00000  -0.00424  -0.00415   3.04600
   D65        3.11645  -0.00034   0.00000  -0.00070  -0.00070   3.11576
   D66       -1.05810  -0.00024   0.00000  -0.00568  -0.00579  -1.06390
   D67        0.99750   0.00108   0.00000   0.00770   0.00778   1.00528
   D68       -1.05606   0.00005   0.00000  -0.00110  -0.00100  -1.05707
   D69       -3.12857   0.00153   0.00000   0.00542   0.00506  -3.12350
   D70        1.08367   0.00099   0.00000   0.00763   0.00748   1.09115
   D71        3.11866  -0.00119   0.00000  -0.00713  -0.00696   3.11170
   D72        1.04616   0.00029   0.00000  -0.00061  -0.00089   1.04527
   D73       -1.02479  -0.00026   0.00000   0.00160   0.00153  -1.02326
   D74        1.06241  -0.00026   0.00000   0.00095   0.00116   1.06357
   D75       -1.01009   0.00121   0.00000   0.00747   0.00723  -1.00286
   D76       -3.08105   0.00067   0.00000   0.00968   0.00965  -3.07140
   D77       -1.17218   0.00545   0.00000   0.00000  -0.00001  -1.17218
   D78        3.06124   0.00163   0.00000  -0.01503  -0.01494   3.04630
   D79        1.00929   0.00084   0.00000  -0.03074  -0.03099   0.97830
   D80        0.24339  -0.00123   0.00000   0.00374   0.00343   0.24683
   D81       -2.93935  -0.00308   0.00000  -0.05634  -0.05621  -2.99556
         Item               Value     Threshold  Converged?
 Maximum Force            0.038275     0.000450     NO 
 RMS     Force            0.007021     0.000300     NO 
 Maximum Displacement     0.310158     0.001800     NO 
 RMS     Displacement     0.058622     0.001200     NO 
 Predicted change in Energy=-1.343783D-02
 GradGradGradGradGradGradGradGradGradGradGradGradGradGradGradGradGradGrad

                          Input orientation:                          
 ---------------------------------------------------------------------
 Center     Atomic      Atomic             Coordinates (Angstroms)
 Number     Number       Type             X           Y           Z
 ---------------------------------------------------------------------
      1          8           0       -3.500495   -1.386115   -0.318788
      2          7           0       -3.125543   -0.218692   -0.135529
      3          8           0       -3.862442    0.773873   -0.029155
      4          6           0       -1.677933   -0.012548   -0.029503
      5          6           0       -1.306374    1.272013    0.226303
      6          7           0       -0.068132    1.732753    0.474735
      7          6           0        1.200196    1.000544    0.411760
      8          1           0        1.850828    1.520169    1.132938
      9          6           0        1.887223    1.050503   -0.949857
     10          6           0        3.295005    0.456758   -0.822946
     11          6           0        3.257757   -0.956291   -0.228917
     12          6           0        2.478900   -0.998859    1.085587
     13          6           0        1.060168   -0.451273    0.884090
     14          1           0        0.518627   -0.470985    1.841685
     15          7           0        0.401716   -1.337419   -0.068102
     16          6           0       -0.846896   -1.163146   -0.335611
     17          1           0       -2.095184    2.015219    0.308340
     18          1           0        0.057479    2.738915    0.417640
     19          1           0        1.298251    0.477999   -1.675329
     20          1           0        1.935221    2.088943   -1.304287
     21          1           0        3.775720    0.440367   -1.807697
     22          1           0        3.901156    1.108809   -0.178173
     23          1           0        2.773902   -1.635642   -0.939527
     24          1           0        4.277912   -1.325079   -0.067314
     25          1           0        2.416513   -2.028916    1.453846
     26          1           0        2.992716   -0.403582    1.852454
     27          1           0       -1.337270   -1.927339   -0.941675
 ---------------------------------------------------------------------
                    Distance matrix (angstroms):
                    1          2          3          4          5
     1  O    0.000000
     2  N    1.239778   0.000000
     3  O    2.209171   1.240773   0.000000
     4  C    2.300457   1.466053   2.321752   0.000000
     5  C    3.489546   2.379600   2.616655   1.361465   0.000000
     6  N    4.705117   3.678086   3.945902   2.427301   1.344337
     7  C    5.322249   4.527480   5.086854   3.082969   2.528039
     8  H    6.260244   5.421892   5.877828   4.019035   3.294160
     9  C    5.946669   5.234674   5.829482   3.832424   3.410496
    10  C    7.058979   6.492474   7.208308   5.057659   4.789390
    11  C    6.772503   6.426453   7.330116   5.029061   5.099398
    12  C    6.154300   5.788745   6.678162   4.415371   4.497058
    13  C    4.808377   4.314382   5.154326   2.919645   3.000486
    14  H    4.653864   4.153673   4.923766   2.921710   2.996352
    15  N    3.910558   3.701034   4.758372   2.466113   3.132631
    16  C    2.663003   2.474724   3.597147   1.451964   2.541036
    17  H    3.733264   2.499803   2.185874   2.097635   1.086879
    18  H    5.497034   4.380076   4.407584   3.283617   2.012091
    19  H    5.323823   4.735643   5.424959   3.436139   3.321255
    20  H    6.526427   5.683530   6.080154   4.369923   3.676686
    21  H    7.648280   7.131475   7.849583   5.754080   5.536829
    22  H    7.812097   7.151124   7.772248   5.692608   5.225764
    23  H    6.309964   6.120263   7.118679   4.825082   5.144149
    24  H    7.782710   7.485980   8.406688   6.098873   6.165658
    25  H    6.210186   6.042963   7.034215   4.799016   5.124732
    26  H    6.916752   6.435788   7.205557   5.050707   4.892256
    27  H    2.315266   2.601397   3.808639   2.148147   3.406021
                    6          7          8          9         10
     6  N    0.000000
     7  C    1.465862   0.000000
     8  H    2.039811   1.101558   0.000000
     9  C    2.513631   1.525943   2.135403   0.000000
    10  C    3.823981   2.491672   2.653672   1.533131   0.000000
    11  C    4.334469   2.910882   3.157049   2.534826   1.533286
    12  C    3.784471   2.467132   2.596578   2.948389   2.535221
    13  C    2.492108   1.533127   2.138610   2.510521   2.955163
    14  H    2.658815   2.162087   2.498354   3.461313   3.958439
    15  N    3.152995   2.516726   3.421729   2.947269   3.487116
    16  C    3.106342   3.070945   4.078545   3.571127   4.474028
    17  H    2.053390   3.449606   4.061532   4.286409   5.723875
    18  H    1.015579   2.080329   2.283220   2.840554   4.150767
    19  H    2.839751   2.153743   3.045952   1.095883   2.171183
    20  H    2.702816   2.160947   2.504136   1.098309   2.178240
    21  H    4.653489   3.445739   3.676754   2.162077   1.095943
    22  H    4.070730   2.766754   2.468213   2.157503   1.099237
    23  H    4.628540   3.354401   3.886685   2.828724   2.159462
    24  H    5.341558   3.887206   3.927693   3.483915   2.170720
    25  H    4.613271   3.426806   3.608183   3.942177   3.483404
    26  H    3.978798   2.694495   2.349986   3.345060   2.826540
    27  H    4.124706   4.104025   5.133546   4.389188   5.211141
                   11         12         13         14         15
    11  C    0.000000
    12  C    1.528513   0.000000
    13  C    2.514603   1.534032   0.000000
    14  H    3.467816   2.166335   1.100292   0.000000
    15  N    2.885843   2.400066   1.457903   2.100396   0.000000
    16  C    4.111247   3.620458   2.373042   2.661646   1.288784
    17  H    6.145933   5.532723   4.046147   3.919740   4.197188
    18  H    4.930960   4.503375   3.376427   3.541754   4.119580
    19  H    2.826475   3.346296   2.733287   3.725288   2.585091
    20  H    3.489839   3.942285   3.465172   4.296174   3.952183
    21  H    2.170595   3.481983   3.926190   4.975661   4.191732
    22  H    2.163603   2.839396   3.410788   4.244653   4.271092
    23  H    1.095719   2.143270   2.768609   3.765347   2.544718
    24  H    1.096739   2.161490   3.467360   4.301857   3.876216
    25  H    2.165619   1.095684   2.157139   2.485868   2.617995
    26  H    2.169756   1.098384   2.162117   2.475031   3.357658
    27  H    4.750287   4.419844   3.355577   3.648618   2.033521
                   16         17         18         19         20
    16  C    0.000000
    17  H    3.474895   0.000000
    18  H    4.075704   2.273684   0.000000
    19  H    3.014939   4.220591   3.321412   0.000000
    20  H    4.388006   4.341678   2.629337   1.771594   0.000000
    21  H    5.109488   6.436247   4.905177   2.481288   2.521639
    22  H    5.265982   6.083943   4.217356   3.068308   2.468541
    23  H    3.701101   6.212403   5.325186   2.680751   3.835227
    24  H    5.134381   7.205210   5.879054   3.836037   4.321325
    25  H    3.821198   6.166248   5.419500   4.162555   4.979529
    26  H    4.484104   5.841371   4.533167   4.011690   4.158846
    27  H    1.091683   4.204846   5.056381   3.642783   5.193381
                   21         22         23         24         25
    21  H    0.000000
    22  H    1.765757   0.000000
    23  H    2.463162   3.063066   0.000000
    24  H    2.529413   2.465369   1.766140   0.000000
    25  H    4.310738   3.835749   2.451658   2.504819   0.000000
    26  H    3.836933   2.689989   3.059577   2.487246   1.769918
    27  H    5.700762   6.102642   4.121508   5.714674   4.454181
                   26         27
    26  H    0.000000
    27  H    5.373805   0.000000
 Symmetry turned off by external request.
 Stoichiometry    C9H13N3O2
 Framework group  C1[X(C9H13N3O2)]
 Deg. of freedom    75
 Full point group                 C1      NOp   1
 Rotational constants (GHZ):           1.6734185           0.4219667           0.3729872
 Standard basis: 6-31G(d) (6D, 7F)
   236 basis functions,   444 primitive gaussians,   236 cartesian basis functions
    52 alpha electrons       52 beta electrons
       nuclear repulsion energy       931.9927428655 Hartrees.
 NAtoms=   27 NActive=   27 NUniq=   27 SFac= 1.00D+00 NAtFMM=   60 NAOKFM=F Big=F
 Integral buffers will be    131072 words long.
 Raffenetti 1 integral format.
 Two-electron integral symmetry is turned off.
 One-electron integrals computed using PRISM.
 NBasis=   236 RedAO= T EigKep=  1.02D-03  NBF=   236
 NBsUse=   236 1.00D-06 EigRej= -1.00D+00 NBFU=   236
 Initial guess from the checkpoint file:  "/home/alexey/tmp/Gau-1453212.chk"
 B after Tr=     0.058173    0.005922    0.000142
         Rot=    0.999997   -0.001553    0.001196    0.001180 Ang=  -0.26 deg.
 ExpMin= 1.61D-01 ExpMax= 5.48D+03 ExpMxC= 8.25D+02 IAcc=3 IRadAn=         5 AccDes= 0.00D+00
 Harris functional with IExCor=  205 and IRadAn=       5 diagonalized for initial guess.
 HarFok:  IExCor=  205 AccDes= 0.00D+00 IRadAn=         5 IDoV= 1 UseB2=F ITyADJ=14
 ICtDFT=  3500011 ScaDFX=  1.000000  1.000000  1.000000  1.000000
 FoFCou: FMM=F IPFlag=           0 FMFlag=      100000 FMFlg1=           0
         NFxFlg=           0 DoJE=T BraDBF=F KetDBF=T FulRan=T
         wScrn=  0.000000 ICntrl=       500 IOpCl=  0 I1Cent=   200000004 NGrid=           0
         NMat0=    1 NMatS0=      1 NMatT0=    0 NMatD0=    1 NMtDS0=    0 NMtDT0=    0
 Symmetry not used in FoFCou.
 Keep R1 ints in memory in canonical form, NReq=397720213.
 Requested convergence on RMS density matrix=1.00D-08 within 128 cycles.
 Requested convergence on MAX density matrix=1.00D-06.
 Requested convergence on             energy=1.00D-06.
 No special actions if energy rises.
 SCF Done:  E(RHF) =  -661.299011801     A.U. after   14 cycles
            NFock= 14  Conv=0.91D-08     -V/T= 2.0024
 ExpMin= 1.61D-01 ExpMax= 5.48D+03 ExpMxC= 8.25D+02 IAcc=3 IRadAn=         5 AccDes= 0.00D+00
 HarFok:  IExCor=  205 AccDes= 0.00D+00 IRadAn=         5 IDoV=-2 UseB2=F ITyADJ=14
 ICtDFT= 12500011 ScaDFX=  1.000000  1.000000  1.000000  1.000000
 Range of M.O.s used for correlation:    15   236
 NBasis=   236 NAE=    52 NBE=    52 NFC=    14 NFV=     0
 NROrb=    222 NOA=    38 NOB=    38 NVA=   184 NVB=   184
 Fully direct method using O(ONN) memory.
 JobTyp=1 Pass  1:  I=  15 to  52 NPSUse=  4 ParTrn=T ParDer=T DoDerP=T.
 Spin components of T(2) and E(2):
     alpha-alpha T2 =       0.9131052910D-01 E2=     -0.2724152092D+00
     alpha-beta  T2 =       0.4911574935D+00 E2=     -0.1487908453D+01
     beta-beta   T2 =       0.9131052910D-01 E2=     -0.2724152092D+00
 ANorm=    0.1293745938D+01
 E2 =    -0.2032738871D+01 EUMP2 =    -0.66333175067262D+03
          IDoAtm=111111111111111111111111111
          Differentiating once with respect to electric field.
                with respect to dipole field.
          Differentiating once with respect to nuclear coordinates.
 Keep R1 ints in memory in canonical form, NReq=397723379.
          There are     1 degrees of freedom in the 1st order CPHF.  IDoFFX=0 NUNeed=     1.
 LinEq1:  Iter=  0 NonCon=     1 RMS=4.59D-03 Max=1.07D-01 NDo=     1
 AX will form     1 AO Fock derivatives at one time.
 LinEq1:  Iter=  1 NonCon=     1 RMS=1.54D-03 Max=2.92D-02 NDo=     1
 LinEq1:  Iter=  2 NonCon=     1 RMS=6.45D-04 Max=1.82D-02 NDo=     1
 LinEq1:  Iter=  3 NonCon=     1 RMS=2.81D-04 Max=8.47D-03 NDo=     1
 LinEq1:  Iter=  4 NonCon=     1 RMS=8.80D-05 Max=2.03D-03 NDo=     1
 LinEq1:  Iter=  5 NonCon=     1 RMS=3.67D-05 Max=1.76D-03 NDo=     1
[...]
    21  H    5.097469   6.435794   5.043871   2.499437   2.520130
    22  H    5.254316   6.074996   4.298076   3.070219   2.461346
    23  H    3.688264   6.199397   5.401132   2.703164   3.842467
    24  H    5.130746   7.193210   5.932029   3.848739   4.316674
    25  H    3.819357   6.140791   5.393706   4.170476   4.985143
    26  H    4.499400   5.840679   4.517557   4.034298   4.181535
    27  H    1.089766   4.202937   5.085523   3.600526   5.170088
                   21         22         23         24         25
    21  H    0.000000
    22  H    1.758931   0.000000
    23  H    2.469798   3.062403   0.000000
    24  H    2.517294   2.459939   1.764492   0.000000
    25  H    4.312005   3.839159   2.444044   2.519423   0.000000
    26  H    3.846324   2.703594   3.060412   2.492334   1.768245
    27  H    5.659780   6.068538   4.081836   5.686712   4.440996
                   26         27
    26  H    0.000000
    27  H    5.375807   0.000000
 Symmetry turned off by external request.
 Stoichiometry    C9H13N3O2
 Framework group  C1[X(C9H13N3O2)]
 Deg. of freedom    75
 Full point group                 C1      NOp   1
 Rotational constants (GHZ):           1.6712606           0.4195116           0.3724544

 **********************************************************************

            Population analysis using the SCF Density.

 **********************************************************************

 Alpha  occ. eigenvalues --  -20.59232 -20.58900 -15.84726 -15.64192 -15.55994
 Alpha  occ. eigenvalues --  -11.35051 -11.29607 -11.29555 -11.28647 -11.27087
 Alpha  occ. eigenvalues --  -11.23864 -11.23270 -11.22649 -11.22099  -1.57128
 Alpha  occ. eigenvalues --   -1.36710  -1.31004  -1.22992  -1.14732  -1.09843
 Alpha  occ. eigenvalues --   -1.02811  -1.01353  -0.94474  -0.89695  -0.85645
 Alpha  occ. eigenvalues --   -0.82423  -0.78614  -0.77417  -0.75172  -0.72013
 Alpha  occ. eigenvalues --   -0.69718  -0.69479  -0.67866  -0.64843  -0.63812
 Alpha  occ. eigenvalues --   -0.62447  -0.60194  -0.57767  -0.56951  -0.55069
 Alpha  occ. eigenvalues --   -0.54637  -0.50776  -0.50203  -0.48670  -0.48123
 Alpha  occ. eigenvalues --   -0.47372  -0.46204  -0.46010  -0.43686  -0.41745
 Alpha  occ. eigenvalues --   -0.39692  -0.33785
 Alpha virt. eigenvalues --    0.07439   0.11760   0.17347   0.21881   0.24073
 Alpha virt. eigenvalues --    0.25529   0.27286   0.28601   0.29064   0.29550
 Alpha virt. eigenvalues --    0.30728   0.31778   0.32099   0.32809   0.33835
 Alpha virt. eigenvalues --    0.34367   0.35906   0.37400   0.38468   0.40299
 Alpha virt. eigenvalues --    0.41399   0.42378   0.44886   0.46000   0.46611
 Alpha virt. eigenvalues --    0.47322   0.49019   0.53965   0.57286   0.59308
 Alpha virt. eigenvalues --    0.63977   0.69473   0.69543   0.72830   0.74176
 Alpha virt. eigenvalues --    0.74939   0.75733   0.76621   0.78754   0.79234
 Alpha virt. eigenvalues --    0.81333   0.84529   0.85522   0.85739   0.88434
 Alpha virt. eigenvalues --    0.89006   0.91329   0.91639   0.92865   0.94568
 Alpha virt. eigenvalues --    0.95740   0.97980   0.99520   1.01475   1.02401
 Alpha virt. eigenvalues --    1.03177   1.05902   1.07032   1.08036   1.08823
 Alpha virt. eigenvalues --    1.10348   1.11780   1.11974   1.12572   1.13848
 Alpha virt. eigenvalues --    1.14731   1.14986   1.16085   1.16985   1.18616
 Alpha virt. eigenvalues --    1.18784   1.21402   1.22734   1.23644   1.24322
 Alpha virt. eigenvalues --    1.25552   1.25941   1.26719   1.27571   1.29563
 Alpha virt. eigenvalues --    1.30087   1.32739   1.36184   1.37513   1.40632
 Alpha virt. eigenvalues --    1.41433   1.43954   1.48723   1.52427   1.54254
 Alpha virt. eigenvalues --    1.57520   1.58673   1.60166   1.63091   1.66480
 Alpha virt. eigenvalues --    1.68383   1.69478   1.72378   1.75586   1.78139
 Alpha virt. eigenvalues --    1.81010   1.84521   1.87279   1.90836   1.92924
 Alpha virt. eigenvalues --    1.95912   1.96676   1.99678   2.01845   2.02167
 Alpha virt. eigenvalues --    2.04487   2.05643   2.08736   2.09677   2.12472
 Alpha virt. eigenvalues --    2.12914   2.15172   2.19515   2.19927   2.21841
 Alpha virt. eigenvalues --    2.22679   2.24874   2.25291   2.28091   2.29103
 Alpha virt. eigenvalues --    2.31579   2.33526   2.34404   2.36230   2.38144
 Alpha virt. eigenvalues --    2.40836   2.42166   2.43734   2.44789   2.48173
 Alpha virt. eigenvalues --    2.50395   2.51940   2.53250   2.55541   2.60923
 Alpha virt. eigenvalues --    2.62371   2.65570   2.67270   2.70165   2.70685
 Alpha virt. eigenvalues --    2.71899   2.72233   2.76159   2.78181   2.84238
 Alpha virt. eigenvalues --    2.88171   2.89110   2.92860   2.93114   2.95989
 Alpha virt. eigenvalues --    2.99002   3.01248   3.04158   3.06360   3.07629
 Alpha virt. eigenvalues --    3.09616   3.15840   3.20718   3.25309   3.27485
 Alpha virt. eigenvalues --    3.34018   3.37984   3.38696   3.51893   3.65547
 Alpha virt. eigenvalues --    4.13957   4.28007   4.33952   4.38558   4.46517
 Alpha virt. eigenvalues --    4.56221   4.61908   4.62585   4.73200   4.80089
 Alpha virt. eigenvalues --    4.99289   5.00788   5.04958   5.11381
          Condensed to atoms (all electrons):
               1          2          3          4          5          6
     1  O    8.315889   0.306200  -0.082171  -0.084610   0.004565  -0.000015
     2  N    0.306200   5.723969   0.300031   0.262820  -0.052570   0.000999
     3  O   -0.082171   0.300031   8.353417  -0.091434   0.002423   0.000780
     4  C   -0.084610   0.262820  -0.091434   5.234577   0.557372  -0.048764
     5  C    0.004565  -0.052570   0.002423   0.557372   4.712375   0.317992
     6  N   -0.000015   0.000999   0.000780  -0.048764   0.317992   7.188549
     7  C    0.000003  -0.000125   0.000002   0.005475  -0.030051   0.176026
     8  H   -0.000000   0.000002  -0.000000  -0.000303   0.003606  -0.049898
     9  C   -0.000000  -0.000005  -0.000000   0.000763   0.000081  -0.062968
    10  C   -0.000000   0.000000   0.000000  -0.000040  -0.000035   0.003847
    11  C   -0.000000  -0.000000  -0.000000  -0.000022   0.000020  -0.000175
    12  C   -0.000000   0.000002  -0.000000  -0.000174  -0.000176   0.003734
    13  C   -0.000022  -0.000026  -0.000003  -0.010229  -0.000889  -0.050372
    14  H   -0.000002  -0.000100   0.000001   0.002330   0.004858  -0.006459
    15  N    0.000457   0.002263  -0.000016  -0.064864  -0.005408   0.001382
    16  C    0.000290  -0.027106   0.002657   0.324456  -0.050942  -0.001493
    17  H    0.000234  -0.007378   0.017752  -0.023660   0.375170  -0.034384
    18  H    0.000001  -0.000052   0.000012   0.001598  -0.031787   0.338236
    19  H    0.000001  -0.000007   0.000000  -0.001412   0.001674  -0.000583
    20  H    0.000000  -0.000000   0.000000  -0.000058   0.000087  -0.000325
    21  H   -0.000000   0.000000  -0.000000   0.000001   0.000001  -0.000080
    22  H   -0.000000   0.000000  -0.000000  -0.000000  -0.000002  -0.000111
    23  H    0.000000  -0.000000   0.000000   0.000041  -0.000001  -0.000030
    24  H    0.000000   0.000000   0.000000   0.000000  -0.000000   0.000006
    25  H    0.000000  -0.000000   0.000000   0.000024  -0.000000  -0.000088
    26  H    0.000000  -0.000000   0.000000   0.000006  -0.000001  -0.000067
    27  H    0.006524  -0.000843   0.000031  -0.065066   0.002036   0.000015
               7          8          9         10         11         12
     1  O    0.000003  -0.000000  -0.000000  -0.000000  -0.000000  -0.000000
     2  N   -0.000125   0.000002  -0.000005   0.000000  -0.000000   0.000002
     3  O    0.000002  -0.000000  -0.000000   0.000000  -0.000000  -0.000000
     4  C    0.005475  -0.000303   0.000763  -0.000040  -0.000022  -0.000174
     5  C   -0.030051   0.003606   0.000081  -0.000035   0.000020  -0.000176
     6  N    0.176026  -0.049898  -0.062968   0.003847  -0.000175   0.003734
     7  C    5.021243   0.417548   0.352286  -0.054383  -0.009207  -0.061427
     8  H    0.417548   0.534434  -0.054420   0.000672  -0.000259  -0.002173
     9  C    0.352286  -0.054420   5.160183   0.325103  -0.050780  -0.005323
    10  C   -0.054383   0.000672   0.325103   5.117675   0.337320  -0.060972
    11  C   -0.009207  -0.000259  -0.050780   0.337320   5.120324   0.335612
    12  C   -0.061427  -0.002173  -0.005323  -0.060972   0.335612   5.119319
    13  C    0.333758  -0.037065  -0.060691  -0.000295  -0.050383   0.372565
    14  H   -0.046163  -0.000904   0.004402  -0.000410   0.004215  -0.036567
    15  N   -0.057447   0.003794  -0.014204   0.001464  -0.013083  -0.082525
    16  C   -0.002104   0.000011  -0.001067  -0.000042   0.000012   0.002504
    17  H    0.001601  -0.000038  -0.000075   0.000001   0.000000   0.000000
    18  H   -0.022209  -0.004260   0.001089  -0.000081   0.000005  -0.000113
    19  H   -0.037072   0.004300   0.390447  -0.031998  -0.002163   0.000687
    20  H   -0.043222  -0.002149   0.399318  -0.035023   0.003939  -0.000428
    21  H    0.004589  -0.000079  -0.036372   0.402325  -0.034896   0.004356
    22  H   -0.004836   0.003534  -0.047034   0.397857  -0.045225  -0.001027
    23  H    0.000594   0.000032  -0.001983  -0.039076   0.399152  -0.037909
    24  H   -0.000134  -0.000101   0.004416  -0.038493   0.402392  -0.038582
    25  H    0.005194  -0.000031  -0.000414   0.004189  -0.033392   0.398239
    26  H   -0.003782   0.001651   0.000981  -0.002248  -0.041538   0.396737
    27  H   -0.000416   0.000009  -0.000055   0.000006   0.000012  -0.000033
              13         14         15         16         17         18
     1  O   -0.000022  -0.000002   0.000457   0.000290   0.000234   0.000001
     2  N   -0.000026  -0.000100   0.002263  -0.027106  -0.007378  -0.000052
     3  O   -0.000003   0.000001  -0.000016   0.002657   0.017752   0.000012
     4  C   -0.010229   0.002330  -0.064864   0.324456  -0.023660   0.001598
     5  C   -0.000889   0.004858  -0.005408  -0.050942   0.375170  -0.031787
     6  N   -0.050372  -0.006459   0.001382  -0.001493  -0.034384   0.338236
     7  C    0.333758  -0.046163  -0.057447  -0.002104   0.001601  -0.022209
     8  H   -0.037065  -0.000904   0.003794   0.000011  -0.000038  -0.004260
     9  C   -0.060691   0.004402  -0.014204  -0.001067  -0.000075   0.001089
    10  C   -0.000295  -0.000410   0.001464  -0.000042   0.000001  -0.000081
    11  C   -0.050383   0.004215  -0.013083   0.000012   0.000000   0.000005
    12  C    0.372565  -0.036567  -0.082525   0.002504   0.000000  -0.000113
    13  C    5.039355   0.404870   0.243679  -0.069949  -0.000042   0.003299
    14  H    0.404870   0.522292  -0.036929  -0.004378   0.000071  -0.000090
    15  N    0.243679  -0.036929   6.970082   0.586256  -0.000059  -0.000144
    16  C   -0.069949  -0.004378   0.586256   4.714059   0.002088  -0.000214
    17  H   -0.000042   0.000071  -0.000059   0.002088   0.376953  -0.002973
    18  H    0.003299  -0.000090  -0.000144  -0.000214  -0.002973   0.312731
    19  H   -0.007487   0.000097   0.007431   0.003041   0.000021  -0.000154
    20  H    0.004417  -0.000066   0.000120  -0.000043  -0.000002   0.001180
    21  H   -0.000440   0.000010  -0.000045   0.000004  -0.000000   0.000001
    22  H    0.000034  -0.000054   0.000021  -0.000002   0.000000   0.000002
    23  H   -0.007576   0.000004   0.008705   0.000111   0.000000   0.000000
    24  H    0.004690  -0.000057   0.000130   0.000007   0.000000  -0.000000
    25  H   -0.035568  -0.002822   0.000562  -0.000034  -0.000000   0.000002
    26  H   -0.047548  -0.001039   0.004932  -0.000052   0.000000  -0.000000
    27  H    0.005011  -0.000171  -0.040488   0.404909  -0.000080   0.000001
              19         20         21         22         23         24
     1  O    0.000001   0.000000  -0.000000  -0.000000   0.000000   0.000000
     2  N   -0.000007  -0.000000   0.000000   0.000000  -0.000000   0.000000
     3  O    0.000000   0.000000  -0.000000  -0.000000   0.000000   0.000000
     4  C   -0.001412  -0.000058   0.000001  -0.000000   0.000041   0.000000
     5  C    0.001674   0.000087   0.000001  -0.000002  -0.000001  -0.000000
     6  N   -0.000583  -0.000325  -0.000080  -0.000111  -0.000030   0.000006
     7  C   -0.037072  -0.043222   0.004589  -0.004836   0.000594  -0.000134
     8  H    0.004300  -0.002149  -0.000079   0.003534   0.000032  -0.000101
     9  C    0.390447   0.399318  -0.036372  -0.047034  -0.001983   0.004416
    10  C   -0.031998  -0.035023   0.402325   0.397857  -0.039076  -0.038493
    11  C   -0.002163   0.003939  -0.034896  -0.045225   0.399152   0.402392
    12  C    0.000687  -0.000428   0.004356  -0.001027  -0.037909  -0.038582
    13  C   -0.007487   0.004417  -0.000440   0.000034  -0.007576   0.004690
    14  H    0.000097  -0.000066   0.000010  -0.000054   0.000004  -0.000057
    15  N    0.007431   0.000120  -0.000045   0.000021   0.008705   0.000130
    16  C    0.003041  -0.000043   0.000004  -0.000002   0.000111   0.000007
    17  H    0.000021  -0.000002  -0.000000   0.000000   0.000000   0.000000
    18  H   -0.000154   0.001180   0.000001   0.000002   0.000000  -0.000000
    19  H    0.505621  -0.025106  -0.002801   0.003969   0.001522  -0.000067
    20  H   -0.025106   0.543488  -0.002725  -0.002991  -0.000044  -0.000084
    21  H   -0.002801  -0.002725   0.524064  -0.027391  -0.002889  -0.002244
    22  H    0.003969  -0.002991  -0.027391   0.570576   0.004132  -0.003649
    23  H    0.001522  -0.000044  -0.002889   0.004132   0.499054  -0.025452
    24  H   -0.000067  -0.000084  -0.002244  -0.003649  -0.025452   0.537870
    25  H   -0.000030   0.000012  -0.000086  -0.000081  -0.002303  -0.002312
    26  H    0.000020  -0.000030  -0.000080   0.002380   0.004071  -0.003022
    27  H    0.000084   0.000000  -0.000000   0.000000  -0.000037  -0.000000
              25         26         27
     1  O    0.000000   0.000000   0.006524
     2  N   -0.000000  -0.000000  -0.000843
     3  O    0.000000   0.000000   0.000031
     4  C    0.000024   0.000006  -0.065066
     5  C   -0.000000  -0.000001   0.002036
     6  N   -0.000088  -0.000067   0.000015
     7  C    0.005194  -0.003782  -0.000416
     8  H   -0.000031   0.001651   0.000009
     9  C   -0.000414   0.000981  -0.000055
    10  C    0.004189  -0.002248   0.000006
    11  C   -0.033392  -0.041538   0.000012
    12  C    0.398239   0.396737  -0.000033
    13  C   -0.035568  -0.047548   0.005011
    14  H   -0.002822  -0.001039  -0.000171
    15  N    0.000562   0.004932  -0.040488
    16  C   -0.000034  -0.000052   0.404909
    17  H   -0.000000   0.000000  -0.000080
    18  H    0.000002  -0.000000   0.000001
    19  H   -0.000030   0.000020   0.000084
    20  H    0.000012  -0.000030   0.000000
    21  H   -0.000086  -0.000080  -0.000000
    22  H   -0.000081   0.002380   0.000000
    23  H   -0.002303   0.004071  -0.000037
    24  H   -0.002312  -0.003022  -0.000000
    25  H    0.505911  -0.024006  -0.000014
    26  H   -0.024006   0.562303   0.000001
    27  H   -0.000014   0.000001   0.437761
 Mulliken charges:
               1
     1  O   -0.467344
     2  N    0.491926
     3  O   -0.503483
     4  C    0.001172
     5  C    0.189602
     6  N   -0.775751
     7  C    0.054258
     8  H    0.182086
     9  C   -0.303679
    10  C   -0.327364
    11  C   -0.321881
    12  C   -0.306324
    13  C   -0.033090
    14  H    0.193061
    15  N   -0.516063
    16  C    0.117022
    17  H    0.294800
    18  H    0.403920
    19  H    0.189965
    20  H    0.159735
    21  H    0.174779
    22  H    0.149898
    23  H    0.199883
    24  H    0.164688
    25  H    0.187048
    26  H    0.150332
    27  H    0.250804
 Sum of Mulliken charges =  -0.00000
 Mulliken charges with hydrogens summed into heavy atoms:
               1
     1  O   -0.467344
     2  N    0.491926
     3  O   -0.503483
     4  C    0.001172
     5  C    0.484402
     6  N   -0.371831
     7  C    0.236345
     9  C    0.046021
    10  C   -0.002687
    11  C    0.042690
    12  C    0.031055
    13  C    0.159971
    15  N   -0.516063
    16  C    0.367826
 Electronic spatial extent (au):  <R**2>=           3005.0754
 Charge=             -0.0000 electrons
 Dipole moment (field-independent basis, Debye):
    X=              5.4559    Y=              4.7933    Z=              1.1563  Tot=              7.3539
 Quadrupole moment (field-independent basis, Debye-Ang):
   XX=           -106.1053   YY=            -78.9784   ZZ=            -81.8575
   XY=             -1.4926   XZ=             -0.5219   YZ=              1.2031
 Traceless Quadrupole moment (field-independent basis, Debye-Ang):
   XX=            -17.1249   YY=             10.0020   ZZ=              7.1229
   XY=             -1.4926   XZ=             -0.5219   YZ=              1.2031
 Octapole moment (field-independent basis, Debye-Ang**2):
  XXX=             92.4894  YYY=             36.3536  ZZZ=             -1.9695  XYY=             -4.8462
  XXY=              8.6335  XXZ=              7.4127  XZZ=             -9.0881  YZZ=             -0.8060
  YYZ=              6.6868  XYZ=              0.9925
 Hexadecapole moment (field-independent basis, Debye-Ang**3):
 XXXX=          -3374.7526 YYYY=           -600.5898 ZZZZ=           -306.5295 XXXY=            -13.8571
 XXXZ=            -36.8268 YYYX=             -4.0002 YYYZ=             22.2811 ZZZX=            -10.3998
 ZZZY=              5.9833 XXYY=           -626.9433 XXZZ=           -524.9166 YYZZ=           -159.7678
 XXYZ=             -4.8111 YYXZ=             -2.3475 ZZXY=              5.7012
 N-N= 9.310654810301D+02 E-N=-3.408841314839D+03  KE= 6.596299627170D+02
 Unable to Open any file for archive entry.
 1\1\GINC-LOTUS\FOpt\RMP2-FC\6-31G(d)\C9H13N3O2\ALEXEY\02-Jul-2023\0\\#
 MP2/6-31G* SCF=Tight Opt=(ModRedun, MaxCycle=20 ) NoSymm\\MolName:\\0,
 1\O,-3.514157909,-1.3685725408,-0.4285098847\N,-3.1200709838,-0.216131
 22,-0.1639526662\O,-3.8862207199,0.7566713705,-0.0223870705\C,-1.68791
 67851,-0.028904352,0.0056229159\C,-1.2935845011,1.2644975365,0.2362637
 299\N,-0.0567675694,1.7331150498,0.460409412\C,1.2104192081,1.01847185
 58,0.3989494519\H,1.8669738108,1.545082609,1.1074160505\C,1.8853658999
 ,1.0422404018,-0.9711682067\C,3.2879628884,0.4370171786,-0.8414213502\
 C,3.2550182738,-0.9642942029,-0.2256079121\C,2.4873932078,-0.987091929
 2,1.0978738265\C,1.0717592888,-0.4350929383,0.8942814504\H,0.515323507
 5,-0.4242510473,1.8440681257\N,0.4092428328,-1.3258919209,-0.053592103
 5\C,-0.8432676128,-1.1591595042,-0.3307804155\H,-2.0843780735,2.005592
 4731,0.3145604704\H,0.0081926638,2.7354881134,0.5964542828\H,1.2770777
 199,0.4688161474,-1.6790545908\H,1.9421449338,2.0731502098,-1.34279748
 51\H,3.7715386408,0.408131324,-1.8245528155\H,3.8994827863,1.099174161
 ,-0.2121234674\H,2.7640101379,-1.6561798819,-0.917134687\H,4.278236248
 1,-1.3274498095,-0.0730437015\H,2.4122740253,-2.0121849267,1.475121903
 2\H,3.0116469139,-0.3936889669,1.8597184704\H,-1.3086788332,-1.9275751
 902,-0.9476437332\\Version=ES64L-G16RevC.02\HF=-661.2997046\MP2=-663.3
 339497\RMSD=8.925e-09\RMSF=1.202e-03\Dipole=1.9951116,1.6900015,0.4359
 998\PG=C01 [X(C9H13N3O2)]\\@
 The archive entry for this job was punched.


 IT WAS A GAME, A VERY INTERESTING GAME ONE COULD
 PLAY.  WHENEVER ONE SOLVED ONE OF THE LITTLE PROBLEMS,
 ONE COULD WRITE A PAPER ABOUT IT.  IT WAS VERY EASY IN
 THOSE DAYS FOR ANY SECOND-RATE PHYSICIST TO DO
 FIRST-RATE WORK.  THERE HAS NOT BEEN SUCH A GLORIOUS
 TIME SINCE.  IT IS VERY DIFFICULT NOW FOR A FIRST-RATE
 PHYSICIST TO DO SECOND-RATE WORK.
     P.A.M. DIRAC, ON THE EARLY DAYS OF QUANTUM MECHANICS
                   DIRECTIONS IN PHYSICS, 1978, P. 7
 Job cpu time:       0 days  0 hours 57 minutes 20.0 seconds.
 Elapsed time:       0 days  0 hours 17 minutes 18.7 seconds.
 File lengths (MBytes):  RWF=     36 Int=      0 D2E=      0 Chk=      7 Scr=      1
 Normal termination of Gaussian 16 at Sun Jul  2 05:51:25 2023.
