 Entering Gaussian System, Link 0=g16
 Initial command:
 /home/alexey/programs//g16/l1.exe "/home/alexey/tmp/Gau-1455484.inp" -scrdir="/home/alexey/tmp/"
 Entering Link 1 = /home/alexey/programs//g16/l1.exe PID=   1455486.
  
 Copyright (c) 1988-2021, Gaussian, Inc.  All Rights Reserved.
  
 This is part of the Gaussian(R) 16 program.  It is based on
 the Gaussian(R) 09 system (copyright 2009, Gaussian, Inc.),
 the Gaussian(R) 03 system (copyright 2003, Gaussian, Inc.),
 the Gaussian(R) 98 system (copyright 1998, Gaussian, Inc.),
 the Gaussian(R) 94 system (copyright 1995, Gaussian, Inc.),
 the Gaussian 92(TM) system (copyright 1992, Gaussian, Inc.),
 the Gaussian 90(TM) system (copyright 1990, Gaussian, Inc.),
 the Gaussian 88(TM) system (copyright 1988, Gaussian, Inc.),
 the Gaussian 86(TM) system (copyright 1986, Carnegie Mellon
 University), and the Gaussian 82(TM) system (copyright 1983,
 Carnegie Mellon University). Gaussian is a federally registered
 trademark of Gaussian, Inc.
  
 This software contains proprietary and confidential information,
 including trade secrets, belonging to Gaussian, Inc.
  
 This software is provided under written license and may be
 used, copied, transmitted, or stored only in accord with that
 written license.
  
 The following legend is applicable only to US Government
 contracts under FAR:
  
                    RESTRICTED RIGHTS LEGEND
  
 Use, reproduction and disclosure by the US Government is
 subject to restrictions as set forth in subparagraphs (a)
 and (c) of the Commercial Computer Software - Restricted
 Rights clause in FAR 52.227-19.
  
 Gaussian, Inc.
 340 Quinnipiac St., Bldg. 40, Wallingford CT 06492
  
  
 ---------------------------------------------------------------
 Warning -- This program may not be used in any manner that
 competes with the business of Gaussian, Inc. or will provide
 assistance to any competitor of Gaussian, Inc.  The licensee
 of this program is prohibited from giving any competitor of
 Gaussian, Inc. access to this program.  By using this program,
 the user acknowledges that Gaussian, Inc. is engaged in the
 business of creating and licensing software in the field of
 computational chemistry and represents and warrants to the
 licensee that it is not a competitor of Gaussian, Inc. and that
 it will not use this program in any manner prohibited above.
 ---------------------------------------------------------------
  

 Cite this work as:
 Gaussian 16, Revision C.02,
 M. J. Frisch, G. W. Trucks, H. B. Schlegel, G. E. Scuseria, 
 M. A. Robb, J. R. Cheeseman, G. Scalmani, V. Barone, 
 G. A. Petersson, H. Nakatsuji, X. Li, M. Caricato, A. V. Marenich, 
 J. Bloino, B. G. Janesko, R. Gomperts, B. Mennucci, H. P. Hratchian, 
 J. V. Ortiz, A. F. Izmaylov, J. L. Sonnenberg, D. Williams-Young, 
 F. Ding, F. Lipparini, F. Egidi, J. Goings, B. Peng, A. Petrone, 
 T. Henderson, D. Ranasinghe, V. G. Zakrzewski, J. Gao, N. Rega, 
 G. Zheng, W. Liang, M. Hada, M. Ehara, K. Toyota, R. Fukuda, 
 J. Hasegawa, M. Ishida, T. Nakajima, Y. Honda, O. Kitao, H. Nakai, 
 T. Vreven, K. Throssell, J. A. Montgomery, Jr., J. E. Peralta, 
 F. Ogliaro, M. J. Bearpark, J. J. Heyd, E. N. Brothers, K. N. Kudin, 
 V. N. Staroverov, T. A. Keith, R. Kobayashi, J. Normand, 
 K. Raghavachari, A. P. Rendell, J. C. Burant, S. S. Iyengar, 
 J. Tomasi, M. Cossi, J. M. Millam, M. Klene, C. Adamo, R. Cammi, 
 J. W. Ochterski, R. L. Martin, K. Morokuma, O. Farkas, 
 J. B. Foresman, and D. J. Fox, Gaussian, Inc., Wallingford CT, 2019.
 
 ******************************************
 Gaussian 16:  ES64L-G16RevC.02  7-Dec-2021
                 2-Jul-2023 
 ******************************************
 %mem=8GB
 %NPROCS=4
 Will use up to    4 processors via shared memory.
 %NoSave
 ---------------------------------------------------------
 #MP2/6-31G* SCF=Tight Opt=(ModRedun, MaxCycle=20 ) NoSymm
 ---------------------------------------------------------
 1/6=20,18=120,19=15,38=1/1,3;
 2/9=110,12=2,15=1,17=6,18=5,40=1/2;
 3/5=1,6=6,7=1,11=9,25=1,30=1,71=1/1,2,3;
 4//1;
 5/5=2,32=2,38=5/2;
 8/6=4,10=2/1;
 9/15=2,16=-3/6;
 10/5=1,31=1/2;
 6/7=2,8=2,9=2,10=2/1;
 7/12=2,30=1/1,2,3,16;
 1/6=20,18=20,19=15/3(2);
 2/9=110,15=1/2;
 99//99;
 2/9=110,15=1/2;
 3/5=1,6=6,7=1,11=9,25=1,30=1,71=1/1,2,3;
 4/5=5,16=3,69=1/1;
 5/5=2,32=2,38=5/2;
 8/6=4,10=2/1;
 9/15=2,16=-3/6;
 10/5=1,31=1/2;
 7/12=2,30=1/1,2,3,16;
 1/6=20,18=20,19=15/3(-8);
 2/9=110,15=1/2;
 6/7=2,8=2,9=2,10=2/1;
 99/9=10/99;
 --------
 MolName:
 --------
 Symbolic Z-matrix:
 Charge =  0 Multiplicity = 1
 8                    0    -3.65861  -1.34627  -0.41249 
 7                    0    -3.24646  -0.19484  -0.28314 
 8                    0    -3.9754    0.79687  -0.33309 
 6                    0    -1.74419   0.00491  -0.06097 
 6                    0    -1.33641   1.31696   0.20755 
 7                    0    -0.08292   1.70883   0.58946 
 6                    0     1.20596   0.97451   0.45369 
 1                    0     1.91538   1.47796   1.16086 
 6                    0     1.86891   1.04546  -0.9442 
 6                    0     3.29974   0.48082  -0.85914 
 6                    0     3.30114  -0.93892  -0.26992 
 6                    0     2.54689  -0.99154   1.07651 
 6                    0     1.08813  -0.47766   0.93222 
 1                    0     0.60541  -0.52561   1.9364 
 7                    0     0.3771   -1.36367   0.00954 
 6                    0    -0.88698  -1.20593  -0.21104 
 1                    0    -2.09686   2.11493   0.18729 
 1                    0     0.1512    2.70304   0.64376 
 1                    0     1.27435   0.46237  -1.67935 
 1                    0     1.91056   2.09856  -1.29472 
 1                    0     3.76366   0.46949  -1.86969 
 1                    0     3.91476   1.14039  -0.20705 
 1                    0     2.81166  -1.63119  -0.99169 
 1                    0     4.34716  -1.28821  -0.12852 
 1                    0     2.53143  -2.04002   1.44682 
 1                    0     3.08541  -0.37577   1.82696 
 1                    0    -1.414    -2.05543  -0.67104 
 
 The following ModRedundant input section has been read:
 D       4       5       6       7 F                                           
 D       1       2       4      16 F                                           
 D       7      13      15      16 F                                           
 D       7       9      10      11 F                                           
 D       9      10      11      12 F                                           
 D       6       7      13      15 F                                           
 

 GradGradGradGradGradGradGradGradGradGradGradGradGradGradGradGradGradGrad
 Berny optimization.
 Initialization pass.
                           ----------------------------
                           !    Initial Parameters    !
                           ! (Angstroms and Degrees)  !
 --------------------------                            --------------------------
 ! Name  Definition              Value          Derivative Info.                !
 --------------------------------------------------------------------------------
 ! R1    R(1,2)                  1.2298         estimate D2E/DX2                !
 ! R2    R(2,3)                  1.2318         estimate D2E/DX2                !
 ! R3    R(2,4)                  1.5317         estimate D2E/DX2                !
 ! R4    R(4,5)                  1.4            estimate D2E/DX2                !
 ! R5    R(4,16)                 1.4911         estimate D2E/DX2                !
 ! R6    R(5,6)                  1.3677         estimate D2E/DX2                !
 ! R7    R(5,17)                 1.1025         estimate D2E/DX2                !
 ! R8    R(6,7)                  1.4896         estimate D2E/DX2                !
 ! R9    R(6,18)                 1.0228         estimate D2E/DX2                !
 ! R10   R(7,8)                  1.1211         estimate D2E/DX2                !
 ! R11   R(7,9)                  1.5488         estimate D2E/DX2                !
 ! R12   R(7,13)                 1.5335         estimate D2E/DX2                !
 ! R13   R(9,10)                 1.5406         estimate D2E/DX2                !
 ! R14   R(9,19)                 1.1108         estimate D2E/DX2                !
 ! R15   R(9,20)                 1.1107         estimate D2E/DX2                !
 ! R16   R(10,11)                1.5372         estimate D2E/DX2                !
 ! R17   R(10,21)                1.112          estimate D2E/DX2                !
 ! R18   R(10,22)                1.1129         estimate D2E/DX2                !
 ! R19   R(11,12)                1.5442         estimate D2E/DX2                !
 ! R20   R(11,23)                1.1135         estimate D2E/DX2                !
 ! R21   R(11,24)                1.1118         estimate D2E/DX2                !
 ! R22   R(12,13)                1.5533         estimate D2E/DX2                !
 ! R23   R(12,25)                1.1121         estimate D2E/DX2                !
 ! R24   R(12,26)                1.1101         estimate D2E/DX2                !
 ! R25   R(13,14)                1.1152         estimate D2E/DX2                !
 ! R26   R(13,15)                1.4635         estimate D2E/DX2                !
 ! R27   R(15,16)                1.2928         estimate D2E/DX2                !
 ! R28   R(16,27)                1.1005         estimate D2E/DX2                !
 ! A1    A(1,2,3)              123.4493         estimate D2E/DX2                !
 ! A2    A(1,2,4)              117.7787         estimate D2E/DX2                !
 ! A3    A(3,2,4)              118.7697         estimate D2E/DX2                !
 ! A4    A(2,4,5)              115.8318         estimate D2E/DX2                !
 ! A5    A(2,4,16)             116.3169         estimate D2E/DX2                !
 ! A6    A(5,4,16)             127.7993         estimate D2E/DX2                !
 ! A7    A(4,5,6)              126.0887         estimate D2E/DX2                !
 ! A8    A(4,5,17)             118.2885         estimate D2E/DX2                !
 ! A9    A(6,5,17)             115.462          estimate D2E/DX2                !
 ! A10   A(5,6,7)              128.7778         estimate D2E/DX2                !
 ! A11   A(5,6,18)             120.2047         estimate D2E/DX2                !
 ! A12   A(7,6,18)             106.616          estimate D2E/DX2                !
 ! A13   A(6,7,8)              105.5846         estimate D2E/DX2                !
 ! A14   A(6,7,9)              115.4715         estimate D2E/DX2                !
 ! A15   A(6,7,13)             111.8324         estimate D2E/DX2                !
 ! A16   A(8,7,9)              106.135          estimate D2E/DX2                !
 ! A17   A(8,7,13)             106.0835         estimate D2E/DX2                !
 ! A18   A(9,7,13)             110.9727         estimate D2E/DX2                !
 ! A19   A(7,9,10)             109.3258         estimate D2E/DX2                !
 ! A20   A(7,9,19)             110.1317         estimate D2E/DX2                !
 ! A21   A(7,9,20)             110.1413         estimate D2E/DX2                !
 ! A22   A(10,9,19)            109.9541         estimate D2E/DX2                !
 ! A23   A(10,9,20)            109.2755         estimate D2E/DX2                !
 ! A24   A(19,9,20)            107.9937         estimate D2E/DX2                !
 ! A25   A(9,10,11)            111.1328         estimate D2E/DX2                !
 ! A26   A(9,10,21)            109.9399         estimate D2E/DX2                !
 ! A27   A(9,10,22)            109.172          estimate D2E/DX2                !
 ! A28   A(11,10,21)           109.7888         estimate D2E/DX2                !
 ! A29   A(11,10,22)           108.8015         estimate D2E/DX2                !
 ! A30   A(21,10,22)           107.9369         estimate D2E/DX2                !
 ! A31   A(10,11,12)           111.4233         estimate D2E/DX2                !
 ! A32   A(10,11,23)           108.9876         estimate D2E/DX2                !
 ! A33   A(10,11,24)           109.8628         estimate D2E/DX2                !
 ! A34   A(12,11,23)           109.2263         estimate D2E/DX2                !
 ! A35   A(12,11,24)           109.7513         estimate D2E/DX2                !
 ! A36   A(23,11,24)           107.4999         estimate D2E/DX2                !
 ! A37   A(11,12,13)           111.4959         estimate D2E/DX2                !
 ! A38   A(11,12,25)           109.2242         estimate D2E/DX2                !
 ! A39   A(11,12,26)           109.4867         estimate D2E/DX2                !
 ! A40   A(13,12,25)           109.2557         estimate D2E/DX2                !
 ! A41   A(13,12,26)           109.5638         estimate D2E/DX2                !
 ! A42   A(25,12,26)           107.7349         estimate D2E/DX2                !
 ! A43   A(7,13,12)            105.6703         estimate D2E/DX2                !
 ! A44   A(7,13,14)            110.7906         estimate D2E/DX2                !
 ! A45   A(7,13,15)            114.4488         estimate D2E/DX2                !
 ! A46   A(12,13,14)           107.9766         estimate D2E/DX2                !
 ! A47   A(12,13,15)           108.3328         estimate D2E/DX2                !
 ! A48   A(14,13,15)           109.3512         estimate D2E/DX2                !
 ! A49   A(13,15,16)           120.579          estimate D2E/DX2                !
 ! A50   A(4,16,15)            130.09           estimate D2E/DX2                !
 ! A51   A(4,16,27)            113.179          estimate D2E/DX2                !
 ! A52   A(15,16,27)           116.4483         estimate D2E/DX2                !
 ! D1    D(1,2,4,5)           -174.1573         estimate D2E/DX2                !
 ! D2    D(1,2,4,16)             8.2583         Frozen                          !
 ! D3    D(3,2,4,5)              6.3697         estimate D2E/DX2                !
 ! D4    D(3,2,4,16)          -171.2147         estimate D2E/DX2                !
 ! D5    D(2,4,5,6)            171.8903         estimate D2E/DX2                !
 ! D6    D(2,4,5,17)            -3.2738         estimate D2E/DX2                !
 ! D7    D(16,4,5,6)           -10.8502         estimate D2E/DX2                !
 ! D8    D(16,4,5,17)          173.9857         estimate D2E/DX2                !
 ! D9    D(2,4,16,15)         -174.2618         estimate D2E/DX2                !
 ! D10   D(2,4,16,27)           12.1596         estimate D2E/DX2                !
 ! D11   D(5,4,16,15)            8.49           estimate D2E/DX2                !
 ! D12   D(5,4,16,27)         -165.0885         estimate D2E/DX2                !
 ! D13   D(4,5,6,7)             18.7985         Frozen                          !
 ! D14   D(4,5,6,18)           171.9367         estimate D2E/DX2                !
 ! D15   D(17,5,6,7)          -165.9177         estimate D2E/DX2                !
 ! D16   D(17,5,6,18)          -12.7795         estimate D2E/DX2                !
 ! D17   D(5,6,7,8)           -162.5825         estimate D2E/DX2                !
 ! D18   D(5,6,7,9)             80.5174         estimate D2E/DX2                !
 ! D19   D(5,6,7,13)           -47.6483         estimate D2E/DX2                !
 ! D20   D(18,6,7,8)            41.4662         estimate D2E/DX2                !
 ! D21   D(18,6,7,9)           -75.434          estimate D2E/DX2                !
 ! D22   D(18,6,7,13)          156.4004         estimate D2E/DX2                !
 ! D23   D(6,7,9,10)           169.2412         estimate D2E/DX2                !
 ! D24   D(6,7,9,19)           -69.8458         estimate D2E/DX2                !
 ! D25   D(6,7,9,20)            49.1596         estimate D2E/DX2                !
 ! D26   D(8,7,9,10)            52.6513         estimate D2E/DX2                !
 ! D27   D(8,7,9,19)           173.5643         estimate D2E/DX2                !
 ! D28   D(8,7,9,20)           -67.4303         estimate D2E/DX2                !
 ! D29   D(13,7,9,10)          -62.1677         estimate D2E/DX2                !
 ! D30   D(13,7,9,19)           58.7453         estimate D2E/DX2                !
 ! D31   D(13,7,9,20)          177.7507         estimate D2E/DX2                !
 ! D32   D(6,7,13,12)         -165.8732         estimate D2E/DX2                !
 ! D33   D(6,7,13,14)          -49.1693         estimate D2E/DX2                !
 ! D34   D(6,7,13,15)           75.0228         Frozen                          !
 ! D35   D(8,7,13,12)          -51.2455         estimate D2E/DX2                !
 ! D36   D(8,7,13,14)           65.4583         estimate D2E/DX2                !
 ! D37   D(8,7,13,15)         -170.3496         estimate D2E/DX2                !
 ! D38   D(9,7,13,12)           63.6056         estimate D2E/DX2                !
 ! D39   D(9,7,13,14)         -179.6905         estimate D2E/DX2                !
 ! D40   D(9,7,13,15)          -55.4984         estimate D2E/DX2                !
 ! D41   D(7,9,10,11)           54.8123         Frozen                          !
 ! D42   D(7,9,10,21)          176.5705         estimate D2E/DX2                !
 ! D43   D(7,9,10,22)          -65.2014         estimate D2E/DX2                !
 ! D44   D(19,9,10,11)         -66.2087         estimate D2E/DX2                !
 ! D45   D(19,9,10,21)          55.5496         estimate D2E/DX2                !
 ! D46   D(19,9,10,22)         173.7776         estimate D2E/DX2                !
 ! D47   D(20,9,10,11)         175.4236         estimate D2E/DX2                !
 ! D48   D(20,9,10,21)         -62.8181         estimate D2E/DX2                !
 ! D49   D(20,9,10,22)          55.4099         estimate D2E/DX2                !
 ! D50   D(9,10,11,12)         -52.8223         Frozen                          !
 ! D51   D(9,10,11,23)          67.7819         estimate D2E/DX2                !
 ! D52   D(9,10,11,24)        -174.6743         estimate D2E/DX2                !
 ! D53   D(21,10,11,12)       -174.6685         estimate D2E/DX2                !
 ! D54   D(21,10,11,23)        -54.0644         estimate D2E/DX2                !
 ! D55   D(21,10,11,24)         63.4794         estimate D2E/DX2                !
 ! D56   D(22,10,11,12)         67.4111         estimate D2E/DX2                !
 ! D57   D(22,10,11,23)       -171.9848         estimate D2E/DX2                !
 ! D58   D(22,10,11,24)        -54.4409         estimate D2E/DX2                !
 ! D59   D(10,11,12,13)         56.6749         estimate D2E/DX2                !
 ! D60   D(10,11,12,25)        177.5189         estimate D2E/DX2                !
 ! D61   D(10,11,12,26)        -64.7322         estimate D2E/DX2                !
 ! D62   D(23,11,12,13)        -63.789          estimate D2E/DX2                !
 ! D63   D(23,11,12,25)         57.0549         estimate D2E/DX2                !
 ! D64   D(23,11,12,26)        174.8039         estimate D2E/DX2                !
 ! D65   D(24,11,12,13)        178.5916         estimate D2E/DX2                !
 ! D66   D(24,11,12,25)        -60.5645         estimate D2E/DX2                !
 ! D67   D(24,11,12,26)         57.1845         estimate D2E/DX2                !
 ! D68   D(11,12,13,7)         -60.521          estimate D2E/DX2                !
 ! D69   D(11,12,13,14)       -179.115          estimate D2E/DX2                !
 ! D70   D(11,12,13,15)         62.5579         estimate D2E/DX2                !
 ! D71   D(25,12,13,7)         178.6534         estimate D2E/DX2                !
 ! D72   D(25,12,13,14)         60.0595         estimate D2E/DX2                !
 ! D73   D(25,12,13,15)        -58.2676         estimate D2E/DX2                !
 ! D74   D(26,12,13,7)          60.8413         estimate D2E/DX2                !
 ! D75   D(26,12,13,14)        -57.7527         estimate D2E/DX2                !
 ! D76   D(26,12,13,15)       -176.0798         estimate D2E/DX2                !
 ! D77   D(7,13,15,16)         -67.1608         Frozen                          !
 ! D78   D(12,13,15,16)        175.2442         estimate D2E/DX2                !
 ! D79   D(14,13,15,16)         57.7945         estimate D2E/DX2                !
 ! D80   D(13,15,16,4)          23.64           estimate D2E/DX2                !
 ! D81   D(13,15,16,27)       -162.9539         estimate D2E/DX2                !
 --------------------------------------------------------------------------------
 Trust Radius=3.00D-01 FncErr=1.00D-07 GrdErr=1.00D-07 EigMax=2.50D+02 EigMin=1.00D-04
 Number of steps in this run=     20 maximum allowed number of steps=    162.
 GradGradGradGradGradGradGradGradGradGradGradGradGradGradGradGradGradGrad

                          Input orientation:                          
 ---------------------------------------------------------------------
 Center     Atomic      Atomic             Coordinates (Angstroms)
 Number     Number       Type             X           Y           Z
 ---------------------------------------------------------------------
      1          8           0       -3.658610   -1.346270   -0.412490
      2          7           0       -3.246460   -0.194840   -0.283140
      3          8           0       -3.975400    0.796870   -0.333090
      4          6           0       -1.744190    0.004910   -0.060970
      5          6           0       -1.336410    1.316960    0.207550
      6          7           0       -0.082920    1.708830    0.589460
      7          6           0        1.205960    0.974510    0.453690
      8          1           0        1.915380    1.477960    1.160860
      9          6           0        1.868910    1.045460   -0.944200
     10          6           0        3.299740    0.480820   -0.859140
     11          6           0        3.301140   -0.938920   -0.269920
     12          6           0        2.546890   -0.991540    1.076510
     13          6           0        1.088130   -0.477660    0.932220
     14          1           0        0.605410   -0.525610    1.936400
     15          7           0        0.377100   -1.363670    0.009540
     16          6           0       -0.886980   -1.205930   -0.211040
     17          1           0       -2.096860    2.114930    0.187290
     18          1           0        0.151200    2.703040    0.643760
     19          1           0        1.274350    0.462370   -1.679350
     20          1           0        1.910560    2.098560   -1.294720
     21          1           0        3.763660    0.469490   -1.869690
     22          1           0        3.914760    1.140390   -0.207050
     23          1           0        2.811660   -1.631190   -0.991690
     24          1           0        4.347160   -1.288210   -0.128520
     25          1           0        2.531430   -2.040020    1.446820
     26          1           0        3.085410   -0.375770    1.826960
     27          1           0       -1.414000   -2.055430   -0.671040
 ---------------------------------------------------------------------
                    Distance matrix (angstroms):
                    1          2          3          4          5
     1  O    0.000000
     2  N    1.229793   0.000000
     3  O    2.167881   1.231802   0.000000
     4  C    2.369442   1.531690   2.383180   0.000000
     5  C    3.587458   2.484876   2.743548   1.399951   0.000000
     6  N    4.808648   3.793860   4.102947   2.467027   1.367719
     7  C    5.458968   4.662010   5.243765   3.147759   2.577111
     8  H    6.443684   5.614979   6.115313   4.129794   3.392471
     9  C    6.046203   5.304937   5.881429   3.862296   3.416770
    10  C    7.208078   6.606136   7.300978   5.128820   4.830201
    11  C    6.973118   6.589757   7.480975   5.137103   5.179174
    12  C    6.391493   6.003856   6.908375   4.549741   4.600465
    13  C    5.009418   4.510627   5.372595   3.039957   3.102290
    14  H    4.936865   4.457877   5.280470   3.129147   3.186636
    15  N    4.057754   3.818640   4.871302   2.525441   3.187648
    16  C    2.782483   2.568005   3.682994   1.491128   2.596571
    17  H    3.844308   2.622579   2.353081   2.153647   1.102475
    18  H    5.659260   4.560805   4.649360   3.371803   2.079539
    19  H    5.404647   4.776929   5.429934   3.455432   3.332684
    20  H    6.607635   5.733920   6.104396   4.388930   3.662039
    21  H    7.778850   7.218051   7.896921   5.815816   5.571700
    22  H    7.973808   7.285033   7.898640   5.773592   5.270470
    23  H    6.502388   6.266256   7.238329   4.929385   5.228408
    24  H    8.011015   7.673489   8.582215   6.227461   6.261216
    25  H    6.500378   6.307255   7.318119   4.973540   5.269278
    26  H    7.172086   6.676663   7.476359   5.199445   5.004030
    27  H    2.368128   2.640108   3.848454   2.173985   3.485822
                    6          7          8          9         10
     6  N    0.000000
     7  C    1.489588   0.000000
     8  H    2.091172   1.121083   0.000000
     9  C    2.569399   1.548752   2.149533   0.000000
    10  C    3.879283   2.520152   2.644077   1.540561   0.000000
    11  C    4.381892   2.928243   3.131896   2.538444   1.537154
    12  C    3.800673   2.459949   2.550363   2.948270   2.545853
    13  C    2.503913   1.533516   2.135666   2.539776   3.003144
    14  H    2.698290   2.193046   2.516302   3.516042   4.010905
    15  N    3.160408   2.520191   3.430263   2.989820   3.563506
    16  C    3.127801   3.094605   4.115653   3.633347   4.560020
    17  H    2.093469   3.504304   4.177516   4.260442   5.734860
    18  H    1.022846   2.033829   2.209195   2.867005   4.136457
    19  H    2.922900   2.194726   3.083689   1.110829   2.185244
    20  H    2.770557   2.194741   2.532793   1.110684   2.176381
    21  H    4.730704   3.492130   3.690174   2.185944   1.112008
    22  H    4.115701   2.793151   2.445946   2.176673   1.112881
    23  H    4.694077   3.384829   3.886335   2.838219   2.171722
    24  H    5.396606   3.914845   3.902275   3.500439   2.181825
    25  H    4.650136   3.439559   3.582942   3.959305   3.501769
    26  H    3.989396   2.690996   2.291064   3.343515   2.827511
    27  H    4.186919   4.160498   5.188976   4.524117   5.356052
                   11         12         13         14         15
    11  C    0.000000
    12  C    1.544194   0.000000
    13  C    2.560335   1.553343   0.000000
    14  H    3.507939   2.173901   1.115211   0.000000
    15  N    2.967915   2.446404   1.463529   2.113589   0.000000
    16  C    4.197036   3.673583   2.395512   2.702140   1.292840
    17  H    6.218798   5.657321   4.173800   4.163424   4.272322
    18  H    4.901103   4.424537   3.328348   3.507336   4.122062
    19  H    2.838659   3.365706   2.781840   3.807523   2.644207
    20  H    3.494311   3.946690   3.503222   4.362318   4.004951
    21  H    2.181011   3.506456   3.988264   5.044907   4.284947
    22  H    2.168873   2.839669   3.450487   4.280389   4.339616
    23  H    1.113454   2.180988   2.828890   3.829302   2.645961
    24  H    1.111825   2.186569   3.521851   4.341215   3.973176
    25  H    2.179925   1.112061   2.188355   2.498535   2.676632
    26  H    2.181876   1.110113   2.190906   2.486932   3.407918
    27  H    4.862102   4.458076   3.364588   3.635534   2.037096
                   16         17         18         19         20
    16  C    0.000000
    17  H    3.556766   0.000000
    18  H    4.133830   2.368124   0.000000
    19  H    3.100082   4.192894   3.417442   0.000000
    20  H    4.463210   4.272708   2.686717   1.797170   0.000000
    21  H    5.214078   6.425289   4.935184   2.496587   2.533464
    22  H    5.344337   6.102852   4.162948   3.098248   2.473446
    23  H    3.803971   6.286253   5.342124   2.686855   3.849006
    24  H    5.235437   7.294278   5.842309   3.861575   4.332119
    25  H    3.889696   6.345951   5.367217   4.197040   5.002936
    26  H    4.541199   5.978965   4.414592   4.034430   4.153007
    27  H    1.100455   4.312184   5.178956   3.818800   5.356987
                   21         22         23         24         25
    21  H    0.000000
    22  H    1.799253   0.000000
    23  H    2.467802   3.084501   0.000000
    24  H    2.541978   2.468043   1.794563   0.000000
    25  H    4.337657   3.842382   2.488373   2.518688   0.000000
    26  H    3.852234   2.669037   3.097710   2.499692   1.794750
    27  H    5.883889   6.230910   4.258990   5.837287   4.477944
                   26         27
    26  H    0.000000
    27  H    5.413497   0.000000
 Symmetry turned off by external request.
 Stoichiometry    C9H13N3O2
 Framework group  C1[X(C9H13N3O2)]
 Deg. of freedom    75
 Full point group                 C1      NOp   1
 Rotational constants (GHZ):           1.6374593           0.4008969           0.3575130
 Standard basis: 6-31G(d) (6D, 7F)
   236 basis functions,   444 primitive gaussians,   236 cartesian basis functions
    52 alpha electrons       52 beta electrons
       nuclear repulsion energy       917.1005328655 Hartrees.
 NAtoms=   27 NActive=   27 NUniq=   27 SFac= 1.00D+00 NAtFMM=   60 NAOKFM=F Big=F
 Integral buffers will be    131072 words long.
 Raffenetti 1 integral format.
 Two-electron integral symmetry is turned off.
 One-electron integrals computed using PRISM.
 NBasis=   236 RedAO= T EigKep=  1.28D-03  NBF=   236
 NBsUse=   236 1.00D-06 EigRej= -1.00D+00 NBFU=   236
 ExpMin= 1.61D-01 ExpMax= 5.48D+03 ExpMxC= 8.25D+02 IAcc=3 IRadAn=         5 AccDes= 0.00D+00
 Harris functional with IExCor=  205 and IRadAn=       5 diagonalized for initial guess.
 HarFok:  IExCor=  205 AccDes= 0.00D+00 IRadAn=         5 IDoV= 1 UseB2=F ITyADJ=14
 ICtDFT=  3500011 ScaDFX=  1.000000  1.000000  1.000000  1.000000
 FoFCou: FMM=F IPFlag=           0 FMFlag=      100000 FMFlg1=           0
         NFxFlg=           0 DoJE=T BraDBF=F KetDBF=T FulRan=T
         wScrn=  0.000000 ICntrl=       500 IOpCl=  0 I1Cent=   200000004 NGrid=           0
         NMat0=    1 NMatS0=      1 NMatT0=    0 NMatD0=    1 NMtDS0=    0 NMtDT0=    0
 Symmetry not used in FoFCou.
 Keep R1 ints in memory in canonical form, NReq=397720213.
 Requested convergence on RMS density matrix=1.00D-08 within 128 cycles.
 Requested convergence on MAX density matrix=1.00D-06.
 Requested convergence on             energy=1.00D-06.
 No special actions if energy rises.
 SCF Done:  E(RHF) =  -661.279026038     A.U. after   16 cycles
            NFock= 16  Conv=0.63D-08     -V/T= 2.0037
 ExpMin= 1.61D-01 ExpMax= 5.48D+03 ExpMxC= 8.25D+02 IAcc=3 IRadAn=         5 AccDes= 0.00D+00
 HarFok:  IExCor=  205 AccDes= 0.00D+00 IRadAn=         5 IDoV=-2 UseB2=F ITyADJ=14
 ICtDFT= 12500011 ScaDFX=  1.000000  1.000000  1.000000  1.000000
 Range of M.O.s used for correlation:    15   236
 NBasis=   236 NAE=    52 NBE=    52 NFC=    14 NFV=     0
 NROrb=    222 NOA=    38 NOB=    38 NVA=   184 NVB=   184
 Fully direct method using O(ONN) memory.
 JobTyp=1 Pass  1:  I=  15 to  52 NPSUse=  4 ParTrn=T ParDer=T DoDerP=T.
 Spin components of T(2) and E(2):
     alpha-alpha T2 =       0.9211837512D-01 E2=     -0.2719428699D+00
     alpha-beta  T2 =       0.4995865022D+00 E2=     -0.1493651381D+01
     beta-beta   T2 =       0.9211837512D-01 E2=     -0.2719428699D+00
 ANorm=    0.1297622153D+01
 E2 =    -0.2037537121D+01 EUMP2 =    -0.66331656315851D+03
          IDoAtm=111111111111111111111111111
          Differentiating once with respect to electric field.
                with respect to dipole field.
          Differentiating once with respect to nuclear coordinates.
 Keep R1 ints in memory in canonical form, NReq=397723379.
          There are     1 degrees of freedom in the 1st order CPHF.  IDoFFX=0 NUNeed=     1.
 LinEq1:  Iter=  0 NonCon=     1 RMS=4.66D-03 Max=1.26D-01 NDo=     1
 AX will form     1 AO Fock derivatives at one time.
 LinEq1:  Iter=  1 NonCon=     1 RMS=1.59D-03 Max=3.86D-02 NDo=     1
 LinEq1:  Iter=  2 NonCon=     1 RMS=6.53D-04 Max=2.05D-02 NDo=     1
 LinEq1:  Iter=  3 NonCon=     1 RMS=2.98D-04 Max=9.74D-03 NDo=     1
 LinEq1:  Iter=  4 NonCon=     1 RMS=9.37D-05 Max=2.49D-03 NDo=     1
 LinEq1:  Iter=  5 NonCon=     1 RMS=3.87D-05 Max=1.83D-03 NDo=     1
 LinEq1:  Iter=  6 NonCon=     1 RMS=1.59D-05 Max=5.53D-04 NDo=     1
 LinEq1:  Iter=  7 NonCon=     1 RMS=6.04D-06 Max=7.37D-05 NDo=     1
 LinEq1:  Iter=  8 NonCon=     1 RMS=2.38D-06 Max=4.94D-05 NDo=     1
 LinEq1:  Iter=  9 NonCon=     1 RMS=8.75D-07 Max=2.46D-05 NDo=     1
 LinEq1:  Iter= 10 NonCon=     1 RMS=4.18D-07 Max=1.35D-05 NDo=     1
 LinEq1:  Iter= 11 NonCon=     1 RMS=1.56D-07 Max=5.58D-06 NDo=     1
 LinEq1:  Iter= 12 NonCon=     1 RMS=5.49D-08 Max=8.37D-07 NDo=     1
 LinEq1:  Iter= 13 NonCon=     1 RMS=1.70D-08 Max=2.93D-07 NDo=     1
 LinEq1:  Iter= 14 NonCon=     1 RMS=5.06D-09 Max=1.17D-07 NDo=     1
 LinEq1:  Iter= 15 NonCon=     1 RMS=1.76D-09 Max=5.76D-08 NDo=     1
 LinEq1:  Iter= 16 NonCon=     1 RMS=6.64D-10 Max=1.60D-08 NDo=     1
 LinEq1:  Iter= 17 NonCon=     1 RMS=2.19D-10 Max=3.49D-09 NDo=     1
 LinEq1:  Iter= 18 NonCon=     1 RMS=7.90D-11 Max=1.16D-09 NDo=     1
 LinEq1:  Iter= 19 NonCon=     0 RMS=2.63D-11 Max=3.83D-10 NDo=     1
 Linear equations converged to 1.000D-10 1.000D-09 after    19 iterations.
 End of Minotr F.D. properties file   721 does not exist.
 End of Minotr F.D. properties file   722 does not exist.
 End of Minotr F.D. properties file   788 does not exist.

 **********************************************************************

            Population analysis using the SCF Density.

 **********************************************************************

 Alpha  occ. eigenvalues --  -20.59760 -20.59381 -15.85283 -15.63832 -15.56167
 Alpha  occ. eigenvalues --  -11.35991 -11.30474 -11.30127 -11.30067 -11.27504
 Alpha  occ. eigenvalues --  -11.24696 -11.23923 -11.23264 -11.22850  -1.58452
 Alpha  occ. eigenvalues --   -1.37931  -1.29022  -1.22443  -1.13292  -1.08402
 Alpha  occ. eigenvalues --   -1.01726  -1.00734  -0.93717  -0.88905  -0.84921
 Alpha  occ. eigenvalues --   -0.81524  -0.77974  -0.77053  -0.74361  -0.71243
 Alpha  occ. eigenvalues --   -0.70240  -0.69794  -0.67337  -0.64116  -0.63357
 Alpha  occ. eigenvalues --   -0.62012  -0.59700  -0.57322  -0.56591  -0.54772
 Alpha  occ. eigenvalues --   -0.54229  -0.50480  -0.49848  -0.48551  -0.47899
 Alpha  occ. eigenvalues --   -0.47715  -0.46368  -0.45422  -0.44024  -0.42142
 Alpha  occ. eigenvalues --   -0.39035  -0.33588
 Alpha virt. eigenvalues --    0.07366   0.11572   0.17323   0.21482   0.23641
 Alpha virt. eigenvalues --    0.24888   0.26307   0.28074   0.28548   0.28879
 Alpha virt. eigenvalues --    0.29733   0.31391   0.31755   0.32414   0.33193
 Alpha virt. eigenvalues --    0.33938   0.34611   0.35779   0.37604   0.38770
 Alpha virt. eigenvalues --    0.40307   0.41167   0.43860   0.45145   0.45355
 Alpha virt. eigenvalues --    0.47157   0.49802   0.53184   0.57536   0.58886
 Alpha virt. eigenvalues --    0.63311   0.68314   0.69534   0.72415   0.74094
 Alpha virt. eigenvalues --    0.74895   0.75768   0.75790   0.78180   0.78462
 Alpha virt. eigenvalues --    0.80819   0.82764   0.84569   0.85160   0.87697
 Alpha virt. eigenvalues --    0.88501   0.90549   0.91566   0.92308   0.93854
 Alpha virt. eigenvalues --    0.94947   0.97405   0.99370   1.00972   1.02054
 Alpha virt. eigenvalues --    1.02934   1.04936   1.06036   1.07105   1.08575
 Alpha virt. eigenvalues --    1.09824   1.10591   1.11779   1.12716   1.13148
 Alpha virt. eigenvalues --    1.13536   1.14262   1.15332   1.15810   1.16729
 Alpha virt. eigenvalues --    1.17874   1.20129   1.21687   1.22046   1.22962
 Alpha virt. eigenvalues --    1.23709   1.24753   1.25403   1.27089   1.28134
 Alpha virt. eigenvalues --    1.29041   1.31827   1.34381   1.36427   1.38874
 Alpha virt. eigenvalues --    1.41505   1.47855   1.50445   1.52280   1.53620
 Alpha virt. eigenvalues --    1.55964   1.58534   1.60809   1.61982   1.65506
 Alpha virt. eigenvalues --    1.67506   1.69548   1.71556   1.72725   1.76665
 Alpha virt. eigenvalues --    1.79130   1.82140   1.84038   1.87387   1.91257
 Alpha virt. eigenvalues --    1.93648   1.96010   1.97882   1.99768   2.00694
 Alpha virt. eigenvalues --    2.02979   2.03376   2.06013   2.09528   2.11513
 Alpha virt. eigenvalues --    2.11760   2.13286   2.16904   2.18264   2.19751
 Alpha virt. eigenvalues --    2.19968   2.22079   2.23786   2.24851   2.25889
 Alpha virt. eigenvalues --    2.28913   2.32014   2.33016   2.35399   2.36664
 Alpha virt. eigenvalues --    2.39754   2.42002   2.42560   2.44555   2.45908
 Alpha virt. eigenvalues --    2.49133   2.50520   2.50869   2.55919   2.57142
 Alpha virt. eigenvalues --    2.60402   2.64685   2.65353   2.67874   2.68303
 Alpha virt. eigenvalues --    2.69115   2.70448   2.74178   2.75572   2.81374
 Alpha virt. eigenvalues --    2.84361   2.86195   2.90490   2.91308   2.94154
 Alpha virt. eigenvalues --    2.97549   2.97909   3.02100   3.05799   3.06588
 Alpha virt. eigenvalues --    3.07969   3.14755   3.18267   3.22912   3.27036
 Alpha virt. eigenvalues --    3.31897   3.32225   3.38137   3.42457   3.60468
 Alpha virt. eigenvalues --    4.10446   4.23404   4.31960   4.37018   4.44165
 Alpha virt. eigenvalues --    4.52064   4.59428   4.60181   4.70477   4.78216
 Alpha virt. eigenvalues --    4.96623   4.99224   5.03881   5.09486
          Condensed to atoms (all electrons):
               1          2          3          4          5          6
     1  O    8.301750   0.311206  -0.090333  -0.077896   0.003558  -0.000009
     2  N    0.311206   5.676068   0.311786   0.266256  -0.048458   0.000672
     3  O   -0.090333   0.311786   8.330561  -0.088148   0.007814   0.000479
     4  C   -0.077896   0.266256  -0.088148   5.257632   0.565385  -0.052633
     5  C    0.003558  -0.048458   0.007814   0.565385   4.686658   0.314396
     6  N   -0.000009   0.000672   0.000479  -0.052633   0.314396   7.152352
     7  C    0.000002  -0.000089   0.000002   0.005701  -0.029503   0.207607
     8  H   -0.000000   0.000001  -0.000000  -0.000283   0.003176  -0.045268
     9  C    0.000000  -0.000004   0.000000   0.000667   0.000119  -0.057919
    10  C   -0.000000   0.000000   0.000000  -0.000027  -0.000017   0.003363
    11  C   -0.000000  -0.000000  -0.000000  -0.000010   0.000011  -0.000154
    12  C   -0.000000   0.000001  -0.000000  -0.000248  -0.000154   0.003899
    13  C   -0.000010   0.000010  -0.000001  -0.007733  -0.000352  -0.053996
    14  H    0.000000  -0.000038   0.000000   0.001935   0.002860  -0.005235
    15  N    0.000394   0.001482  -0.000010  -0.063020  -0.004219   0.001718
    16  C    0.001886  -0.022857   0.002079   0.310359  -0.043706   0.000935
    17  H    0.000150  -0.004515   0.012931  -0.023767   0.374449  -0.031956
    18  H    0.000000  -0.000034   0.000007   0.001844  -0.026615   0.331506
    19  H    0.000000  -0.000003   0.000000  -0.001022   0.001390  -0.000333
    20  H    0.000000  -0.000000   0.000000  -0.000024  -0.000013  -0.000427
    21  H   -0.000000  -0.000000  -0.000000   0.000001   0.000001  -0.000063
    22  H   -0.000000   0.000000  -0.000000  -0.000000  -0.000001  -0.000090
    23  H    0.000000  -0.000000   0.000000   0.000025  -0.000001  -0.000024
    24  H    0.000000   0.000000   0.000000  -0.000000  -0.000000   0.000005
    25  H    0.000000  -0.000000   0.000000   0.000023  -0.000001  -0.000077
    26  H    0.000000  -0.000000   0.000000   0.000004  -0.000001  -0.000078
    27  H    0.006649  -0.000228   0.000051  -0.068589   0.001928  -0.000019
               7          8          9         10         11         12
     1  O    0.000002  -0.000000   0.000000  -0.000000  -0.000000  -0.000000
     2  N   -0.000089   0.000001  -0.000004   0.000000  -0.000000   0.000001
     3  O    0.000002  -0.000000   0.000000   0.000000  -0.000000  -0.000000
     4  C    0.005701  -0.000283   0.000667  -0.000027  -0.000010  -0.000248
     5  C   -0.029503   0.003176   0.000119  -0.000017   0.000011  -0.000154
     6  N    0.207607  -0.045268  -0.057919   0.003363  -0.000154   0.003899
     7  C    5.047124   0.412863   0.343363  -0.049285  -0.008132  -0.065563
     8  H    0.412863   0.542351  -0.056884   0.000673  -0.000207  -0.003174
     9  C    0.343363  -0.056884   5.173183   0.319718  -0.053720  -0.005320
    10  C   -0.049285   0.000673   0.319718   5.126596   0.332523  -0.060690
    11  C   -0.008132  -0.000207  -0.053720   0.332523   5.125141   0.330232
    12  C   -0.065563  -0.003174  -0.005320  -0.060690   0.330232   5.142425
    13  C    0.315255  -0.037866  -0.055623  -0.000781  -0.047070   0.367939
    14  H   -0.041361  -0.000886   0.003752  -0.000385   0.003968  -0.041368
    15  N   -0.061734   0.003947  -0.011511   0.001194  -0.007267  -0.075824
    16  C   -0.001030  -0.000109  -0.000196  -0.000074  -0.000012   0.002308
    17  H    0.001470  -0.000041  -0.000055   0.000001  -0.000000   0.000001
    18  H   -0.030605  -0.004253   0.001004  -0.000107   0.000010  -0.000160
    19  H   -0.035502   0.003969   0.388449  -0.033360  -0.002121   0.000530
    20  H   -0.042108  -0.001840   0.397021  -0.036797   0.004120  -0.000391
    21  H    0.004095  -0.000069  -0.035926   0.400045  -0.035745   0.004237
    22  H   -0.004531   0.003543  -0.045588   0.395803  -0.045508  -0.001228
    23  H    0.000496   0.000035  -0.002038  -0.040239   0.396543  -0.036750
    24  H   -0.000148  -0.000107   0.004414  -0.038497   0.400400  -0.037713
    25  H    0.005196  -0.000018  -0.000390   0.004108  -0.033659   0.394614
    26  H   -0.004412   0.001448   0.001110  -0.002442  -0.042607   0.394132
    27  H   -0.000391   0.000008  -0.000046   0.000003   0.000006  -0.000022
              13         14         15         16         17         18
     1  O   -0.000010   0.000000   0.000394   0.001886   0.000150   0.000000
     2  N    0.000010  -0.000038   0.001482  -0.022857  -0.004515  -0.000034
     3  O   -0.000001   0.000000  -0.000010   0.002079   0.012931   0.000007
     4  C   -0.007733   0.001935  -0.063020   0.310359  -0.023767   0.001844
     5  C   -0.000352   0.002860  -0.004219  -0.043706   0.374449  -0.026615
     6  N   -0.053996  -0.005235   0.001718   0.000935  -0.031956   0.331506
     7  C    0.315255  -0.041361  -0.061734  -0.001030   0.001470  -0.030605
     8  H   -0.037866  -0.000886   0.003947  -0.000109  -0.000041  -0.004253
     9  C   -0.055623   0.003752  -0.011511  -0.000196  -0.000055   0.001004
    10  C   -0.000781  -0.000385   0.001194  -0.000074   0.000001  -0.000107
    11  C   -0.047070   0.003968  -0.007267  -0.000012  -0.000000   0.000010
    12  C    0.367939  -0.041368  -0.075824   0.002308   0.000001  -0.000160
    13  C    5.019031   0.408290   0.248101  -0.066762  -0.000077   0.004174
    14  H    0.408290   0.515846  -0.034249  -0.006669   0.000017  -0.000018
    15  N    0.248101  -0.034249   6.959048   0.583590  -0.000044  -0.000128
    16  C   -0.066762  -0.006669   0.583590   4.704183   0.001469  -0.000184
    17  H   -0.000077   0.000017  -0.000044   0.001469   0.380377  -0.002646
    18  H    0.004174  -0.000018  -0.000128  -0.000184  -0.002646   0.327683
    19  H   -0.005766   0.000059   0.006464   0.001987   0.000009  -0.000127
    20  H    0.003963  -0.000052   0.000083  -0.000043  -0.000013   0.001980
    21  H   -0.000417   0.000009  -0.000035   0.000003  -0.000000   0.000000
    22  H    0.000322  -0.000042   0.000008  -0.000000   0.000000   0.000002
    23  H   -0.006022   0.000004   0.006850   0.000092   0.000000   0.000000
    24  H    0.004149  -0.000060   0.000015   0.000005   0.000000  -0.000000
    25  H   -0.034250  -0.002703   0.001385  -0.000065  -0.000000   0.000003
    26  H   -0.045214  -0.000898   0.004255  -0.000028   0.000000  -0.000000
    27  H    0.004722  -0.000145  -0.040990   0.404698  -0.000062   0.000001
              19         20         21         22         23         24
     1  O    0.000000   0.000000  -0.000000  -0.000000   0.000000   0.000000
     2  N   -0.000003  -0.000000  -0.000000   0.000000  -0.000000   0.000000
     3  O    0.000000   0.000000  -0.000000  -0.000000   0.000000   0.000000
     4  C   -0.001022  -0.000024   0.000001  -0.000000   0.000025  -0.000000
     5  C    0.001390  -0.000013   0.000001  -0.000001  -0.000001  -0.000000
     6  N   -0.000333  -0.000427  -0.000063  -0.000090  -0.000024   0.000005
     7  C   -0.035502  -0.042108   0.004095  -0.004531   0.000496  -0.000148
     8  H    0.003969  -0.001840  -0.000069   0.003543   0.000035  -0.000107
     9  C    0.388449   0.397021  -0.035926  -0.045588  -0.002038   0.004414
    10  C   -0.033360  -0.036797   0.400045   0.395803  -0.040239  -0.038497
    11  C   -0.002121   0.004120  -0.035745  -0.045508   0.396543   0.400400
    12  C    0.000530  -0.000391   0.004237  -0.001228  -0.036750  -0.037713
    13  C   -0.005766   0.003963  -0.000417   0.000322  -0.006022   0.004149
    14  H    0.000059  -0.000052   0.000009  -0.000042   0.000004  -0.000060
    15  N    0.006464   0.000083  -0.000035   0.000008   0.006850   0.000015
    16  C    0.001987  -0.000043   0.000003  -0.000000   0.000092   0.000005
    17  H    0.000009  -0.000013  -0.000000   0.000000   0.000000   0.000000
    18  H   -0.000127   0.001980   0.000000   0.000002   0.000000  -0.000000
    19  H    0.506310  -0.023782  -0.002562   0.003764   0.001682  -0.000074
    20  H   -0.023782   0.546681  -0.002664  -0.002926  -0.000049  -0.000090
    21  H   -0.002562  -0.002664   0.525485  -0.024666  -0.002819  -0.002067
    22  H    0.003764  -0.002926  -0.024666   0.569302   0.004066  -0.003552
    23  H    0.001682  -0.000049  -0.002819   0.004066   0.510221  -0.024903
    24  H   -0.000074  -0.000090  -0.002067  -0.003552  -0.024903   0.540548
    25  H   -0.000028   0.000011  -0.000086  -0.000083  -0.002058  -0.002419
    26  H    0.000022  -0.000035  -0.000072   0.002456   0.003848  -0.002756
    27  H    0.000065   0.000000  -0.000000   0.000000  -0.000022  -0.000000
              25         26         27
     1  O    0.000000   0.000000   0.006649
     2  N   -0.000000  -0.000000  -0.000228
     3  O    0.000000   0.000000   0.000051
     4  C    0.000023   0.000004  -0.068589
     5  C   -0.000001  -0.000001   0.001928
     6  N   -0.000077  -0.000078  -0.000019
     7  C    0.005196  -0.004412  -0.000391
     8  H   -0.000018   0.001448   0.000008
     9  C   -0.000390   0.001110  -0.000046
    10  C    0.004108  -0.002442   0.000003
    11  C   -0.033659  -0.042607   0.000006
    12  C    0.394614   0.394132  -0.000022
    13  C   -0.034250  -0.045214   0.004722
    14  H   -0.002703  -0.000898  -0.000145
    15  N    0.001385   0.004255  -0.040990
    16  C   -0.000065  -0.000028   0.404698
    17  H   -0.000000   0.000000  -0.000062
    18  H    0.000003  -0.000000   0.000001
    19  H   -0.000028   0.000022   0.000065
    20  H    0.000011  -0.000035   0.000000
    21  H   -0.000086  -0.000072  -0.000000
    22  H   -0.000083   0.002456   0.000000
    23  H   -0.002058   0.003848  -0.000022
    24  H   -0.002419  -0.002756  -0.000000
    25  H    0.509935  -0.023195  -0.000016
    26  H   -0.023195   0.564782   0.000001
    27  H   -0.000016   0.000001   0.443613
 Mulliken charges:
               1
     1  O   -0.457347
     2  N    0.508744
     3  O   -0.487219
     4  C   -0.026431
     5  C    0.191296
     6  N   -0.768652
     7  C    0.031221
     8  H    0.178990
     9  C   -0.307580
    10  C   -0.321326
    11  C   -0.316745
    12  C   -0.311712
    13  C   -0.014012
    14  H    0.197371
    15  N   -0.519501
    16  C    0.128142
    17  H    0.292304
    18  H    0.396662
    19  H    0.189981
    20  H    0.157395
    21  H    0.173315
    22  H    0.148952
    23  H    0.191060
    24  H    0.162852
    25  H    0.183773
    26  H    0.149681
    27  H    0.248786
 Sum of Mulliken charges =  -0.00000
 Mulliken charges with hydrogens summed into heavy atoms:
               1
     1  O   -0.457347
     2  N    0.508744
     3  O   -0.487219
     4  C   -0.026431
     5  C    0.483599
     6  N   -0.371990
     7  C    0.210212
     9  C    0.039796
    10  C    0.000941
    11  C    0.037167
    12  C    0.021742
    13  C    0.183359
    15  N   -0.519501
    16  C    0.376929
 Electronic spatial extent (au):  <R**2>=           3120.7149
 Charge=             -0.0000 electrons
 Dipole moment (field-independent basis, Debye):
    X=              5.4278    Y=              4.5219    Z=              1.2171  Tot=              7.1687
 Quadrupole moment (field-independent basis, Debye-Ang):
   XX=           -105.3886   YY=            -79.6755   ZZ=            -82.7632
   XY=             -0.7468   XZ=             -1.7596   YZ=              0.9660
 Traceless Quadrupole moment (field-independent basis, Debye-Ang):
   XX=            -16.1128   YY=              9.6003   ZZ=              6.5125
   XY=             -0.7468   XZ=             -1.7596   YZ=              0.9660
 Octapole moment (field-independent basis, Debye-Ang**2):
  XXX=             99.9345  YYY=             34.3007  ZZZ=              0.0076  XYY=             -2.9549
  XXY=              7.9378  XXZ=             14.4305  XZZ=             -5.7788  YZZ=             -2.0190
  YYZ=              6.2629  XYZ=              0.0374
 Hexadecapole moment (field-independent basis, Debye-Ang**3):
 XXXX=          -3522.6059 YYYY=           -617.4855 ZZZZ=           -317.2222 XXXY=            -10.2167
 XXXZ=            -90.6768 YYYX=              4.3289 YYYZ=             24.9433 ZZZX=            -37.6254
 ZZZY=              9.3516 XXYY=           -651.7493 XXZZ=           -549.4863 YYZZ=           -167.0580
 XXYZ=              5.2608 YYXZ=            -10.8855 ZZXY=              7.9294
 N-N= 9.171005328655D+02 E-N=-3.380237070314D+03  KE= 6.588691425571D+02
 Calling FoFJK, ICntrl=  10002127 FMM=F ISym2X=0 I1Cent= 0 IOpClX= 0 NMat=1 NMatS=1 NMatT=0.
 -------------------------------------------------------------------
 Center     Atomic                   Forces (Hartrees/Bohr)
 Number     Number              X              Y              Z
 -------------------------------------------------------------------
      1        8           0.001077789   -0.018911578   -0.000122694
      2        7           0.040065643    0.010237868    0.002182477
      3        8          -0.003853748    0.016694650    0.001251884
      4        6          -0.002674455    0.003975174    0.007829489
      5        6           0.000484169   -0.016383529    0.001840877
      6        7           0.018036060   -0.000152204   -0.012623991
      7        6          -0.004999954    0.004209085    0.006170144
      8        1          -0.012309145   -0.001772400   -0.006922941
      9        6          -0.004398343    0.001288565   -0.002208149
     10        6           0.002686871   -0.001384402    0.000768821
     11        6          -0.001166854   -0.004277984   -0.001900525
     12        6           0.000663057   -0.009546656   -0.002877633
     13        6           0.012623886   -0.000882526   -0.000267135
     14        1           0.001357595    0.003724690   -0.011102806
     15        7          -0.000532550   -0.007297719    0.016790280
     16        6          -0.020742698    0.014635980   -0.010590118
     17        1           0.006534062   -0.008583247    0.001692870
     18        1          -0.018256477   -0.002323865   -0.001594981
     19        1           0.003298238    0.005667462    0.007364920
     20        1          -0.002979087   -0.007774375    0.002863309
     21        1          -0.003699029    0.002349291    0.009875969
     22        1          -0.004459871   -0.003959862   -0.007063975
     23        1           0.004426648    0.005950439    0.008896863
     24        1          -0.009577706    0.002385735   -0.001544968
     25        1          -0.001094007    0.010593033   -0.002466620
     26        1          -0.004905792   -0.004676822   -0.004007012
     27        1           0.004395700    0.006215196   -0.002234356
 -------------------------------------------------------------------
 Cartesian Forces:  Max     0.040065643 RMS     0.008860372

 GradGradGradGradGradGradGradGradGradGradGradGradGradGradGradGradGradGrad
 Berny optimization.
 FormGI is forming the generalized inverse of G from B-inverse, IUseBI=4.
 Internal  Forces:  Max     0.038099814 RMS     0.007024671
 Search for a local minimum.
 Step number   1 out of a maximum of   20
 All quantities printed in internal units (Hartrees-Bohrs-Radians)
 Mixed Optimization -- RFO/linear search
 Second derivative matrix not updated -- first step.
 ITU=  0
     Eigenvalues ---    0.00230   0.00779   0.01043   0.01160   0.01272
     Eigenvalues ---    0.01428   0.01544   0.01841   0.02000   0.02111
     Eigenvalues ---    0.02690   0.03632   0.04501   0.04677   0.04831
     Eigenvalues ---    0.05059   0.05139   0.05305   0.05854   0.06223
     Eigenvalues ---    0.07126   0.07675   0.07688   0.07798   0.07985
     Eigenvalues ---    0.08039   0.08049   0.10429   0.11676   0.12116
     Eigenvalues ---    0.12563   0.14418   0.15004   0.15955   0.15974
     Eigenvalues ---    0.19857   0.22351   0.23254   0.24979   0.25000
     Eigenvalues ---    0.25000   0.25409   0.26325   0.26644   0.27978
     Eigenvalues ---    0.28090   0.28486   0.29268   0.31454   0.32028
     Eigenvalues ---    0.32054   0.32237   0.32297   0.32383   0.32388
     Eigenvalues ---    0.32408   0.32512   0.32528   0.32588   0.33334
     Eigenvalues ---    0.33410   0.33632   0.35509   0.43887   0.44289
     Eigenvalues ---    0.50197   0.67289   0.90339   0.911731000.00000
     Eigenvalues --- 1000.000001000.000001000.000001000.000001000.00000
     Eigenvalues --- 1000.000001000.000001000.000001000.000001000.00000
     Eigenvalues --- 1000.000001000.000001000.000001000.000001000.00000
     Eigenvalues --- 1000.000001000.000001000.000001000.000001000.00000
     Eigenvalues --- 1000.000001000.000001000.000001000.000001000.00000
     Eigenvalues --- 1000.000001000.000001000.000001000.000001000.00000
     Eigenvalues --- 1000.000001000.000001000.000001000.000001000.00000
     Eigenvalues --- 1000.000001000.000001000.000001000.000001000.00000
     Eigenvalues --- 1000.000001000.000001000.000001000.000001000.00000
     Eigenvalues --- 1000.000001000.000001000.000001000.000001000.00000
     Eigenvalues --- 1000.000001000.000001000.000001000.000001000.00000
     Eigenvalues --- 1000.000001000.000001000.000001000.000001000.00000
     Eigenvalues --- 1000.000001000.000001000.000001000.000001000.00000
     Eigenvalues --- 1000.000001000.000001000.000001000.000001000.00000
     Eigenvalues --- 1000.000001000.000001000.000001000.000001000.00000
     Eigenvalues --- 1000.000001000.000001000.000001000.000001000.00000
     Eigenvalues --- 1000.000001000.000001000.000001000.000001000.00000
     Eigenvalues --- 1000.000001000.000001000.000001000.000001000.00000
     Eigenvalues --- 1000.00000
 RFO step:  Lambda=-2.50652713D-02 EMin= 2.30301705D-03
 Linear search not attempted -- first point.
 Iteration  1 RMS(Cart)=  0.06118796 RMS(Int)=  0.00135877
 Iteration  2 RMS(Cart)=  0.00156057 RMS(Int)=  0.00025587
 Iteration  3 RMS(Cart)=  0.00000130 RMS(Int)=  0.00025587
 Iteration  4 RMS(Cart)=  0.00000000 RMS(Int)=  0.00025587
 Iteration  1 RMS(Cart)=  0.00006379 RMS(Int)=  0.00005005
 Iteration  2 RMS(Cart)=  0.00003363 RMS(Int)=  0.00005535
 Iteration  3 RMS(Cart)=  0.00001983 RMS(Int)=  0.00006175
 Iteration  4 RMS(Cart)=  0.00001313 RMS(Int)=  0.00006631
 Iteration  5 RMS(Cart)=  0.00000953 RMS(Int)=  0.00006952
 Iteration  6 RMS(Cart)=  0.00000735 RMS(Int)=  0.00007190
 Iteration  7 RMS(Cart)=  0.00000588 RMS(Int)=  0.00007374
 Iteration  8 RMS(Cart)=  0.00000482 RMS(Int)=  0.00007524
 Iteration  9 RMS(Cart)=  0.00000400 RMS(Int)=  0.00007647
 Iteration 10 RMS(Cart)=  0.00000336 RMS(Int)=  0.00007752
 Iteration 11 RMS(Cart)=  0.00000284 RMS(Int)=  0.00007840
 Iteration 12 RMS(Cart)=  0.00000241 RMS(Int)=  0.00007916
 Iteration 13 RMS(Cart)=  0.00000206 RMS(Int)=  0.00007982
 Iteration 14 RMS(Cart)=  0.00000176 RMS(Int)=  0.00008038
 Iteration 15 RMS(Cart)=  0.00000151 RMS(Int)=  0.00008087
 Iteration 16 RMS(Cart)=  0.00000130 RMS(Int)=  0.00008129
 Iteration 17 RMS(Cart)=  0.00000112 RMS(Int)=  0.00008166
 Iteration 18 RMS(Cart)=  0.00000097 RMS(Int)=  0.00008198
 Variable       Old X    -DE/DX   Delta X   Delta X   Delta X     New X
                                 (Linear)    (Quad)   (Total)
    R1        2.32397   0.01736   0.00000   0.01853   0.01853   2.34250
    R2        2.32777   0.01567   0.00000   0.01688   0.01688   2.34465
    R3        2.89447  -0.03810   0.00000  -0.11991  -0.11991   2.77457
    R4        2.64552  -0.03251   0.00000  -0.07007  -0.06977   2.57576
    R5        2.81782  -0.02532   0.00000  -0.07473  -0.07453   2.74329
    R6        2.58461  -0.02324   0.00000  -0.04310  -0.04288   2.54173
    R7        2.08338  -0.01075   0.00000  -0.02993  -0.02993   2.05344
    R8        2.81491  -0.01739   0.00000  -0.04511  -0.04519   2.76973
    R9        1.93290  -0.00652   0.00000  -0.01406  -0.01406   1.91884
   R10        2.11854  -0.01295   0.00000  -0.03814  -0.03814   2.08040
   R11        2.92672  -0.01300   0.00000  -0.04387  -0.04382   2.88290
   R12        2.89793  -0.00139   0.00000   0.00149   0.00133   2.89925
   R13        2.91124  -0.00411   0.00000  -0.01409  -0.01415   2.89708
   R14        2.09916  -0.00961   0.00000  -0.02745  -0.02745   2.07171
   R15        2.09889  -0.00839   0.00000  -0.02394  -0.02394   2.07495
   R16        2.90480  -0.00149   0.00000  -0.00662  -0.00664   2.89816
   R17        2.10139  -0.01054   0.00000  -0.03021  -0.03021   2.07118
   R18        2.10304  -0.00895   0.00000  -0.02572  -0.02572   2.07732
   R19        2.91810  -0.00937   0.00000  -0.02968  -0.02973   2.88838
   R20        2.10412  -0.01141   0.00000  -0.03285  -0.03285   2.07128
   R21        2.10105  -0.00996   0.00000  -0.02852  -0.02852   2.07253
   R22        2.93539  -0.01109   0.00000  -0.03640  -0.03633   2.89906
   R23        2.10149  -0.01079   0.00000  -0.03094  -0.03094   2.07055
   R24        2.09781  -0.00768   0.00000  -0.02189  -0.02189   2.07592
   R25        2.10744  -0.01075   0.00000  -0.03109  -0.03109   2.07635
   R26        2.76567  -0.00476   0.00000  -0.01028  -0.01064   2.75503
   R27        2.44311  -0.00236   0.00000  -0.00416  -0.00425   2.43886
   R28        2.07956  -0.00597   0.00000  -0.01652  -0.01652   2.06304
    A1        2.15460   0.01126   0.00000   0.04092   0.04092   2.19551
    A2        2.05563  -0.00624   0.00000  -0.02271  -0.02271   2.03292
    A3        2.07292  -0.00500   0.00000  -0.01818  -0.01818   2.05474
    A4        2.02165  -0.00949   0.00000  -0.02969  -0.03032   1.99132
    A5        2.03011  -0.00274   0.00000  -0.00533  -0.00609   2.02402
    A6        2.23052   0.01215   0.00000   0.03253   0.03220   2.26271
    A7        2.20066   0.00661   0.00000   0.02251   0.02289   2.22355
    A8        2.06452  -0.00407   0.00000  -0.01654  -0.01686   2.04766
    A9        2.01519  -0.00245   0.00000  -0.00795  -0.00836   2.00684
   A10        2.24760  -0.00747   0.00000  -0.02085  -0.02052   2.22708
   A11        2.09797  -0.01238   0.00000  -0.07869  -0.07886   2.01911
   A12        1.86080   0.02009   0.00000   0.10193   0.10196   1.96276
   A13        1.84280  -0.00267   0.00000  -0.01819  -0.01773   1.82507
   A14        2.01536  -0.00114   0.00000  -0.01621  -0.01631   1.99905
   A15        1.95184   0.00251   0.00000  -0.00466  -0.00573   1.94611
   A16        1.85241   0.00337   0.00000   0.02933   0.02905   1.88145
   A17        1.85151   0.00159   0.00000   0.02864   0.02849   1.87999
   A18        1.93684  -0.00327   0.00000  -0.01248  -0.01211   1.92473
   A19        1.90809   0.00030   0.00000  -0.00623  -0.00635   1.90174
   A20        1.92216  -0.00062   0.00000  -0.01409  -0.01406   1.90810
   A21        1.92233  -0.00194   0.00000  -0.00580  -0.00582   1.91651
   A22        1.91906  -0.00075   0.00000   0.00369   0.00352   1.92258
   A23        1.90722   0.00338   0.00000   0.02749   0.02758   1.93479
   A24        1.88485  -0.00035   0.00000  -0.00464  -0.00488   1.87997
   A25        1.93963  -0.00073   0.00000   0.00644   0.00624   1.94587
   A26        1.91881  -0.00084   0.00000  -0.00759  -0.00757   1.91124
   A27        1.90541   0.00030   0.00000  -0.00311  -0.00316   1.90225
   A28        1.91618   0.00051   0.00000   0.00650   0.00656   1.92274
   A29        1.89894   0.00196   0.00000   0.01153   0.01160   1.91054
   A30        1.88385  -0.00120   0.00000  -0.01425  -0.01435   1.86951
   A31        1.94470   0.00164   0.00000   0.00816   0.00839   1.95310
   A32        1.90219  -0.00001   0.00000   0.00500   0.00496   1.90715
   A33        1.91747   0.00047   0.00000   0.00504   0.00495   1.92242
   A34        1.90636  -0.00142   0.00000  -0.01543  -0.01553   1.89083
   A35        1.91552  -0.00079   0.00000   0.00004  -0.00010   1.91543
   A36        1.87623   0.00005   0.00000  -0.00334  -0.00335   1.87287
   A37        1.94597  -0.00431   0.00000  -0.02190  -0.02195   1.92402
   A38        1.90632   0.00250   0.00000   0.01516   0.01500   1.92132
   A39        1.91090   0.00211   0.00000   0.01537   0.01535   1.92625
   A40        1.90687   0.00102   0.00000  -0.00198  -0.00183   1.90504
   A41        1.91225  -0.00020   0.00000  -0.00330  -0.00319   1.90906
   A42        1.88033  -0.00101   0.00000  -0.00270  -0.00290   1.87743
   A43        1.84429   0.00627   0.00000   0.02348   0.02348   1.86777
   A44        1.93366  -0.00480   0.00000  -0.02432  -0.02468   1.90898
   A45        1.99751  -0.00067   0.00000   0.00825   0.00833   2.00583
   A46        1.88455   0.00189   0.00000   0.02703   0.02719   1.91174
   A47        1.89076  -0.00429   0.00000  -0.03303  -0.03286   1.85790
   A48        1.90854   0.00186   0.00000   0.00047   0.00066   1.90920
   A49        2.10450  -0.00423   0.00000  -0.00467  -0.00481   2.09969
   A50        2.27050  -0.00610   0.00000  -0.03244  -0.03279   2.23770
   A51        1.97535   0.00341   0.00000   0.01544   0.01493   1.99028
   A52        2.03241   0.00264   0.00000   0.01204   0.01152   2.04393
    D1       -3.03962   0.00021   0.00000  -0.05701  -0.05582  -3.09544
    D2        0.14413   0.00154   0.00000   0.00000   0.00000   0.14414
    D3        0.11117  -0.00153   0.00000  -0.06020  -0.05960   0.05157
    D4       -2.98826  -0.00020   0.00000  -0.00319  -0.00378  -2.99204
    D5        3.00005   0.00329   0.00000   0.02192   0.02160   3.02165
    D6       -0.05714   0.00201   0.00000   0.05214   0.05204  -0.00509
    D7       -0.18937   0.00127   0.00000  -0.04411  -0.04504  -0.23441
    D8        3.03662  -0.00001   0.00000  -0.01389  -0.01459   3.02203
    D9       -3.04144   0.00054   0.00000  -0.01083  -0.01196  -3.05341
   D10        0.21222   0.00087   0.00000   0.04390   0.04318   0.25541
   D11        0.14818   0.00272   0.00000   0.05603   0.05624   0.20442
   D12       -2.88134   0.00306   0.00000   0.11076   0.11139  -2.76995
   D13        0.32810  -0.00445   0.00000   0.00000   0.00000   0.32810
   D14        3.00086   0.00108   0.00000   0.03057   0.03051   3.03137
   D15       -2.89581  -0.00329   0.00000  -0.02989  -0.03025  -2.92606
   D16       -0.22304   0.00225   0.00000   0.00068   0.00026  -0.22278
   D17       -2.83760   0.00034   0.00000   0.00418   0.00429  -2.83331
   D18        1.40529  -0.00139   0.00000  -0.01088  -0.01079   1.39450
   D19       -0.83162   0.00194   0.00000   0.02542   0.02506  -0.80656
   D20        0.72372   0.00135   0.00000   0.01126   0.01126   0.73498
   D21       -1.31657  -0.00038   0.00000  -0.00380  -0.00383  -1.32040
   D22        2.72970   0.00295   0.00000   0.03251   0.03203   2.76173
   D23        2.95382   0.00234   0.00000   0.03881   0.03891   2.99272
   D24       -1.21904   0.00122   0.00000   0.03055   0.03060  -1.18844
   D25        0.85800  -0.00080   0.00000   0.01244   0.01255   0.87055
   D26        0.91894   0.00402   0.00000   0.05063   0.05076   0.96970
   D27        3.02927   0.00289   0.00000   0.04237   0.04245   3.07172
   D28       -1.17688   0.00087   0.00000   0.02426   0.02440  -1.15248
   D29       -1.08503   0.00189   0.00000   0.00670   0.00668  -1.07835
   D30        1.02530   0.00077   0.00000  -0.00156  -0.00162   1.02368
   D31        3.10234  -0.00126   0.00000  -0.01966  -0.01967   3.08266
   D32       -2.89503  -0.00075   0.00000  -0.02032  -0.02004  -2.91508
   D33       -0.85817   0.00261   0.00000   0.01267   0.01261  -0.84555
   D34        1.30939   0.00071   0.00000   0.00000   0.00001   1.30940
   D35       -0.89440  -0.00175   0.00000  -0.02785  -0.02778  -0.92218
   D36        1.14246   0.00160   0.00000   0.00514   0.00487   1.14734
   D37       -2.97316  -0.00029   0.00000  -0.00753  -0.00773  -2.98089
   D38        1.11013   0.00148   0.00000   0.01650   0.01664   1.12676
   D39       -3.13619   0.00484   0.00000   0.04949   0.04929  -3.08690
   D40       -0.96863   0.00295   0.00000   0.03682   0.03669  -0.93194
   D41        0.95665   0.00115   0.00000   0.00000   0.00001   0.95666
   D42        3.08174   0.00075   0.00000   0.00734   0.00728   3.08901
   D43       -1.13798  -0.00102   0.00000  -0.01632  -0.01629  -1.15427
   D44       -1.15556   0.00219   0.00000   0.01904   0.01914  -1.13642
   D45        0.96952   0.00179   0.00000   0.02638   0.02640   0.99592
   D46        3.03299   0.00002   0.00000   0.00272   0.00283   3.03582
   D47        3.06172   0.00104   0.00000   0.00597   0.00596   3.06768
   D48       -1.09638   0.00063   0.00000   0.01330   0.01323  -1.08315
   D49        0.96709  -0.00113   0.00000  -0.01036  -0.01034   0.95675
   D50       -0.92192  -0.00087   0.00000   0.00000   0.00001  -0.92191
   D51        1.18302  -0.00161   0.00000  -0.01078  -0.01077   1.17224
   D52       -3.04864  -0.00129   0.00000  -0.00897  -0.00902  -3.05767
   D53       -3.04854   0.00032   0.00000   0.00089   0.00092  -3.04762
   D54       -0.94360  -0.00042   0.00000  -0.00989  -0.00986  -0.95346
   D55        1.10792  -0.00010   0.00000  -0.00809  -0.00811   1.09981
   D56        1.17655   0.00031   0.00000   0.00759   0.00763   1.18417
   D57       -3.00170  -0.00042   0.00000  -0.00319  -0.00316  -3.00486
   D58       -0.95017  -0.00010   0.00000  -0.00139  -0.00141  -0.95158
   D59        0.98916  -0.00160   0.00000  -0.01145  -0.01148   0.97769
   D60        3.09829  -0.00141   0.00000  -0.01786  -0.01802   3.08027
   D61       -1.12979   0.00005   0.00000  -0.00337  -0.00332  -1.13311
   D62       -1.11333  -0.00169   0.00000  -0.01268  -0.01266  -1.12599
   D63        0.99580  -0.00151   0.00000  -0.01910  -0.01920   0.97659
   D64        3.05090  -0.00005   0.00000  -0.00460  -0.00451   3.04640
   D65        3.11701  -0.00045   0.00000   0.00040   0.00042   3.11743
   D66       -1.05705  -0.00027   0.00000  -0.00601  -0.00612  -1.06317
   D67        0.99806   0.00119   0.00000   0.00848   0.00857   1.00663
   D68       -1.05629   0.00004   0.00000  -0.00260  -0.00248  -1.05877
   D69       -3.12615   0.00141   0.00000  -0.00002  -0.00035  -3.12650
   D70        1.09184   0.00051   0.00000   0.00259   0.00244   1.09428
   D71        3.11809  -0.00101   0.00000  -0.00621  -0.00601   3.11208
   D72        1.04824   0.00036   0.00000  -0.00362  -0.00388   1.04435
   D73       -1.01696  -0.00054   0.00000  -0.00101  -0.00110  -1.01806
   D74        1.06188  -0.00027   0.00000   0.00015   0.00039   1.06227
   D75       -1.00797   0.00110   0.00000   0.00274   0.00252  -1.00545
   D76       -3.07317   0.00020   0.00000   0.00535   0.00531  -3.06786
   D77       -1.17218   0.00782   0.00000   0.00000   0.00001  -1.17217
   D78        3.05859   0.00329   0.00000  -0.01190  -0.01183   3.04676
   D79        1.00870   0.00243   0.00000  -0.02576  -0.02603   0.98267
   D80        0.41260  -0.00583   0.00000  -0.02999  -0.02963   0.38297
   D81       -2.84408  -0.00616   0.00000  -0.08613  -0.08615  -2.93023
         Item               Value     Threshold  Converged?
 Maximum Force            0.038100     0.000450     NO 
 RMS     Force            0.006994     0.000300     NO 
 Maximum Displacement     0.315493     0.001800     NO 
 RMS     Displacement     0.061396     0.001200     NO 
 Predicted change in Energy=-1.422078D-02
 GradGradGradGradGradGradGradGradGradGradGradGradGradGradGradGradGradGrad

                          Input orientation:                          
 ---------------------------------------------------------------------
 Center     Atomic      Atomic             Coordinates (Angstroms)
 Number     Number       Type             X           Y           Z
 ---------------------------------------------------------------------
      1          8           0       -3.510530   -1.337321   -0.451276
      2          7           0       -3.106801   -0.178448   -0.276293
      3          8           0       -3.808448    0.844703   -0.292829
      4          6           0       -1.667480   -0.015932   -0.036158
      5          6           0       -1.285445    1.269848    0.206076
      6          7           0       -0.069100    1.703608    0.582183
      7          6           0        1.209109    0.996523    0.462114
      8          1           0        1.883303    1.523673    1.154617
      9          6           0        1.834346    1.049684   -0.928424
     10          6           0        3.249453    0.463816   -0.861065
     11          6           0        3.244827   -0.948920   -0.264230
     12          6           0        2.523408   -0.996640    1.082424
     13          6           0        1.094431   -0.457398    0.938342
     14          1           0        0.592039   -0.482476    1.915196
     15          7           0        0.406048   -1.353268    0.016918
     16          6           0       -0.854897   -1.205513   -0.215050
     17          1           0       -2.060624    2.031241    0.193663
     18          1           0        0.047119    2.711718    0.617638
     19          1           0        1.218249    0.469881   -1.625651
     20          1           0        1.857525    2.087401   -1.286540
     21          1           0        3.687242    0.448101   -1.865732
     22          1           0        3.879348    1.120153   -0.243934
     23          1           0        2.733998   -1.631132   -0.953443
     24          1           0        4.272763   -1.312831   -0.147001
     25          1           0        2.483071   -2.027571    1.451329
     26          1           0        3.065268   -0.398689    1.827816
     27          1           0       -1.361201   -2.014172   -0.745679
 ---------------------------------------------------------------------
                    Distance matrix (angstroms):
                    1          2          3          4          5
     1  O    0.000000
     2  N    1.239598   0.000000
     3  O    2.207961   1.240734   0.000000
     4  C    2.305478   1.468238   2.321706   0.000000
     5  C    3.490050   2.376463   2.606760   1.363033   0.000000
     6  N    4.707306   3.675152   3.935237   2.427753   1.345028
     7  C    5.343791   4.533529   5.076305   3.090001   2.522511
     8  H    6.313289   5.463136   5.912033   4.049245   3.317397
     9  C    5.873089   5.133082   5.682176   3.767554   3.326960
    10  C    7.007810   6.415328   7.090976   5.008678   4.727978
    11  C    6.769099   6.398200   7.277815   5.005321   5.066309
    12  C    6.235119   5.849343   6.736043   4.447084   4.517999
    13  C    4.889884   4.382180   5.220103   2.961873   3.030413
    14  H    4.812694   4.310044   5.099124   3.021733   3.084911
    15  N    3.944496   3.715681   4.763297   2.467955   3.126926
    16  C    2.669375   2.475820   3.596234   1.451687   2.547574
    17  H    3.723625   2.489593   2.167818   2.097212   1.086635
    18  H    5.494922   4.370285   4.379508   3.287458   2.006016
    19  H    5.196776   4.576806   5.213884   3.330154   3.203694
    20  H    6.422025   5.549704   5.885152   4.291052   3.574151
    21  H    7.549593   7.005563   7.669204   5.677651   5.449337
    22  H    7.790538   7.105892   7.692885   5.665789   5.186522
    23  H    6.271573   6.056712   7.026363   4.777372   5.090785
    24  H    7.789277   7.467363   8.365536   6.081177   6.139102
    25  H    6.326106   6.136010   7.132690   4.846275   5.159975
    26  H    7.022564   6.524586   7.300078   5.100961   4.933838
    27  H    2.272535   2.576301   3.790417   2.142473   3.419995
                    6          7          8          9         10
     6  N    0.000000
     7  C    1.465675   0.000000
     8  H    2.042531   1.100901   0.000000
     9  C    2.516477   1.525563   2.136848   0.000000
    10  C    3.825290   2.489495   2.655680   1.533071   0.000000
    11  C    4.328329   2.908001   3.159208   2.534764   1.533642
    12  C    3.776596   2.466752   2.601331   2.950552   2.537169
    13  C    2.480040   1.534219   2.143301   2.510694   2.954763
    14  H    2.644426   2.163252   2.504092   3.460782   3.957896
    15  N    3.144802   2.522820   3.428327   2.950913   3.486775
    16  C    3.117057   3.093160   4.101486   3.581459   4.477688
    17  H    2.055349   3.440039   4.090919   4.170531   5.636151
    18  H    1.015407   2.077572   2.251970   2.889091   4.182651
    19  H    2.837936   2.153183   3.046746   1.096301   2.170350
    20  H    2.711329   2.160613   2.505533   1.098016   2.180486
    21  H    4.656038   3.443948   3.678799   2.161868   1.096021
    22  H    4.075921   2.764772   2.470419   2.157666   1.099271
    23  H    4.619090   3.351665   3.888495   2.827857   2.159406
    24  H    5.336889   3.884599   3.930583   3.483960   2.171066
    25  H    4.603334   3.427341   3.613737   3.943801   3.484468
    26  H    3.974357   2.693897   2.354934   3.348105   2.829827
    27  H    4.153869   4.138785   5.162778   4.430817   5.235635
                   11         12         13         14         15
    11  C    0.000000
    12  C    1.528464   0.000000
    13  C    2.512365   1.534118   0.000000
    14  H    3.464787   2.165193   1.098758   0.000000
    15  N    2.881182   2.397019   1.457900   2.096742   0.000000
    16  C    4.108041   3.624916   2.385344   2.674763   1.290591
    17  H    6.102364   5.565188   4.086838   4.039687   4.191731
    18  H    4.939970   4.483298   3.353060   3.490483   4.124780
    19  H    2.823735   3.344816   2.729328   3.719774   2.584874
    20  H    3.491270   3.945465   3.465315   4.296142   3.955248
    21  H    2.170762   3.483305   3.924975   4.974100   4.189933
    22  H    2.164277   2.842290   3.412068   4.246959   4.271963
    23  H    1.096072   2.142821   2.764901   3.759852   2.537353
    24  H    1.096734   2.161413   3.465766   4.299985   3.870399
    25  H    2.164926   1.095690   2.157990   2.485657   2.612709
    26  H    2.170634   1.098529   2.163056   2.476190   3.355893
    27  H    4.752057   4.412201   3.360000   3.638886   2.035072
                   16         17         18         19         20
    16  C    0.000000
    17  H    3.478132   0.000000
    18  H    4.105083   2.255080   0.000000
    19  H    3.015737   4.061866   3.380788   0.000000
    20  H    4.398705   4.188801   2.700600   1.772017   0.000000
    21  H    5.107859   6.307568   4.953947   2.480735   2.524011
    22  H    5.274717   6.025350   4.238085   3.068134   2.471915
    23  H    3.688705   6.141436   5.343030   2.676493   3.834924
    24  H    5.129234   7.170123   5.885384   3.833344   4.323598
    25  H    3.820293   6.221001   5.393493   4.159910   4.981990
    26  H    4.493546   5.903371   4.499821   4.011524   4.163952
    27  H    1.091714   4.211523   5.116253   3.687605   5.241720
                   21         22         23         24         25
    21  H    0.000000
    22  H    1.766009   0.000000
    23  H    2.462551   3.063462   0.000000
    24  H    2.529378   2.466492   1.766199   0.000000
    25  H    4.310670   3.838186   2.450114   2.503699   0.000000
    26  H    3.840078   2.694764   3.060074   2.488695   1.770296
    27  H    5.727485   6.126916   4.118318   5.708926   4.427805
                   26         27
    26  H    0.000000
    27  H    5.369012   0.000000
 Symmetry turned off by external request.
 Stoichiometry    C9H13N3O2
 Framework group  C1[X(C9H13N3O2)]
 Deg. of freedom    75
 Full point group                 C1      NOp   1
 Rotational constants (GHZ):           1.6457448           0.4237065           0.3758445
 Standard basis: 6-31G(d) (6D, 7F)
   236 basis functions,   444 primitive gaussians,   236 cartesian basis functions
    52 alpha electrons       52 beta electrons
       nuclear repulsion energy       932.1233940639 Hartrees.
 NAtoms=   27 NActive=   27 NUniq=   27 SFac= 1.00D+00 NAtFMM=   60 NAOKFM=F Big=F
 Integral buffers will be    131072 words long.
 Raffenetti 1 integral format.
 Two-electron integral symmetry is turned off.
 One-electron integrals computed using PRISM.
 NBasis=   236 RedAO= T EigKep=  1.05D-03  NBF=   236
 NBsUse=   236 1.00D-06 EigRej= -1.00D+00 NBFU=   236
 Initial guess from the checkpoint file:  "/home/alexey/tmp/Gau-1455486.chk"
 B after Tr=     0.060340    0.004599    0.006354
         Rot=    0.999999   -0.001452    0.000416    0.000674 Ang=  -0.19 deg.
 ExpMin= 1.61D-01 ExpMax= 5.48D+03 ExpMxC= 8.25D+02 IAcc=3 IRadAn=         5 AccDes= 0.00D+00
 Harris functional with IExCor=  205 and IRadAn=       5 diagonalized for initial guess.
 HarFok:  IExCor=  205 AccDes= 0.00D+00 IRadAn=         5 IDoV= 1 UseB2=F ITyADJ=14
 ICtDFT=  3500011 ScaDFX=  1.000000  1.000000  1.000000  1.000000
 FoFCou: FMM=F IPFlag=           0 FMFlag=      100000 FMFlg1=           0
         NFxFlg=           0 DoJE=T BraDBF=F KetDBF=T FulRan=T
         wScrn=  0.000000 ICntrl=       500 IOpCl=  0 I1Cent=   200000004 NGrid=           0
         NMat0=    1 NMatS0=      1 NMatT0=    0 NMatD0=    1 NMtDS0=    0 NMtDT0=    0
 Symmetry not used in FoFCou.
 Keep R1 ints in memory in canonical form, NReq=397720213.
 Requested convergence on RMS density matrix=1.00D-08 within 128 cycles.
 Requested convergence on MAX density matrix=1.00D-06.
 Requested convergence on             energy=1.00D-06.
 No special actions if energy rises.
 SCF Done:  E(RHF) =  -661.296206253     A.U. after   14 cycles
            NFock= 14  Conv=0.99D-08     -V/T= 2.0024
 ExpMin= 1.61D-01 ExpMax= 5.48D+03 ExpMxC= 8.25D+02 IAcc=3 IRadAn=         5 AccDes= 0.00D+00
 HarFok:  IExCor=  205 AccDes= 0.00D+00 IRadAn=         5 IDoV=-2 UseB2=F ITyADJ=14
 ICtDFT= 12500011 ScaDFX=  1.000000  1.000000  1.000000  1.000000
 Range of M.O.s used for correlation:    15   236
 NBasis=   236 NAE=    52 NBE=    52 NFC=    14 NFV=     0
 NROrb=    222 NOA=    38 NOB=    38 NVA=   184 NVB=   184
 Fully direct method using O(ONN) memory.
 JobTyp=1 Pass  1:  I=  15 to  52 NPSUse=  4 ParTrn=T ParDer=T DoDerP=T.
 Spin components of T(2) and E(2):
     alpha-alpha T2 =       0.9144338670D-01 E2=     -0.2725673872D+00
     alpha-beta  T2 =       0.4915650994D+00 E2=     -0.1488265555D+01
     beta-beta   T2 =       0.9144338670D-01 E2=     -0.2725673872D+00
 ANorm=    0.1294006133D+01
 E2 =    -0.2033400329D+01 EUMP2 =    -0.66332960658288D+03
          IDoAtm=111111111111111111111111111
          Differentiating once with respect to electric field.
                with respect to dipole field.
          Differentiating once with respect to nuclear coordinates.
 Keep R1 ints in memory in canonical form, NReq=397723379.
          There are     1 degrees of freedom in the 1st order CPHF.  IDoFFX=0 NUNeed=     1.
 LinEq1:  Iter=  0 NonCon=     1 RMS=4.62D-03 Max=1.10D-01 NDo=     1
 AX will form     1 AO Fock derivatives at one time.
 LinEq1:  Iter=  1 NonCon=     1 RMS=1.55D-03 Max=3.20D-02 NDo=     1
[...]
    27  H    4.713962   4.407532   3.363213   3.659680   2.026849
                   16         17         18         19         20
    16  C    0.000000
    17  H    3.455999   0.000000
    18  H    4.094297   2.227164   0.000000
    19  H    2.996260   4.083931   3.399888   0.000000
    20  H    4.395395   4.250581   2.763863   1.769412   0.000000
    21  H    5.097035   6.346170   5.004469   2.499891   2.519603
    22  H    5.259657   6.037049   4.281512   3.070272   2.461470
    23  H    3.679620   6.150067   5.376490   2.702317   3.842310
    24  H    5.126533   7.170928   5.920716   3.847997   4.316563
    25  H    3.817373   6.182118   5.404631   4.169956   4.986119
    26  H    4.504294   5.889102   4.536509   4.033250   4.181929
    27  H    1.089775   4.193475   5.090941   3.617595   5.192764
                   21         22         23         24         25
    21  H    0.000000
    22  H    1.758993   0.000000
    23  H    2.470126   3.062663   0.000000
    24  H    2.517032   2.460153   1.764378   0.000000
    25  H    4.312147   3.839414   2.443799   2.519187   0.000000
    26  H    3.846433   2.703679   3.060410   2.493072   1.768591
    27  H    5.665271   6.076026   4.070931   5.676677   4.426298
                   26         27
    26  H    0.000000
    27  H    5.372678   0.000000
 Symmetry turned off by external request.
 Stoichiometry    C9H13N3O2
 Framework group  C1[X(C9H13N3O2)]
 Deg. of freedom    75
 Full point group                 C1      NOp   1
 Rotational constants (GHZ):           1.6594541           0.4201667           0.3733633

 **********************************************************************

            Population analysis using the SCF Density.

 **********************************************************************

 Alpha  occ. eigenvalues --  -20.59336 -20.59001 -15.84807 -15.64097 -15.55964
 Alpha  occ. eigenvalues --  -11.35026 -11.29619 -11.29553 -11.28777 -11.27052
 Alpha  occ. eigenvalues --  -11.23986 -11.23329 -11.22611 -11.22116  -1.57220
 Alpha  occ. eigenvalues --   -1.36809  -1.30908  -1.22932  -1.14757  -1.09870
 Alpha  occ. eigenvalues --   -1.02780  -1.01371  -0.94444  -0.89717  -0.85687
 Alpha  occ. eigenvalues --   -0.82391  -0.78548  -0.77439  -0.75064  -0.71907
 Alpha  occ. eigenvalues --   -0.69741  -0.69572  -0.67905  -0.64789  -0.63848
 Alpha  occ. eigenvalues --   -0.62500  -0.60102  -0.57769  -0.56898  -0.55077
 Alpha  occ. eigenvalues --   -0.54660  -0.50774  -0.50303  -0.48745  -0.48164
 Alpha  occ. eigenvalues --   -0.47426  -0.46294  -0.45962  -0.43753  -0.41825
 Alpha  occ. eigenvalues --   -0.39559  -0.33846
 Alpha virt. eigenvalues --    0.07199   0.11629   0.17414   0.21909   0.24005
 Alpha virt. eigenvalues --    0.25392   0.27332   0.28467   0.29064   0.29526
 Alpha virt. eigenvalues --    0.30740   0.31757   0.32175   0.32820   0.33760
 Alpha virt. eigenvalues --    0.34353   0.35960   0.37499   0.38307   0.40281
 Alpha virt. eigenvalues --    0.41278   0.42364   0.44779   0.45896   0.46467
 Alpha virt. eigenvalues --    0.47586   0.48949   0.53725   0.57096   0.59247
 Alpha virt. eigenvalues --    0.63920   0.69033   0.69528   0.72800   0.74108
 Alpha virt. eigenvalues --    0.75028   0.75717   0.76524   0.78557   0.79176
 Alpha virt. eigenvalues --    0.81085   0.84313   0.85374   0.85805   0.88336
 Alpha virt. eigenvalues --    0.88530   0.90944   0.91804   0.92910   0.94536
 Alpha virt. eigenvalues --    0.95781   0.97846   0.99322   1.01388   1.02281
 Alpha virt. eigenvalues --    1.03110   1.05828   1.06923   1.08081   1.08612
 Alpha virt. eigenvalues --    1.10366   1.11724   1.12135   1.12829   1.13780
 Alpha virt. eigenvalues --    1.14546   1.15093   1.16064   1.16992   1.18466
 Alpha virt. eigenvalues --    1.18499   1.21310   1.22614   1.23491   1.24023
 Alpha virt. eigenvalues --    1.25831   1.26132   1.26651   1.27774   1.29398
 Alpha virt. eigenvalues --    1.30486   1.32506   1.35940   1.37364   1.40125
 Alpha virt. eigenvalues --    1.40364   1.42831   1.48497   1.52699   1.54149
 Alpha virt. eigenvalues --    1.57123   1.58948   1.61128   1.63173   1.66534
 Alpha virt. eigenvalues --    1.68592   1.70653   1.72236   1.75544   1.78448
 Alpha virt. eigenvalues --    1.80464   1.84223   1.87226   1.89815   1.92711
 Alpha virt. eigenvalues --    1.95781   1.96291   1.99602   2.01612   2.02114
 Alpha virt. eigenvalues --    2.03842   2.05536   2.09203   2.09680   2.12089
 Alpha virt. eigenvalues --    2.12785   2.14916   2.19232   2.20140   2.21306
 Alpha virt. eigenvalues --    2.22070   2.24727   2.25053   2.27728   2.28354
 Alpha virt. eigenvalues --    2.31359   2.33282   2.34588   2.36391   2.37700
 Alpha virt. eigenvalues --    2.40417   2.42323   2.44241   2.45396   2.48195
 Alpha virt. eigenvalues --    2.50738   2.51930   2.54108   2.55882   2.60128
 Alpha virt. eigenvalues --    2.62538   2.65787   2.67501   2.69893   2.70743
 Alpha virt. eigenvalues --    2.71648   2.72141   2.75596   2.77788   2.84466
 Alpha virt. eigenvalues --    2.87043   2.88376   2.92745   2.93467   2.96004
 Alpha virt. eigenvalues --    2.98677   3.00947   3.03497   3.06805   3.07831
 Alpha virt. eigenvalues --    3.09791   3.16296   3.20605   3.25123   3.27269
 Alpha virt. eigenvalues --    3.33987   3.37044   3.38179   3.51339   3.64413
 Alpha virt. eigenvalues --    4.13603   4.27593   4.32684   4.37981   4.46518
 Alpha virt. eigenvalues --    4.55588   4.61747   4.62679   4.72911   4.80013
 Alpha virt. eigenvalues --    4.98700   5.00666   5.04481   5.11605
          Condensed to atoms (all electrons):
               1          2          3          4          5          6
     1  O    8.314453   0.305236  -0.081595  -0.083330   0.004361  -0.000015
     2  N    0.305236   5.727358   0.298300   0.260340  -0.050747   0.001019
     3  O   -0.081595   0.298300   8.351572  -0.089149   0.000518   0.000728
     4  C   -0.083330   0.260340  -0.089149   5.236672   0.556599  -0.053777
     5  C    0.004361  -0.050747   0.000518   0.556599   4.725136   0.319820
     6  N   -0.000015   0.001019   0.000728  -0.053777   0.319820   7.163103
     7  C    0.000003  -0.000106   0.000001   0.005487  -0.031022   0.190210
     8  H   -0.000000   0.000002   0.000000  -0.000317   0.004047  -0.048580
     9  C   -0.000000  -0.000006  -0.000000   0.000683  -0.000573  -0.064170
    10  C   -0.000000   0.000000   0.000000  -0.000041  -0.000010   0.003930
    11  C   -0.000000  -0.000000  -0.000000  -0.000017   0.000012  -0.000163
    12  C    0.000000   0.000002  -0.000000  -0.000219  -0.000170   0.003658
    13  C   -0.000019  -0.000012  -0.000003  -0.008801  -0.001430  -0.054118
    14  H   -0.000001  -0.000088   0.000001   0.002020   0.003779  -0.005904
    15  N    0.000515   0.002167  -0.000016  -0.065727  -0.004808   0.001075
    16  C   -0.000020  -0.027449   0.002746   0.320096  -0.050962  -0.000852
    17  H    0.000248  -0.007353   0.017836  -0.025138   0.376840  -0.034225
    18  H    0.000001  -0.000055   0.000014   0.002109  -0.032754   0.337690
    19  H    0.000001  -0.000010   0.000000  -0.001511   0.002143  -0.000907
    20  H    0.000000  -0.000000   0.000000  -0.000031  -0.000002  -0.000193
    21  H   -0.000000   0.000000  -0.000000   0.000001   0.000000  -0.000083
    22  H   -0.000000   0.000000  -0.000000  -0.000000  -0.000002  -0.000102
    23  H    0.000000  -0.000000   0.000000   0.000040  -0.000001  -0.000030
    24  H    0.000000   0.000000   0.000000   0.000000  -0.000000   0.000006
    25  H    0.000000  -0.000000   0.000000   0.000026  -0.000001  -0.000086
    26  H    0.000000  -0.000000   0.000000   0.000005  -0.000001  -0.000072
    27  H    0.006791  -0.000806   0.000040  -0.066396   0.001888   0.000012
               7          8          9         10         11         12
     1  O    0.000003  -0.000000  -0.000000  -0.000000  -0.000000   0.000000
     2  N   -0.000106   0.000002  -0.000006   0.000000  -0.000000   0.000002
     3  O    0.000001   0.000000  -0.000000   0.000000  -0.000000  -0.000000
     4  C    0.005487  -0.000317   0.000683  -0.000041  -0.000017  -0.000219
     5  C   -0.031022   0.004047  -0.000573  -0.000010   0.000012  -0.000170
     6  N    0.190210  -0.048580  -0.064170   0.003930  -0.000163   0.003658
     7  C    5.031078   0.416235   0.352784  -0.054140  -0.009345  -0.061985
     8  H    0.416235   0.530481  -0.053465   0.000502  -0.000189  -0.002123
     9  C    0.352784  -0.053465   5.163014   0.325271  -0.051188  -0.005165
    10  C   -0.054140   0.000502   0.325271   5.116273   0.337573  -0.060875
    11  C   -0.009345  -0.000189  -0.051188   0.337573   5.120937   0.335196
    12  C   -0.061985  -0.002123  -0.005165  -0.060875   0.335196   5.120725
    13  C    0.328445  -0.036241  -0.061369  -0.000240  -0.050056   0.372603
    14  H   -0.045618  -0.001054   0.004369  -0.000413   0.004224  -0.036810
    15  N   -0.057086   0.003699  -0.013698   0.001353  -0.013157  -0.083194
    16  C   -0.002328   0.000000  -0.000837  -0.000056  -0.000006   0.002419
    17  H    0.001703  -0.000036  -0.000083   0.000001  -0.000000   0.000001
    18  H   -0.024992  -0.004179   0.000948  -0.000082   0.000006  -0.000119
    19  H   -0.037283   0.004228   0.390859  -0.032040  -0.002111   0.000688
    20  H   -0.043826  -0.002207   0.399022  -0.034628   0.003941  -0.000445
    21  H    0.004578  -0.000081  -0.036375   0.402228  -0.034907   0.004361
    22  H   -0.004820   0.003507  -0.047097   0.397941  -0.045028  -0.001036
    23  H    0.000621   0.000031  -0.002018  -0.039153   0.399137  -0.038017
    24  H   -0.000140  -0.000100   0.004440  -0.038510   0.402435  -0.038451
    25  H    0.005231  -0.000038  -0.000408   0.004186  -0.033402   0.398100
    26  H   -0.003642   0.001629   0.000987  -0.002262  -0.041548   0.396696
    27  H   -0.000417   0.000008  -0.000051   0.000006   0.000013  -0.000031
              13         14         15         16         17         18
     1  O   -0.000019  -0.000001   0.000515  -0.000020   0.000248   0.000001
     2  N   -0.000012  -0.000088   0.002167  -0.027449  -0.007353  -0.000055
     3  O   -0.000003   0.000001  -0.000016   0.002746   0.017836   0.000014
     4  C   -0.008801   0.002020  -0.065727   0.320096  -0.025138   0.002109
     5  C   -0.001430   0.003779  -0.004808  -0.050962   0.376840  -0.032754
     6  N   -0.054118  -0.005904   0.001075  -0.000852  -0.034225   0.337690
     7  C    0.328445  -0.045618  -0.057086  -0.002328   0.001703  -0.024992
     8  H   -0.036241  -0.001054   0.003699   0.000000  -0.000036  -0.004179
     9  C   -0.061369   0.004369  -0.013698  -0.000837  -0.000083   0.000948
    10  C   -0.000240  -0.000413   0.001353  -0.000056   0.000001  -0.000082
    11  C   -0.050056   0.004224  -0.013157  -0.000006  -0.000000   0.000006
    12  C    0.372603  -0.036810  -0.083194   0.002419   0.000001  -0.000119
    13  C    5.040274   0.406598   0.242620  -0.068322  -0.000079   0.003744
    14  H    0.406598   0.517692  -0.036306  -0.004437   0.000052  -0.000071
    15  N    0.242620  -0.036306   6.974613   0.586023  -0.000037  -0.000154
    16  C   -0.068322  -0.004437   0.586023   4.720205   0.002138  -0.000228
    17  H   -0.000079   0.000052  -0.000037   0.002138   0.378355  -0.003466
    18  H    0.003744  -0.000071  -0.000154  -0.000228  -0.003466   0.320259
    19  H   -0.007451   0.000087   0.007092   0.002987   0.000027  -0.000158
    20  H    0.004496  -0.000066   0.000114  -0.000050  -0.000009   0.001571
    21  H   -0.000448   0.000010  -0.000049   0.000004  -0.000000   0.000000
    22  H    0.000020  -0.000053   0.000024  -0.000001   0.000000   0.000003
    23  H   -0.007645   0.000004   0.008813   0.000115   0.000000   0.000000
    24  H    0.004679  -0.000058   0.000123   0.000007   0.000000  -0.000000
    25  H   -0.035518  -0.002810   0.000725  -0.000048  -0.000000   0.000002
    26  H   -0.047691  -0.001029   0.004975  -0.000044   0.000000   0.000000
    27  H    0.004920  -0.000170  -0.040765   0.406151  -0.000081   0.000001
              19         20         21         22         23         24
     1  O    0.000001   0.000000  -0.000000  -0.000000   0.000000   0.000000
     2  N   -0.000010  -0.000000   0.000000   0.000000  -0.000000   0.000000
     3  O    0.000000   0.000000  -0.000000  -0.000000   0.000000   0.000000
     4  C   -0.001511  -0.000031   0.000001  -0.000000   0.000040   0.000000
     5  C    0.002143  -0.000002   0.000000  -0.000002  -0.000001  -0.000000
     6  N   -0.000907  -0.000193  -0.000083  -0.000102  -0.000030   0.000006
     7  C   -0.037283  -0.043826   0.004578  -0.004820   0.000621  -0.000140
     8  H    0.004228  -0.002207  -0.000081   0.003507   0.000031  -0.000100
     9  C    0.390859   0.399022  -0.036375  -0.047097  -0.002018   0.004440
    10  C   -0.032040  -0.034628   0.402228   0.397941  -0.039153  -0.038510
    11  C   -0.002111   0.003941  -0.034907  -0.045028   0.399137   0.402435
    12  C    0.000688  -0.000445   0.004361  -0.001036  -0.038017  -0.038451
    13  C   -0.007451   0.004496  -0.000448   0.000020  -0.007645   0.004679
    14  H    0.000087  -0.000066   0.000010  -0.000053   0.000004  -0.000058
    15  N    0.007092   0.000114  -0.000049   0.000024   0.008813   0.000123
    16  C    0.002987  -0.000050   0.000004  -0.000001   0.000115   0.000007
    17  H    0.000027  -0.000009  -0.000000   0.000000   0.000000   0.000000
    18  H   -0.000158   0.001571   0.000000   0.000003   0.000000  -0.000000
    19  H    0.506689  -0.025447  -0.002808   0.003981   0.001534  -0.000069
    20  H   -0.025447   0.544854  -0.002752  -0.002994  -0.000042  -0.000085
    21  H   -0.002808  -0.002752   0.524095  -0.027377  -0.002886  -0.002245
    22  H    0.003981  -0.002994  -0.027377   0.569736   0.004128  -0.003639
    23  H    0.001534  -0.000042  -0.002886   0.004128   0.499453  -0.025467
    24  H   -0.000069  -0.000085  -0.002245  -0.003639  -0.025467   0.537525
    25  H   -0.000031   0.000012  -0.000086  -0.000081  -0.002292  -0.002329
    26  H    0.000021  -0.000029  -0.000080   0.002378   0.004077  -0.003014
    27  H    0.000080   0.000000  -0.000000   0.000000  -0.000038  -0.000000
              25         26         27
     1  O    0.000000   0.000000   0.006791
     2  N   -0.000000  -0.000000  -0.000806
     3  O    0.000000   0.000000   0.000040
     4  C    0.000026   0.000005  -0.066396
     5  C   -0.000001  -0.000001   0.001888
     6  N   -0.000086  -0.000072   0.000012
     7  C    0.005231  -0.003642  -0.000417
     8  H   -0.000038   0.001629   0.000008
     9  C   -0.000408   0.000987  -0.000051
    10  C    0.004186  -0.002262   0.000006
    11  C   -0.033402  -0.041548   0.000013
    12  C    0.398100   0.396696  -0.000031
    13  C   -0.035518  -0.047691   0.004920
    14  H   -0.002810  -0.001029  -0.000170
    15  N    0.000725   0.004975  -0.040765
    16  C   -0.000048  -0.000044   0.406151
    17  H   -0.000000   0.000000  -0.000081
    18  H    0.000002   0.000000   0.000001
    19  H   -0.000031   0.000021   0.000080
    20  H    0.000012  -0.000029   0.000000
    21  H   -0.000086  -0.000080  -0.000000
    22  H   -0.000081   0.002378   0.000000
    23  H   -0.002292   0.004077  -0.000038
    24  H   -0.002329  -0.003014  -0.000000
    25  H    0.505902  -0.023936  -0.000016
    26  H   -0.023936   0.562284   0.000001
    27  H   -0.000016   0.000001   0.436422
 Mulliken charges:
               1
     1  O   -0.466629
     2  N    0.492208
     3  O   -0.500993
     4  C    0.010375
     5  C    0.177338
     6  N   -0.757976
     7  C    0.040374
     8  H    0.184244
     9  C   -0.305872
    10  C   -0.326813
    11  C   -0.322357
    12  C   -0.305808
    13  C   -0.028954
    14  H    0.196054
    15  N   -0.518938
    16  C    0.112750
    17  H    0.293308
    18  H    0.399911
    19  H    0.189408
    20  H    0.158798
    21  H    0.174899
    22  H    0.150514
    23  H    0.199636
    24  H    0.164893
    25  H    0.186897
    26  H    0.150294
    27  H    0.252439
 Sum of Mulliken charges =  -0.00000
 Mulliken charges with hydrogens summed into heavy atoms:
               1
     1  O   -0.466629
     2  N    0.492208
     3  O   -0.500993
     4  C    0.010375
     5  C    0.470646
     6  N   -0.358065
     7  C    0.224618
     9  C    0.042334
    10  C   -0.001400
    11  C    0.042173
    12  C    0.031383
    13  C    0.167099
    15  N   -0.518938
    16  C    0.365189
 Electronic spatial extent (au):  <R**2>=           3001.8230
 Charge=             -0.0000 electrons
 Dipole moment (field-independent basis, Debye):
    X=              5.4558    Y=              4.6935    Z=              1.0553  Tot=              7.2738
 Quadrupole moment (field-independent basis, Debye-Ang):
   XX=           -105.8366   YY=            -78.9868   ZZ=            -82.2007
   XY=             -1.1154   XZ=             -0.9555   YZ=              0.6669
 Traceless Quadrupole moment (field-independent basis, Debye-Ang):
   XX=            -16.8286   YY=             10.0213   ZZ=              6.8073
   XY=             -1.1154   XZ=             -0.9555   YZ=              0.6669
 Octapole moment (field-independent basis, Debye-Ang**2):
  XXX=             91.2686  YYY=             35.3558  ZZZ=             -2.2515  XYY=             -5.0063
  XXY=              7.5305  XXZ=             10.0749  XZZ=             -8.3962  YZZ=             -1.2374
  YYZ=              5.5787  XYZ=              1.5977
 Hexadecapole moment (field-independent basis, Debye-Ang**3):
 XXXX=          -3355.8528 YYYY=           -602.7223 ZZZZ=           -311.5078 XXXY=             -6.4747
 XXXZ=            -61.2175 YYYX=              1.3492 YYYZ=             20.5717 ZZZX=            -23.2605
 ZZZY=              5.4378 XXYY=           -625.2772 XXZZ=           -525.7306 YYZZ=           -162.4137
 XXYZ=             -4.5413 YYXZ=             -6.6530 ZZXY=              6.7541
 N-N= 9.309758123151D+02 E-N=-3.408639620336D+03  KE= 6.596266920383D+02
 Unable to Open any file for archive entry.
 1\1\GINC-LOTUS\FOpt\RMP2-FC\6-31G(d)\C9H13N3O2\ALEXEY\02-Jul-2023\0\\#
 MP2/6-31G* SCF=Tight Opt=(ModRedun, MaxCycle=20 ) NoSymm\\MolName:\\0,
 1\O,-3.5181253731,-1.3476004938,-0.4822533713\N,-3.116077002,-0.199012
 5372,-0.2138037269\O,-3.8709116783,0.7874548669,-0.1132412523\C,-1.688
 2205996,-0.0316492584,0.0165527583\C,-1.2788682184,1.2650502644,0.1970
 505353\N,-0.0580734708,1.7159179657,0.5356511215\C,1.2159517472,1.0148
 02452,0.4377976118\H,1.8817717104,1.5401948548,1.1376434532\C,1.858242
 8008,1.0491572887,-0.9469809579\C,3.2643542108,0.4453174328,-0.8538210
 611\C,3.2473373295,-0.9602243785,-0.2469058455\C,2.5105809063,-0.99375
 64674,1.0937477014\C,1.0896451609,-0.442993974,0.92539023\H,0.55464622
 78,-0.4410546569,1.8865470925\N,0.4097934863,-1.3329545503,-0.01144764
 53\C,-0.8480503313,-1.1810275684,-0.2702964972\H,-2.0616373726,2.01878
 29619,0.2117310464\H,0.014783763,2.72630073,0.5966374796\H,1.234264350
 2,0.4786698929,-1.6439569942\H,1.9051273037,2.0824029844,-1.3141042768
 \H,3.7252096703,0.4239037215,-1.8480334758\H,3.8890535736,1.1042597321
 ,-0.2342409878\H,2.7413646461,-1.6482522925,-0.9316595813\H,4.27434491
 42,-1.3228958176,-0.1210152836\H,2.4463723151,-2.0216167909,1.46536657
 69\H,3.0507968505,-0.4039709453,1.8472117085\H,-1.3166569206,-1.965165
 4171,-0.8645563584\\Version=ES64L-G16RevC.02\HF=-661.2969527\MP2=-663.
 3317781\RMSD=3.612e-09\RMSF=2.574e-03\Dipole=1.9885252,1.6492076,0.407
 0153\PG=C01 [X(C9H13N3O2)]\\@
 The archive entry for this job was punched.


 I CLAIM NOT TO HAVE CONTROLLED EVENTS,
 BUT CONFESS PLAINLY THAT EVENTS HAVE CONTROLLED ME.

                                         A. LINCOLN
 Job cpu time:       0 days  1 hours  0 minutes 43.9 seconds.
 Elapsed time:       0 days  0 hours 18 minutes 18.3 seconds.
 File lengths (MBytes):  RWF=     36 Int=      0 D2E=      0 Chk=      7 Scr=      1
 Normal termination of Gaussian 16 at Sun Jul  2 06:10:04 2023.
