 Entering Gaussian System, Link 0=g16
 Initial command:
 /home/alexey/programs//g16/l1.exe "/home/alexey/tmp/Gau-1242826.inp" -scrdir="/home/alexey/tmp/"
 Entering Link 1 = /home/alexey/programs//g16/l1.exe PID=   1242828.
  
 Copyright (c) 1988-2021, Gaussian, Inc.  All Rights Reserved.
  
 This is part of the Gaussian(R) 16 program.  It is based on
 the Gaussian(R) 09 system (copyright 2009, Gaussian, Inc.),
 the Gaussian(R) 03 system (copyright 2003, Gaussian, Inc.),
 the Gaussian(R) 98 system (copyright 1998, Gaussian, Inc.),
 the Gaussian(R) 94 system (copyright 1995, Gaussian, Inc.),
 the Gaussian 92(TM) system (copyright 1992, Gaussian, Inc.),
 the Gaussian 90(TM) system (copyright 1990, Gaussian, Inc.),
 the Gaussian 88(TM) system (copyright 1988, Gaussian, Inc.),
 the Gaussian 86(TM) system (copyright 1986, Carnegie Mellon
 University), and the Gaussian 82(TM) system (copyright 1983,
 Carnegie Mellon University). Gaussian is a federally registered
 trademark of Gaussian, Inc.
  
 This software contains proprietary and confidential information,
 including trade secrets, belonging to Gaussian, Inc.
  
 This software is provided under written license and may be
 used, copied, transmitted, or stored only in accord with that
 written license.
  
 The following legend is applicable only to US Government
 contracts under FAR:
  
                    RESTRICTED RIGHTS LEGEND
  
 Use, reproduction and disclosure by the US Government is
 subject to restrictions as set forth in subparagraphs (a)
 and (c) of the Commercial Computer Software - Restricted
 Rights clause in FAR 52.227-19.
  
 Gaussian, Inc.
 340 Quinnipiac St., Bldg. 40, Wallingford CT 06492
  
  
 ---------------------------------------------------------------
 Warning -- This program may not be used in any manner that
 competes with the business of Gaussian, Inc. or will provide
 assistance to any competitor of Gaussian, Inc.  The licensee
 of this program is prohibited from giving any competitor of
 Gaussian, Inc. access to this program.  By using this program,
 the user acknowledges that Gaussian, Inc. is engaged in the
 business of creating and licensing software in the field of
 computational chemistry and represents and warrants to the
 licensee that it is not a competitor of Gaussian, Inc. and that
 it will not use this program in any manner prohibited above.
 ---------------------------------------------------------------
  

 Cite this work as:
 Gaussian 16, Revision C.02,
 M. J. Frisch, G. W. Trucks, H. B. Schlegel, G. E. Scuseria, 
 M. A. Robb, J. R. Cheeseman, G. Scalmani, V. Barone, 
 G. A. Petersson, H. Nakatsuji, X. Li, M. Caricato, A. V. Marenich, 
 J. Bloino, B. G. Janesko, R. Gomperts, B. Mennucci, H. P. Hratchian, 
 J. V. Ortiz, A. F. Izmaylov, J. L. Sonnenberg, D. Williams-Young, 
 F. Ding, F. Lipparini, F. Egidi, J. Goings, B. Peng, A. Petrone, 
 T. Henderson, D. Ranasinghe, V. G. Zakrzewski, J. Gao, N. Rega, 
 G. Zheng, W. Liang, M. Hada, M. Ehara, K. Toyota, R. Fukuda, 
 J. Hasegawa, M. Ishida, T. Nakajima, Y. Honda, O. Kitao, H. Nakai, 
 T. Vreven, K. Throssell, J. A. Montgomery, Jr., J. E. Peralta, 
 F. Ogliaro, M. J. Bearpark, J. J. Heyd, E. N. Brothers, K. N. Kudin, 
 V. N. Staroverov, T. A. Keith, R. Kobayashi, J. Normand, 
 K. Raghavachari, A. P. Rendell, J. C. Burant, S. S. Iyengar, 
 J. Tomasi, M. Cossi, J. M. Millam, M. Klene, C. Adamo, R. Cammi, 
 J. W. Ochterski, R. L. Martin, K. Morokuma, O. Farkas, 
 J. B. Foresman, and D. J. Fox, Gaussian, Inc., Wallingford CT, 2019.
 
 ******************************************
 Gaussian 16:  ES64L-G16RevC.02  7-Dec-2021
                 1-Jul-2023 
 ******************************************
 %mem=8GB
 %NPROCS=4
 Will use up to    4 processors via shared memory.
 %NoSave
 ---------------------------------------------------------
 #MP2/6-31G* SCF=Tight Opt=(ModRedun, MaxCycle=20 ) NoSymm
 ---------------------------------------------------------
 1/6=20,18=120,19=15,38=1/1,3;
 2/9=110,12=2,15=1,17=6,18=5,40=1/2;
 3/5=1,6=6,7=1,11=9,25=1,30=1,71=1/1,2,3;
 4//1;
 5/5=2,32=2,38=5/2;
 8/6=4,10=2/1;
 9/15=2,16=-3/6;
 10/5=1,31=1/2;
 6/7=2,8=2,9=2,10=2/1;
 7/12=2,30=1/1,2,3,16;
 1/6=20,18=20,19=15/3(2);
 2/9=110,15=1/2;
 99//99;
 2/9=110,15=1/2;
 3/5=1,6=6,7=1,11=9,25=1,30=1,71=1/1,2,3;
 4/5=5,16=3,69=1/1;
 5/5=2,32=2,38=5/2;
 8/6=4,10=2/1;
 9/15=2,16=-3/6;
 10/5=1,31=1/2;
 7/12=2,30=1/1,2,3,16;
 1/6=20,18=20,19=15/3(-8);
 2/9=110,15=1/2;
 6/7=2,8=2,9=2,10=2/1;
 99/9=10/99;
 --------
 MolName:
 --------
 Symbolic Z-matrix:
 Charge =  0 Multiplicity = 1
 8                    0    -3.57896  -1.48724  -0.10369 
 7                    0    -3.24018  -0.3228    0.09947 
 8                    0    -4.02774   0.58466   0.36908 
 6                    0    -1.75975   0.01348  -0.02509 
 6                    0    -1.36428   1.29347   0.38352 
 7                    0    -0.09161   1.78333   0.24404 
 6                    0     1.18468   1.00651   0.28457 
 1                    0     1.81183   1.51062   1.06551 
 6                    0     2.01799   1.04366  -1.01975 
 6                    0     3.41453   0.45045  -0.75532 
 6                    0     3.3126   -0.96107  -0.15632 
 6                    0     2.39922  -0.98174   1.08882 
 6                    0     0.97832  -0.43519   0.77795 
 1                    0     0.39807  -0.46691   1.7301 
 7                    0     0.35996  -1.3019   -0.23193 
 6                    0    -0.86793  -1.05174  -0.56705 
 1                    0    -2.11745   1.9755    0.81207 
 1                    0     0.10502   2.73744  -0.06822 
 1                    0     1.50557   0.46431  -1.81722 
 1                    0     2.12933   2.09057  -1.37379 
 1                    0     3.99816   0.41684  -1.70127 
 1                    0     3.9598    1.10507  -0.03917 
 1                    0     2.89747  -1.65144  -0.92509 
 1                    0     4.32541  -1.33141   0.11418 
 1                    0     2.31494  -2.02595   1.46211 
 1                    0     2.8608   -0.37154   1.89348 
 1                    0    -1.36478  -1.72398  -1.28299 
 
 The following ModRedundant input section has been read:
 D       4       5       6       7 F                                           
 D       1       2       4      16 F                                           
 D       7      13      15      16 F                                           
 D       7       9      10      11 F                                           
 D       9      10      11      12 F                                           
 D       6       7      13      15 F                                           
 

 GradGradGradGradGradGradGradGradGradGradGradGradGradGradGradGradGradGrad
 Berny optimization.
 Initialization pass.
                           ----------------------------
                           !    Initial Parameters    !
                           ! (Angstroms and Degrees)  !
 --------------------------                            --------------------------
 ! Name  Definition              Value          Derivative Info.                !
 --------------------------------------------------------------------------------
 ! R1    R(1,2)                  1.2296         estimate D2E/DX2                !
 ! R2    R(2,3)                  1.2314         estimate D2E/DX2                !
 ! R3    R(2,4)                  1.5232         estimate D2E/DX2                !
 ! R4    R(4,5)                  1.4006         estimate D2E/DX2                !
 ! R5    R(4,16)                 1.4912         estimate D2E/DX2                !
 ! R6    R(5,6)                  1.3708         estimate D2E/DX2                !
 ! R7    R(5,17)                 1.1028         estimate D2E/DX2                !
 ! R8    R(6,7)                  1.4947         estimate D2E/DX2                !
 ! R9    R(6,18)                 1.023          estimate D2E/DX2                !
 ! R10   R(7,8)                  1.1213         estimate D2E/DX2                !
 ! R11   R(7,9)                  1.5482         estimate D2E/DX2                !
 ! R12   R(7,13)                 1.5377         estimate D2E/DX2                !
 ! R13   R(9,10)                 1.5402         estimate D2E/DX2                !
 ! R14   R(9,19)                 1.1109         estimate D2E/DX2                !
 ! R15   R(9,20)                 1.1107         estimate D2E/DX2                !
 ! R16   R(10,11)                1.5367         estimate D2E/DX2                !
 ! R17   R(10,21)                1.112          estimate D2E/DX2                !
 ! R18   R(10,22)                1.113          estimate D2E/DX2                !
 ! R19   R(11,12)                1.5444         estimate D2E/DX2                !
 ! R20   R(11,23)                1.1135         estimate D2E/DX2                !
 ! R21   R(11,24)                1.1118         estimate D2E/DX2                !
 ! R22   R(12,13)                1.5538         estimate D2E/DX2                !
 ! R23   R(12,25)                1.1121         estimate D2E/DX2                !
 ! R24   R(12,26)                1.1104         estimate D2E/DX2                !
 ! R25   R(13,14)                1.1155         estimate D2E/DX2                !
 ! R26   R(13,15)                1.4675         estimate D2E/DX2                !
 ! R27   R(15,16)                1.2972         estimate D2E/DX2                !
 ! R28   R(16,27)                1.1006         estimate D2E/DX2                !
 ! A1    A(1,2,3)              123.9052         estimate D2E/DX2                !
 ! A2    A(1,2,4)              117.6018         estimate D2E/DX2                !
 ! A3    A(3,2,4)              118.476          estimate D2E/DX2                !
 ! A4    A(2,4,5)              116.8922         estimate D2E/DX2                !
 ! A5    A(2,4,16)             116.9528         estimate D2E/DX2                !
 ! A6    A(5,4,16)             126.1548         estimate D2E/DX2                !
 ! A7    A(4,5,6)              123.9888         estimate D2E/DX2                !
 ! A8    A(4,5,17)             119.0608         estimate D2E/DX2                !
 ! A9    A(6,5,17)             116.9118         estimate D2E/DX2                !
 ! A10   A(5,6,7)              127.1773         estimate D2E/DX2                !
 ! A11   A(5,6,18)             122.8747         estimate D2E/DX2                !
 ! A12   A(7,6,18)             109.2012         estimate D2E/DX2                !
 ! A13   A(6,7,8)              105.2374         estimate D2E/DX2                !
 ! A14   A(6,7,9)              115.1051         estimate D2E/DX2                !
 ! A15   A(6,7,13)             112.4199         estimate D2E/DX2                !
 ! A16   A(8,7,9)              105.9568         estimate D2E/DX2                !
 ! A17   A(8,7,13)             105.8492         estimate D2E/DX2                !
 ! A18   A(9,7,13)             111.4098         estimate D2E/DX2                !
 ! A19   A(7,9,10)             109.5212         estimate D2E/DX2                !
 ! A20   A(7,9,19)             110.119          estimate D2E/DX2                !
 ! A21   A(7,9,20)             110.1874         estimate D2E/DX2                !
 ! A22   A(10,9,19)            109.9147         estimate D2E/DX2                !
 ! A23   A(10,9,20)            109.078          estimate D2E/DX2                !
 ! A24   A(19,9,20)            107.9964         estimate D2E/DX2                !
 ! A25   A(9,10,11)            111.134          estimate D2E/DX2                !
 ! A26   A(9,10,21)            109.9674         estimate D2E/DX2                !
 ! A27   A(9,10,22)            109.1575         estimate D2E/DX2                !
 ! A28   A(11,10,21)           109.7932         estimate D2E/DX2                !
 ! A29   A(11,10,22)           108.7796         estimate D2E/DX2                !
 ! A30   A(21,10,22)           107.9394         estimate D2E/DX2                !
 ! A31   A(10,11,12)           111.4559         estimate D2E/DX2                !
 ! A32   A(10,11,23)           108.9708         estimate D2E/DX2                !
 ! A33   A(10,11,24)           109.8992         estimate D2E/DX2                !
 ! A34   A(12,11,23)           109.1377         estimate D2E/DX2                !
 ! A35   A(12,11,24)           109.7643         estimate D2E/DX2                !
 ! A36   A(23,11,24)           107.5217         estimate D2E/DX2                !
 ! A37   A(11,12,13)           112.0135         estimate D2E/DX2                !
 ! A38   A(11,12,25)           109.1479         estimate D2E/DX2                !
 ! A39   A(11,12,26)           109.3334         estimate D2E/DX2                !
 ! A40   A(13,12,25)           109.1548         estimate D2E/DX2                !
 ! A41   A(13,12,26)           109.38           estimate D2E/DX2                !
 ! A42   A(25,12,26)           107.7133         estimate D2E/DX2                !
 ! A43   A(7,13,12)            105.7394         estimate D2E/DX2                !
 ! A44   A(7,13,14)            111.737          estimate D2E/DX2                !
 ! A45   A(7,13,15)            112.9229         estimate D2E/DX2                !
 ! A46   A(12,13,14)           107.1521         estimate D2E/DX2                !
 ! A47   A(12,13,15)           108.3774         estimate D2E/DX2                !
 ! A48   A(14,13,15)           110.575          estimate D2E/DX2                !
 ! A49   A(13,15,16)           117.5663         estimate D2E/DX2                !
 ! A50   A(4,16,15)            127.588          estimate D2E/DX2                !
 ! A51   A(4,16,27)            113.7494         estimate D2E/DX2                !
 ! A52   A(15,16,27)           118.5282         estimate D2E/DX2                !
 ! D1    D(1,2,4,5)           -171.5905         estimate D2E/DX2                !
 ! D2    D(1,2,4,16)             8.2585         Frozen                          !
 ! D3    D(3,2,4,5)              9.8512         estimate D2E/DX2                !
 ! D4    D(3,2,4,16)          -170.2999         estimate D2E/DX2                !
 ! D5    D(2,4,5,6)           -175.0016         estimate D2E/DX2                !
 ! D6    D(2,4,5,17)             2.6669         estimate D2E/DX2                !
 ! D7    D(16,4,5,6)             5.1652         estimate D2E/DX2                !
 ! D8    D(16,4,5,17)         -177.1663         estimate D2E/DX2                !
 ! D9    D(2,4,16,15)         -145.1725         estimate D2E/DX2                !
 ! D10   D(2,4,16,27)           30.5088         estimate D2E/DX2                !
 ! D11   D(5,4,16,15)           34.6607         estimate D2E/DX2                !
 ! D12   D(5,4,16,27)         -149.6581         estimate D2E/DX2                !
 ! D13   D(4,5,6,7)            -31.4199         Frozen                          !
 ! D14   D(4,5,6,18)           137.5864         estimate D2E/DX2                !
 ! D15   D(17,5,6,7)           150.8656         estimate D2E/DX2                !
 ! D16   D(17,5,6,18)          -40.1282         estimate D2E/DX2                !
 ! D17   D(5,6,7,8)           -125.8505         estimate D2E/DX2                !
 ! D18   D(5,6,7,9)            117.8998         estimate D2E/DX2                !
 ! D19   D(5,6,7,13)           -11.1053         estimate D2E/DX2                !
 ! D20   D(18,6,7,8)            63.9139         estimate D2E/DX2                !
 ! D21   D(18,6,7,9)           -52.3357         estimate D2E/DX2                !
 ! D22   D(18,6,7,13)          178.6592         estimate D2E/DX2                !
 ! D23   D(6,7,9,10)           168.834          estimate D2E/DX2                !
 ! D24   D(6,7,9,19)           -70.185          estimate D2E/DX2                !
 ! D25   D(6,7,9,20)            48.8445         estimate D2E/DX2                !
 ! D26   D(8,7,9,10)            52.9953         estimate D2E/DX2                !
 ! D27   D(8,7,9,19)           173.9763         estimate D2E/DX2                !
 ! D28   D(8,7,9,20)           -66.9941         estimate D2E/DX2                !
 ! D29   D(13,7,9,10)          -61.6636         estimate D2E/DX2                !
 ! D30   D(13,7,9,19)           59.3174         estimate D2E/DX2                !
 ! D31   D(13,7,9,20)          178.3469         estimate D2E/DX2                !
 ! D32   D(6,7,13,12)         -166.6315         estimate D2E/DX2                !
 ! D33   D(6,7,13,14)          -50.3861         estimate D2E/DX2                !
 ! D34   D(6,7,13,15)           75.0207         Frozen                          !
 ! D35   D(8,7,13,12)          -52.2586         estimate D2E/DX2                !
 ! D36   D(8,7,13,14)           63.9868         estimate D2E/DX2                !
 ! D37   D(8,7,13,15)         -170.6064         estimate D2E/DX2                !
 ! D38   D(9,7,13,12)           62.4671         estimate D2E/DX2                !
 ! D39   D(9,7,13,14)          178.7124         estimate D2E/DX2                !
 ! D40   D(9,7,13,15)          -55.8808         estimate D2E/DX2                !
 ! D41   D(7,9,10,11)           54.8127         Frozen                          !
 ! D42   D(7,9,10,21)          176.596          estimate D2E/DX2                !
 ! D43   D(7,9,10,22)          -65.1653         estimate D2E/DX2                !
 ! D44   D(19,9,10,11)         -66.292          estimate D2E/DX2                !
 ! D45   D(19,9,10,21)          55.4914         estimate D2E/DX2                !
 ! D46   D(19,9,10,22)         173.73           estimate D2E/DX2                !
 ! D47   D(20,9,10,11)         175.4787         estimate D2E/DX2                !
 ! D48   D(20,9,10,21)         -62.7379         estimate D2E/DX2                !
 ! D49   D(20,9,10,22)          55.5007         estimate D2E/DX2                !
 ! D50   D(9,10,11,12)         -52.8228         Frozen                          !
 ! D51   D(9,10,11,23)          67.6804         estimate D2E/DX2                !
 ! D52   D(9,10,11,24)        -174.7382         estimate D2E/DX2                !
 ! D53   D(21,10,11,12)       -174.7077         estimate D2E/DX2                !
 ! D54   D(21,10,11,23)        -54.2044         estimate D2E/DX2                !
 ! D55   D(21,10,11,24)         63.3769         estimate D2E/DX2                !
 ! D56   D(22,10,11,12)         67.3793         estimate D2E/DX2                !
 ! D57   D(22,10,11,23)       -172.1174         estimate D2E/DX2                !
 ! D58   D(22,10,11,24)        -54.5361         estimate D2E/DX2                !
 ! D59   D(10,11,12,13)         56.3977         estimate D2E/DX2                !
 ! D60   D(10,11,12,25)        177.3973         estimate D2E/DX2                !
 ! D61   D(10,11,12,26)        -65.0127         estimate D2E/DX2                !
 ! D62   D(23,11,12,13)        -64.0075         estimate D2E/DX2                !
 ! D63   D(23,11,12,25)         56.9921         estimate D2E/DX2                !
 ! D64   D(23,11,12,26)        174.582          estimate D2E/DX2                !
 ! D65   D(24,11,12,13)        178.3912         estimate D2E/DX2                !
 ! D66   D(24,11,12,25)        -60.6092         estimate D2E/DX2                !
 ! D67   D(24,11,12,26)         56.9807         estimate D2E/DX2                !
 ! D68   D(11,12,13,7)         -59.5454         estimate D2E/DX2                !
 ! D69   D(11,12,13,14)       -178.864          estimate D2E/DX2                !
 ! D70   D(11,12,13,15)         61.7895         estimate D2E/DX2                !
 ! D71   D(25,12,13,7)         179.459          estimate D2E/DX2                !
 ! D72   D(25,12,13,14)         60.1403         estimate D2E/DX2                !
 ! D73   D(25,12,13,15)        -59.2061         estimate D2E/DX2                !
 ! D74   D(26,12,13,7)          61.8382         estimate D2E/DX2                !
 ! D75   D(26,12,13,14)        -57.4805         estimate D2E/DX2                !
 ! D76   D(26,12,13,15)       -176.8269         estimate D2E/DX2                !
 ! D77   D(7,13,15,16)         -67.1601         Frozen                          !
 ! D78   D(12,13,15,16)        176.0424         estimate D2E/DX2                !
 ! D79   D(14,13,15,16)         58.8721         estimate D2E/DX2                !
 ! D80   D(13,15,16,4)          -1.2868         estimate D2E/DX2                !
 ! D81   D(13,15,16,27)       -176.7871         estimate D2E/DX2                !
 --------------------------------------------------------------------------------
 Trust Radius=3.00D-01 FncErr=1.00D-07 GrdErr=1.00D-07 EigMax=2.50D+02 EigMin=1.00D-04
 Number of steps in this run=     20 maximum allowed number of steps=    162.
 GradGradGradGradGradGradGradGradGradGradGradGradGradGradGradGradGradGrad

                          Input orientation:                          
 ---------------------------------------------------------------------
 Center     Atomic      Atomic             Coordinates (Angstroms)
 Number     Number       Type             X           Y           Z
 ---------------------------------------------------------------------
      1          8           0       -3.578960   -1.487240   -0.103690
      2          7           0       -3.240180   -0.322800    0.099470
      3          8           0       -4.027740    0.584660    0.369080
      4          6           0       -1.759750    0.013480   -0.025090
      5          6           0       -1.364280    1.293470    0.383520
      6          7           0       -0.091610    1.783330    0.244040
      7          6           0        1.184680    1.006510    0.284570
      8          1           0        1.811830    1.510620    1.065510
      9          6           0        2.017990    1.043660   -1.019750
     10          6           0        3.414530    0.450450   -0.755320
     11          6           0        3.312600   -0.961070   -0.156320
     12          6           0        2.399220   -0.981740    1.088820
     13          6           0        0.978320   -0.435190    0.777950
     14          1           0        0.398070   -0.466910    1.730100
     15          7           0        0.359960   -1.301900   -0.231930
     16          6           0       -0.867930   -1.051740   -0.567050
     17          1           0       -2.117450    1.975500    0.812070
     18          1           0        0.105020    2.737440   -0.068220
     19          1           0        1.505570    0.464310   -1.817220
     20          1           0        2.129330    2.090570   -1.373790
     21          1           0        3.998160    0.416840   -1.701270
     22          1           0        3.959800    1.105070   -0.039170
     23          1           0        2.897470   -1.651440   -0.925090
     24          1           0        4.325410   -1.331410    0.114180
     25          1           0        2.314940   -2.025950    1.462110
     26          1           0        2.860800   -0.371540    1.893480
     27          1           0       -1.364780   -1.723980   -1.282990
 ---------------------------------------------------------------------
                    Distance matrix (angstroms):
                    1          2          3          4          5
     1  O    0.000000
     2  N    1.229620   0.000000
     3  O    2.172023   1.231432   0.000000
     4  C    2.359632   1.523244   2.371792   0.000000
     5  C    3.588109   2.492391   2.756200   1.400619   0.000000
     6  N    4.793658   3.790802   4.116499   2.446935   1.370805
     7  C    5.390900   4.623928   5.230145   3.122766   2.566970
     8  H    6.278122   5.460537   5.953402   4.023310   3.255755
     9  C    6.210513   5.546911   6.220159   4.040042   3.670330
    10  C    7.286163   6.753795   7.527926   5.243792   4.984442
    11  C    6.911818   6.588759   7.519702   5.166789   5.219922
    12  C    6.116882   5.763319   6.654130   4.419082   4.453983
    13  C    4.759506   4.274191   5.125222   2.888461   2.937961
    14  H    4.496735   3.989559   4.748260   2.822703   2.831624
    15  N    3.945363   3.745594   4.813755   2.503233   3.176118
    16  C    2.784609   2.569664   3.679476   1.491227   2.578751
    17  H    3.868488   2.655279   2.404139   2.162940   1.102762
    18  H    5.605434   4.536910   4.680320   3.301391   2.109019
    19  H    5.709394   5.178357   5.950791   3.751972   3.710364
    20  H    6.855542   6.068483   6.573802   4.610666   3.991092
    21  H    7.974367   7.495552   8.290331   6.010475   5.819845
    22  H    7.972273   7.341508   8.014879   5.822802   5.344155
    23  H    6.530376   6.362842   7.391451   5.027092   5.342983
    24  H    7.908907   7.632540   8.573880   6.233562   6.271771
    25  H    6.122091   5.967987   6.945473   4.793134   5.071347
    26  H    6.834031   6.359466   7.119698   5.017832   4.785764
    27  H    2.519799   2.718755   3.892366   2.181073   3.447065
                    6          7          8          9         10
     6  N    0.000000
     7  C    1.494660   0.000000
     8  H    2.090997   1.121299   0.000000
     9  C    2.568013   1.548237   2.146826   0.000000
    10  C    3.881792   2.522460   2.647268   1.540177   0.000000
    11  C    4.390975   2.931518   3.139177   2.537808   1.536743
    12  C    3.816215   2.464764   2.560748   2.948499   2.546149
    13  C    2.520246   1.537695   2.136260   2.549438   3.011710
    14  H    2.740756   2.208909   2.520123   3.530954   4.014710
    15  N    3.154221   2.505133   3.420752   2.978485   3.560206
    16  C    3.049289   3.029003   4.051179   3.595021   4.542189
    17  H    2.112727   3.481560   3.964793   4.617982   5.948554
    18  H    1.022984   2.070325   2.388228   2.726491   4.081089
    19  H    2.922258   2.194191   3.081995   1.110936   2.184480
    20  H    2.764841   2.194928   2.527317   1.110748   2.173531
    21  H    4.730512   3.493843   3.692081   2.185966   1.112014
    22  H    4.117544   2.795677   2.449197   2.176220   1.112977
    23  H    4.700969   3.385502   3.890980   2.836549   2.171201
    24  H    5.406342   3.919067   3.911553   3.500135   2.181916
    25  H    4.667525   3.443821   3.594126   3.958575   3.501236
    26  H    4.010092   2.701294   2.308332   3.346644   2.828149
    27  H    4.031626   4.051243   5.105775   4.378614   5.277157
                   11         12         13         14         15
    11  C    0.000000
    12  C    1.544365   0.000000
    13  C    2.568710   1.553806   0.000000
    14  H    3.506745   2.163537   1.115476   0.000000
    15  N    2.973208   2.450605   1.467451   2.132656   0.000000
    16  C    4.201637   3.663478   2.365967   2.687318   1.297150
    17  H    6.248733   5.405753   3.923822   3.624360   4.238968
    18  H    4.896459   4.520442   3.397681   3.686149   4.050687
    19  H    2.838248   3.366710   2.796784   3.831084   2.635349
    20  H    3.492115   3.946692   3.512018   4.378595   3.992915
    21  H    2.180711   3.506742   3.998990   5.051333   4.283635
    22  H    2.168300   2.839463   3.453883   4.276372   4.334687
    23  H    1.113531   2.180042   2.839497   3.834077   2.653602
    24  H    1.111803   2.186870   3.528004   4.333885   3.980635
    25  H    2.179131   1.112125   2.187497   2.485320   2.686255
    26  H    2.180218   1.110350   2.189107   2.469985   3.411325
    27  H    4.871273   4.510443   3.376177   3.710334   2.063397
                   16         17         18         19         20
    16  C    0.000000
    17  H    3.553513   0.000000
    18  H    3.943773   2.508951   0.000000
    19  H    3.081369   4.724737   3.191812   0.000000
    20  H    4.416844   4.777695   2.494150   1.797339   0.000000
    21  H    5.207880   6.793157   4.817528   2.495737   2.530048
    22  H    5.313893   6.198002   4.186264   3.097625   2.470433
    23  H    3.829631   6.428207   5.272027   2.685085   3.846298
    24  H    5.245290   7.275517   5.865194   3.860883   4.329754
    25  H    3.898363   6.006683   5.469510   4.196484   5.002251
    26  H    4.518883   5.609012   4.594382   4.037894   4.155970
    27  H    1.100607   4.317631   4.851829   3.648688   5.173765
                   21         22         23         24         25
    21  H    0.000000
    22  H    1.799363   0.000000
    23  H    2.468148   3.084112   0.000000
    24  H    2.541521   2.468526   1.794858   0.000000
    25  H    4.336753   3.842225   2.485623   2.518192   0.000000
    26  H    3.851929   2.668954   3.095775   2.496466   1.794747
    27  H    5.789576   6.156441   4.277865   5.872347   4.600772
                   26         27
    26  H    0.000000
    27  H    5.456609   0.000000
 Symmetry turned off by external request.
 Stoichiometry    C9H13N3O2
 Framework group  C1[X(C9H13N3O2)]
 Deg. of freedom    75
 Full point group                 C1      NOp   1
 Rotational constants (GHZ):           1.6913894           0.4015227           0.3571390
 Standard basis: 6-31G(d) (6D, 7F)
   236 basis functions,   444 primitive gaussians,   236 cartesian basis functions
    52 alpha electrons       52 beta electrons
       nuclear repulsion energy       918.7796915979 Hartrees.
 NAtoms=   27 NActive=   27 NUniq=   27 SFac= 1.00D+00 NAtFMM=   60 NAOKFM=F Big=F
 Integral buffers will be    131072 words long.
 Raffenetti 1 integral format.
 Two-electron integral symmetry is turned off.
 One-electron integrals computed using PRISM.
 NBasis=   236 RedAO= T EigKep=  1.34D-03  NBF=   236
 NBsUse=   236 1.00D-06 EigRej= -1.00D+00 NBFU=   236
 ExpMin= 1.61D-01 ExpMax= 5.48D+03 ExpMxC= 8.25D+02 IAcc=3 IRadAn=         5 AccDes= 0.00D+00
 Harris functional with IExCor=  205 and IRadAn=       5 diagonalized for initial guess.
 HarFok:  IExCor=  205 AccDes= 0.00D+00 IRadAn=         5 IDoV= 1 UseB2=F ITyADJ=14
 ICtDFT=  3500011 ScaDFX=  1.000000  1.000000  1.000000  1.000000
 FoFCou: FMM=F IPFlag=           0 FMFlag=      100000 FMFlg1=           0
         NFxFlg=           0 DoJE=T BraDBF=F KetDBF=T FulRan=T
         wScrn=  0.000000 ICntrl=       500 IOpCl=  0 I1Cent=   200000004 NGrid=           0
         NMat0=    1 NMatS0=      1 NMatT0=    0 NMatD0=    1 NMtDS0=    0 NMtDT0=    0
 Symmetry not used in FoFCou.
 Keep R1 ints in memory in canonical form, NReq=397720213.
 Requested convergence on RMS density matrix=1.00D-08 within 128 cycles.
 Requested convergence on MAX density matrix=1.00D-06.
 Requested convergence on             energy=1.00D-06.
 No special actions if energy rises.
 SCF Done:  E(RHF) =  -661.271257675     A.U. after   16 cycles
            NFock= 16  Conv=0.92D-08     -V/T= 2.0037
 ExpMin= 1.61D-01 ExpMax= 5.48D+03 ExpMxC= 8.25D+02 IAcc=3 IRadAn=         5 AccDes= 0.00D+00
 HarFok:  IExCor=  205 AccDes= 0.00D+00 IRadAn=         5 IDoV=-2 UseB2=F ITyADJ=14
 ICtDFT= 12500011 ScaDFX=  1.000000  1.000000  1.000000  1.000000
 Range of M.O.s used for correlation:    15   236
 NBasis=   236 NAE=    52 NBE=    52 NFC=    14 NFV=     0
 NROrb=    222 NOA=    38 NOB=    38 NVA=   184 NVB=   184
 Fully direct method using O(ONN) memory.
 JobTyp=1 Pass  1:  I=  15 to  52 NPSUse=  4 ParTrn=T ParDer=T DoDerP=T.
 Spin components of T(2) and E(2):
     alpha-alpha T2 =       0.9197795593D-01 E2=     -0.2717730552D+00
     alpha-beta  T2 =       0.5009110767D+00 E2=     -0.1494877821D+01
     beta-beta   T2 =       0.9197795593D-01 E2=     -0.2717730552D+00
 ANorm=    0.1298024263D+01
 E2 =    -0.2038423931D+01 EUMP2 =    -0.66330968160563D+03
          IDoAtm=111111111111111111111111111
          Differentiating once with respect to electric field.
                with respect to dipole field.
          Differentiating once with respect to nuclear coordinates.
 Keep R1 ints in memory in canonical form, NReq=397723379.
          There are     1 degrees of freedom in the 1st order CPHF.  IDoFFX=0 NUNeed=     1.
 LinEq1:  Iter=  0 NonCon=     1 RMS=4.58D-03 Max=1.03D-01 NDo=     1
 AX will form     1 AO Fock derivatives at one time.
 LinEq1:  Iter=  1 NonCon=     1 RMS=1.55D-03 Max=3.22D-02 NDo=     1
 LinEq1:  Iter=  2 NonCon=     1 RMS=6.37D-04 Max=1.64D-02 NDo=     1
 LinEq1:  Iter=  3 NonCon=     1 RMS=2.97D-04 Max=9.15D-03 NDo=     1
 LinEq1:  Iter=  4 NonCon=     1 RMS=9.25D-05 Max=2.18D-03 NDo=     1
 LinEq1:  Iter=  5 NonCon=     1 RMS=3.96D-05 Max=2.08D-03 NDo=     1
 LinEq1:  Iter=  6 NonCon=     1 RMS=1.63D-05 Max=6.08D-04 NDo=     1
 LinEq1:  Iter=  7 NonCon=     1 RMS=6.41D-06 Max=1.13D-04 NDo=     1
 LinEq1:  Iter=  8 NonCon=     1 RMS=2.59D-06 Max=6.49D-05 NDo=     1
 LinEq1:  Iter=  9 NonCon=     1 RMS=9.92D-07 Max=2.72D-05 NDo=     1
 LinEq1:  Iter= 10 NonCon=     1 RMS=4.78D-07 Max=1.46D-05 NDo=     1
 LinEq1:  Iter= 11 NonCon=     1 RMS=1.67D-07 Max=5.88D-06 NDo=     1
 LinEq1:  Iter= 12 NonCon=     1 RMS=5.82D-08 Max=9.62D-07 NDo=     1
 LinEq1:  Iter= 13 NonCon=     1 RMS=1.85D-08 Max=3.88D-07 NDo=     1
 LinEq1:  Iter= 14 NonCon=     1 RMS=6.40D-09 Max=1.63D-07 NDo=     1
 LinEq1:  Iter= 15 NonCon=     1 RMS=2.54D-09 Max=5.63D-08 NDo=     1
 LinEq1:  Iter= 16 NonCon=     1 RMS=9.56D-10 Max=1.65D-08 NDo=     1
 LinEq1:  Iter= 17 NonCon=     1 RMS=2.93D-10 Max=4.66D-09 NDo=     1
 LinEq1:  Iter= 18 NonCon=     1 RMS=9.67D-11 Max=1.33D-09 NDo=     1
 LinEq1:  Iter= 19 NonCon=     0 RMS=3.07D-11 Max=7.09D-10 NDo=     1
 Linear equations converged to 1.000D-10 1.000D-09 after    19 iterations.
 End of Minotr F.D. properties file   721 does not exist.
 End of Minotr F.D. properties file   722 does not exist.
 End of Minotr F.D. properties file   788 does not exist.

 **********************************************************************

            Population analysis using the SCF Density.

 **********************************************************************

 Alpha  occ. eigenvalues --  -20.60048 -20.59570 -15.85421 -15.62031 -15.57613
 Alpha  occ. eigenvalues --  -11.35557 -11.30742 -11.30388 -11.29884 -11.27805
 Alpha  occ. eigenvalues --  -11.24508 -11.23798 -11.23434 -11.22850  -1.58676
 Alpha  occ. eigenvalues --   -1.38193  -1.28177  -1.22787  -1.13171  -1.08319
 Alpha  occ. eigenvalues --   -1.01780  -1.00498  -0.93393  -0.88974  -0.84841
 Alpha  occ. eigenvalues --   -0.81523  -0.78181  -0.76785  -0.74079  -0.70840
 Alpha  occ. eigenvalues --   -0.70506  -0.69910  -0.67507  -0.64415  -0.63456
 Alpha  occ. eigenvalues --   -0.61521  -0.60825  -0.57426  -0.56225  -0.54914
 Alpha  occ. eigenvalues --   -0.53037  -0.50700  -0.48982  -0.48548  -0.47713
 Alpha  occ. eigenvalues --   -0.47091  -0.46014  -0.45656  -0.44104  -0.42157
 Alpha  occ. eigenvalues --   -0.40614  -0.33921
 Alpha virt. eigenvalues --    0.06558   0.11509   0.19089   0.21467   0.23026
 Alpha virt. eigenvalues --    0.24137   0.26098   0.27379   0.28571   0.28925
 Alpha virt. eigenvalues --    0.29806   0.31025   0.31906   0.32185   0.33364
 Alpha virt. eigenvalues --    0.33685   0.34219   0.35801   0.37530   0.38533
 Alpha virt. eigenvalues --    0.40816   0.42351   0.44736   0.45377   0.45846
 Alpha virt. eigenvalues --    0.46063   0.49291   0.52901   0.57598   0.58809
 Alpha virt. eigenvalues --    0.63454   0.69117   0.70034   0.72086   0.73925
 Alpha virt. eigenvalues --    0.75120   0.75655   0.75883   0.77394   0.79830
 Alpha virt. eigenvalues --    0.80310   0.83499   0.85001   0.85694   0.88167
 Alpha virt. eigenvalues --    0.88582   0.90598   0.91046   0.92110   0.93831
 Alpha virt. eigenvalues --    0.95861   0.97155   0.98316   1.00088   1.01827
 Alpha virt. eigenvalues --    1.02657   1.05142   1.05292   1.06646   1.07946
 Alpha virt. eigenvalues --    1.09332   1.10451   1.10829   1.11543   1.13249
 Alpha virt. eigenvalues --    1.13697   1.14446   1.14748   1.16151   1.17283
 Alpha virt. eigenvalues --    1.17849   1.19576   1.20548   1.21883   1.23214
 Alpha virt. eigenvalues --    1.23229   1.24898   1.26008   1.27049   1.27493
 Alpha virt. eigenvalues --    1.28767   1.31619   1.33085   1.35401   1.40422
 Alpha virt. eigenvalues --    1.42705   1.44036   1.46753   1.48137   1.51175
 Alpha virt. eigenvalues --    1.52575   1.55136   1.60732   1.62213   1.66078
 Alpha virt. eigenvalues --    1.69401   1.69957   1.71433   1.74171   1.75963
 Alpha virt. eigenvalues --    1.78800   1.81600   1.84229   1.87137   1.92417
 Alpha virt. eigenvalues --    1.93326   1.96416   1.97755   1.98978   1.99706
 Alpha virt. eigenvalues --    2.03307   2.04618   2.05859   2.08774   2.11948
 Alpha virt. eigenvalues --    2.12276   2.15862   2.17617   2.17875   2.19020
 Alpha virt. eigenvalues --    2.21452   2.22446   2.24560   2.24739   2.27133
 Alpha virt. eigenvalues --    2.29529   2.32571   2.34066   2.36130   2.37140
 Alpha virt. eigenvalues --    2.38484   2.39384   2.40677   2.43023   2.45686
 Alpha virt. eigenvalues --    2.48164   2.50112   2.53137   2.56177   2.57528
 Alpha virt. eigenvalues --    2.61393   2.62801   2.67359   2.67702   2.68892
 Alpha virt. eigenvalues --    2.70422   2.70901   2.75568   2.78306   2.80647
 Alpha virt. eigenvalues --    2.82516   2.87002   2.90568   2.91866   2.95638
 Alpha virt. eigenvalues --    2.98233   2.98451   3.02484   3.02699   3.05944
 Alpha virt. eigenvalues --    3.06599   3.11499   3.20501   3.21989   3.26730
 Alpha virt. eigenvalues --    3.27770   3.32638   3.36197   3.43126   3.57499
 Alpha virt. eigenvalues --    4.08696   4.22443   4.31846   4.36107   4.42383
 Alpha virt. eigenvalues --    4.52753   4.59251   4.60294   4.70803   4.77300
 Alpha virt. eigenvalues --    4.93996   4.99186   5.02080   5.10691
          Condensed to atoms (all electrons):
               1          2          3          4          5          6
     1  O    8.298590   0.311995  -0.088616  -0.079061   0.003167  -0.000020
     2  N    0.311995   5.695538   0.307276   0.257519  -0.042078   0.001171
     3  O   -0.088616   0.307276   8.326937  -0.084773   0.007044   0.000397
     4  C   -0.079061   0.257519  -0.084773   5.227807   0.574388  -0.058908
     5  C    0.003167  -0.042078   0.007044   0.574388   4.671396   0.307505
     6  N   -0.000020   0.001171   0.000397  -0.058908   0.307505   7.219267
     7  C    0.000003  -0.000090  -0.000000   0.001844  -0.032086   0.198566
     8  H   -0.000000   0.000003  -0.000000  -0.000008   0.000885  -0.054473
     9  C   -0.000000  -0.000003   0.000000   0.000335   0.002658  -0.052832
    10  C   -0.000000   0.000000  -0.000000  -0.000011  -0.000087   0.003223
    11  C    0.000000  -0.000000  -0.000000  -0.000023   0.000014  -0.000155
    12  C   -0.000000   0.000002  -0.000000   0.000085  -0.000042   0.003605
    13  C   -0.000023  -0.000062  -0.000003  -0.013834   0.000671  -0.042565
    14  H   -0.000007  -0.000024  -0.000001   0.003227   0.006748  -0.005754
    15  N    0.000023   0.001592  -0.000014  -0.059423  -0.005222   0.002202
    16  C    0.004616  -0.030129   0.001849   0.323413  -0.039711  -0.002882
    17  H    0.000080  -0.002762   0.009610  -0.032693   0.381580  -0.034346
    18  H    0.000000  -0.000039   0.000010   0.000542  -0.021976   0.326661
    19  H    0.000000   0.000001   0.000000  -0.000392   0.000118   0.001236
    20  H    0.000000  -0.000000   0.000000  -0.000020   0.000043  -0.002475
    21  H   -0.000000  -0.000000   0.000000  -0.000000   0.000001  -0.000054
    22  H   -0.000000   0.000000  -0.000000   0.000000  -0.000003  -0.000099
    23  H    0.000000  -0.000000   0.000000   0.000022  -0.000000  -0.000024
    24  H   -0.000000   0.000000   0.000000   0.000000  -0.000000   0.000004
    25  H    0.000000  -0.000000   0.000000   0.000017  -0.000001  -0.000071
    26  H   -0.000000  -0.000000   0.000000   0.000009  -0.000004  -0.000064
    27  H    0.004362   0.000039  -0.000017  -0.062799   0.002192   0.000109
               7          8          9         10         11         12
     1  O    0.000003  -0.000000  -0.000000  -0.000000   0.000000  -0.000000
     2  N   -0.000090   0.000003  -0.000003   0.000000  -0.000000   0.000002
     3  O   -0.000000  -0.000000   0.000000  -0.000000  -0.000000  -0.000000
     4  C    0.001844  -0.000008   0.000335  -0.000011  -0.000023   0.000085
     5  C   -0.032086   0.000885   0.002658  -0.000087   0.000014  -0.000042
     6  N    0.198566  -0.054473  -0.052832   0.003223  -0.000155   0.003605
     7  C    4.975824   0.419833   0.338632  -0.048958  -0.007474  -0.063220
     8  H    0.419833   0.557808  -0.062986   0.001873  -0.000424  -0.002585
     9  C    0.338632  -0.062986   5.182990   0.317086  -0.052945  -0.006829
    10  C   -0.048958   0.001873   0.317086   5.126645   0.332771  -0.059502
    11  C   -0.007474  -0.000424  -0.052945   0.332771   5.122122   0.331271
    12  C   -0.063220  -0.002585  -0.006829  -0.059502   0.331271   5.134918
    13  C    0.340923  -0.044110  -0.045236  -0.002615  -0.047657   0.365519
    14  H   -0.039216  -0.000812   0.003804  -0.000391   0.003915  -0.040751
    15  N   -0.057223   0.004207  -0.012918   0.001535  -0.007464  -0.072590
    16  C   -0.003908   0.000103  -0.001313   0.000016  -0.000017   0.003104
    17  H    0.001602   0.000004  -0.000063   0.000001   0.000000   0.000001
    18  H   -0.026631  -0.001597   0.000662  -0.000125   0.000011  -0.000123
    19  H   -0.035022   0.004278   0.384601  -0.032456  -0.002411   0.000702
    20  H   -0.041031  -0.001992   0.397605  -0.037597   0.004166  -0.000346
    21  H    0.004012  -0.000082  -0.035900   0.400344  -0.035958   0.004192
    22  H   -0.004015   0.003523  -0.045558   0.395964  -0.045542  -0.001315
    23  H    0.000377   0.000035  -0.002025  -0.040187   0.396832  -0.037047
    24  H   -0.000140  -0.000092   0.004386  -0.038442   0.400338  -0.037742
    25  H    0.004907   0.000002  -0.000364   0.004101  -0.034206   0.395866
    26  H   -0.004455   0.001759   0.000968  -0.002354  -0.042246   0.394901
    27  H   -0.000398   0.000010  -0.000060   0.000005   0.000003  -0.000021
              13         14         15         16         17         18
     1  O   -0.000023  -0.000007   0.000023   0.004616   0.000080   0.000000
     2  N   -0.000062  -0.000024   0.001592  -0.030129  -0.002762  -0.000039
     3  O   -0.000003  -0.000001  -0.000014   0.001849   0.009610   0.000010
     4  C   -0.013834   0.003227  -0.059423   0.323413  -0.032693   0.000542
     5  C    0.000671   0.006748  -0.005222  -0.039711   0.381580  -0.021976
     6  N   -0.042565  -0.005754   0.002202  -0.002882  -0.034346   0.326661
     7  C    0.340923  -0.039216  -0.057223  -0.003908   0.001602  -0.026631
     8  H   -0.044110  -0.000812   0.004207   0.000103   0.000004  -0.001597
     9  C   -0.045236   0.003804  -0.012918  -0.001313  -0.000063   0.000662
    10  C   -0.002615  -0.000391   0.001535   0.000016   0.000001  -0.000125
    11  C   -0.047657   0.003915  -0.007464  -0.000017   0.000000   0.000011
    12  C    0.365519  -0.040751  -0.072590   0.003104   0.000001  -0.000123
    13  C    5.043134   0.398663   0.236183  -0.070954  -0.000040   0.003443
    14  H    0.398663   0.521840  -0.035647  -0.005019   0.000126   0.000019
    15  N    0.236183  -0.035647   6.921830   0.579921  -0.000087  -0.000114
    16  C   -0.070954  -0.005019   0.579921   4.714915   0.001524  -0.000233
    17  H   -0.000040   0.000126  -0.000087   0.001524   0.392859  -0.001336
    18  H    0.003443   0.000019  -0.000114  -0.000233  -0.001336   0.319467
    19  H   -0.006662   0.000064   0.007068   0.002617   0.000007  -0.000101
    20  H    0.003798  -0.000046   0.000067  -0.000029   0.000001   0.003214
    21  H   -0.000345   0.000009  -0.000020   0.000002  -0.000000  -0.000000
    22  H    0.000337  -0.000046  -0.000001  -0.000001  -0.000000   0.000002
    23  H   -0.005561   0.000004   0.006400   0.000017   0.000000   0.000000
    24  H    0.004101  -0.000057   0.000045   0.000006   0.000000  -0.000000
    25  H   -0.034964  -0.002628   0.000382  -0.000064  -0.000000   0.000002
    26  H   -0.044462  -0.000994   0.004119  -0.000083   0.000000  -0.000001
    27  H    0.004884  -0.000192  -0.038762   0.400430  -0.000056   0.000004
              19         20         21         22         23         24
     1  O    0.000000   0.000000  -0.000000  -0.000000   0.000000  -0.000000
     2  N    0.000001  -0.000000  -0.000000   0.000000  -0.000000   0.000000
     3  O    0.000000   0.000000   0.000000  -0.000000   0.000000   0.000000
     4  C   -0.000392  -0.000020  -0.000000   0.000000   0.000022   0.000000
     5  C    0.000118   0.000043   0.000001  -0.000003  -0.000000  -0.000000
     6  N    0.001236  -0.002475  -0.000054  -0.000099  -0.000024   0.000004
     7  C   -0.035022  -0.041031   0.004012  -0.004015   0.000377  -0.000140
     8  H    0.004278  -0.001992  -0.000082   0.003523   0.000035  -0.000092
     9  C    0.384601   0.397605  -0.035900  -0.045558  -0.002025   0.004386
    10  C   -0.032456  -0.037597   0.400344   0.395964  -0.040187  -0.038442
    11  C   -0.002411   0.004166  -0.035958  -0.045542   0.396832   0.400338
    12  C    0.000702  -0.000346   0.004192  -0.001315  -0.037047  -0.037742
    13  C   -0.006662   0.003798  -0.000345   0.000337  -0.005561   0.004101
    14  H    0.000064  -0.000046   0.000009  -0.000046   0.000004  -0.000057
    15  N    0.007068   0.000067  -0.000020  -0.000001   0.006400   0.000045
    16  C    0.002617  -0.000029   0.000002  -0.000001   0.000017   0.000006
    17  H    0.000007   0.000001  -0.000000  -0.000000   0.000000   0.000000
    18  H   -0.000101   0.003214  -0.000000   0.000002   0.000000  -0.000000
    19  H    0.508875  -0.024223  -0.002596   0.003770   0.001662  -0.000068
    20  H   -0.024223   0.550463  -0.002549  -0.002997  -0.000051  -0.000090
    21  H   -0.002596  -0.002549   0.526661  -0.024748  -0.002833  -0.002029
    22  H    0.003770  -0.002997  -0.024748   0.567890   0.004073  -0.003585
    23  H    0.001662  -0.000051  -0.002833   0.004073   0.511630  -0.025039
    24  H   -0.000068  -0.000090  -0.002029  -0.003585  -0.025039   0.540793
    25  H   -0.000027   0.000011  -0.000086  -0.000082  -0.002144  -0.002364
    26  H    0.000025  -0.000036  -0.000075   0.002475   0.003841  -0.002806
    27  H    0.000069  -0.000000  -0.000000   0.000000  -0.000018  -0.000000
              25         26         27
     1  O    0.000000  -0.000000   0.004362
     2  N   -0.000000  -0.000000   0.000039
     3  O    0.000000   0.000000  -0.000017
     4  C    0.000017   0.000009  -0.062799
     5  C   -0.000001  -0.000004   0.002192
     6  N   -0.000071  -0.000064   0.000109
     7  C    0.004907  -0.004455  -0.000398
     8  H    0.000002   0.001759   0.000010
     9  C   -0.000364   0.000968  -0.000060
    10  C    0.004101  -0.002354   0.000005
    11  C   -0.034206  -0.042246   0.000003
    12  C    0.395866   0.394901  -0.000021
    13  C   -0.034964  -0.044462   0.004884
    14  H   -0.002628  -0.000994  -0.000192
    15  N    0.000382   0.004119  -0.038762
    16  C   -0.000064  -0.000083   0.400430
    17  H   -0.000000   0.000000  -0.000056
    18  H    0.000002  -0.000001   0.000004
    19  H   -0.000027   0.000025   0.000069
    20  H    0.000011  -0.000036  -0.000000
    21  H   -0.000086  -0.000075  -0.000000
    22  H   -0.000082   0.002475   0.000000
    23  H   -0.002144   0.003841  -0.000018
    24  H   -0.002364  -0.002806  -0.000000
    25  H    0.512439  -0.023143  -0.000007
    26  H   -0.023143   0.559210   0.000001
    27  H   -0.000007   0.000001   0.453639
 Mulliken charges:
               1
     1  O   -0.455111
     2  N    0.500050
     3  O   -0.479699
     4  C    0.002737
     5  C    0.182799
     6  N   -0.809226
     7  C    0.077344
     8  H    0.174840
     9  C   -0.314696
    10  C   -0.320839
    11  C   -0.314923
    12  C   -0.312053
    13  C   -0.042566
    14  H    0.193166
    15  N   -0.476090
    16  C    0.121811
    17  H    0.283990
    18  H    0.398237
    19  H    0.188863
    20  H    0.154115
    21  H    0.172056
    22  H    0.149958
    23  H    0.190036
    24  H    0.162783
    25  H    0.182422
    26  H    0.153415
    27  H    0.236582
 Sum of Mulliken charges =  -0.00000
 Mulliken charges with hydrogens summed into heavy atoms:
               1
     1  O   -0.455111
     2  N    0.500050
     3  O   -0.479699
     4  C    0.002737
     5  C    0.466789
     6  N   -0.410989
     7  C    0.252184
     9  C    0.028283
    10  C    0.001175
    11  C    0.037896
    12  C    0.023783
    13  C    0.150600
    15  N   -0.476090
    16  C    0.358393
 Electronic spatial extent (au):  <R**2>=           3112.0060
 Charge=             -0.0000 electrons
 Dipole moment (field-independent basis, Debye):
    X=              5.1412    Y=              4.2778    Z=              0.2963  Tot=              6.6947
 Quadrupole moment (field-independent basis, Debye-Ang):
   XX=           -105.0317   YY=            -81.1681   ZZ=            -81.7051
   XY=             -2.3063   XZ=              1.6945   YZ=             -0.3618
 Traceless Quadrupole moment (field-independent basis, Debye-Ang):
   XX=            -15.7301   YY=              8.1336   ZZ=              7.5966
   XY=             -2.3063   XZ=              1.6945   YZ=             -0.3618
 Octapole moment (field-independent basis, Debye-Ang**2):
  XXX=             97.5574  YYY=             35.9287  ZZZ=             -6.6626  XYY=             -0.9640
  XXY=             12.7723  XXZ=             -6.7919  XZZ=             -9.4935  YZZ=             -2.1859
  YYZ=             -1.5832  XYZ=             -2.7460
 Hexadecapole moment (field-independent basis, Debye-Ang**3):
 XXXX=          -3530.5582 YYYY=           -620.0146 ZZZZ=           -303.3623 XXXY=            -56.4655
 XXXZ=             82.2098 YYYX=            -33.7932 YYYZ=              3.2307 ZZZX=             51.7177
 ZZZY=             11.4542 XXYY=           -654.9893 XXZZ=           -542.6178 YYZZ=           -161.7954
 XXYZ=              2.0477 YYXZ=             18.5426 ZZXY=             -1.3046
 N-N= 9.187796915979D+02 E-N=-3.383578811181D+03  KE= 6.588590308445D+02
 Calling FoFJK, ICntrl=  10002127 FMM=F ISym2X=0 I1Cent= 0 IOpClX= 0 NMat=1 NMatS=1 NMatT=0.
 -------------------------------------------------------------------
 Center     Atomic                   Forces (Hartrees/Bohr)
 Number     Number              X              Y              Z
 -------------------------------------------------------------------
      1        8           0.001974546   -0.019844964   -0.005537710
      2        7           0.037776169    0.013655764    0.000508590
      3        8          -0.005383892    0.014606923    0.004765427
      4        6          -0.001059148    0.012333762    0.013337888
      5        6          -0.004387815   -0.018462713   -0.018965649
      6        7           0.021063426   -0.012902132   -0.000248903
      7        6          -0.003879518    0.006950286    0.004429270
      8        1          -0.007651741   -0.002941972   -0.007655465
      9        6          -0.004698280   -0.001007461   -0.002203376
     10        6           0.002986186   -0.000562084    0.001254323
     11        6          -0.001719442   -0.004676804   -0.002694386
     12        6           0.001479928   -0.008582454   -0.002282719
     13        6           0.013194271   -0.003700566    0.005572339
     14        1          -0.000067003    0.005278790   -0.010199295
     15        7          -0.005199521    0.008840977   -0.005005434
     16        6          -0.020008728    0.002823464    0.009475316
     17        1           0.004417575   -0.003910696   -0.011653389
     18        1          -0.015773244   -0.001258453    0.011631781
     19        1           0.002930535    0.006180841    0.007658553
     20        1          -0.003503715   -0.007150519    0.002592177
     21        1          -0.004791359    0.002450751    0.009395562
     22        1          -0.003633346   -0.004103485   -0.007608766
     23        1           0.003836172    0.006190567    0.009285684
     24        1          -0.009299696    0.002640529   -0.002512915
     25        1          -0.000494771    0.010460972   -0.002385283
     26        1          -0.004787348   -0.004922655   -0.004589510
     27        1           0.006679758    0.001613333    0.003635893
 -------------------------------------------------------------------
 Cartesian Forces:  Max     0.037776169 RMS     0.009113982

 GradGradGradGradGradGradGradGradGradGradGradGradGradGradGradGradGradGrad
 Berny optimization.
 FormGI is forming the generalized inverse of G from B-inverse, IUseBI=4.
 Internal  Forces:  Max     0.036489796 RMS     0.006735030
 Search for a local minimum.
 Step number   1 out of a maximum of   20
 All quantities printed in internal units (Hartrees-Bohrs-Radians)
 Mixed Optimization -- RFO/linear search
 Second derivative matrix not updated -- first step.
 ITU=  0
     Eigenvalues ---    0.00232   0.00762   0.01026   0.01153   0.01197
     Eigenvalues ---    0.01500   0.01533   0.01872   0.01986   0.02081
     Eigenvalues ---    0.02650   0.03597   0.04486   0.04672   0.04834
     Eigenvalues ---    0.05061   0.05132   0.05299   0.05878   0.06244
     Eigenvalues ---    0.07212   0.07714   0.07740   0.07898   0.07988
     Eigenvalues ---    0.08056   0.08122   0.10461   0.11756   0.12268
     Eigenvalues ---    0.13359   0.15497   0.15937   0.15989   0.16037
     Eigenvalues ---    0.19981   0.21242   0.22780   0.25000   0.25000
     Eigenvalues ---    0.25000   0.25328   0.26065   0.26648   0.27987
     Eigenvalues ---    0.28103   0.28412   0.30056   0.30949   0.31432
     Eigenvalues ---    0.32027   0.32229   0.32287   0.32376   0.32388
     Eigenvalues ---    0.32410   0.32501   0.32521   0.32563   0.32874
     Eigenvalues ---    0.33378   0.33615   0.34821   0.43865   0.43984
     Eigenvalues ---    0.48631   0.65004   0.90492   0.912451000.00000
     Eigenvalues --- 1000.000001000.000001000.000001000.000001000.00000
     Eigenvalues --- 1000.000001000.000001000.000001000.000001000.00000
     Eigenvalues --- 1000.000001000.000001000.000001000.000001000.00000
     Eigenvalues --- 1000.000001000.000001000.000001000.000001000.00000
     Eigenvalues --- 1000.000001000.000001000.000001000.000001000.00000
     Eigenvalues --- 1000.000001000.000001000.000001000.000001000.00000
     Eigenvalues --- 1000.000001000.000001000.000001000.000001000.00000
     Eigenvalues --- 1000.000001000.000001000.000001000.000001000.00000
     Eigenvalues --- 1000.000001000.000001000.000001000.000001000.00000
     Eigenvalues --- 1000.000001000.000001000.000001000.000001000.00000
     Eigenvalues --- 1000.000001000.000001000.000001000.000001000.00000
     Eigenvalues --- 1000.000001000.000001000.000001000.000001000.00000
     Eigenvalues --- 1000.000001000.000001000.000001000.000001000.00000
     Eigenvalues --- 1000.000001000.000001000.000001000.000001000.00000
     Eigenvalues --- 1000.000001000.000001000.000001000.000001000.00000
     Eigenvalues --- 1000.000001000.000001000.000001000.000001000.00000
     Eigenvalues --- 1000.000001000.000001000.000001000.000001000.00000
     Eigenvalues --- 1000.000001000.000001000.000001000.000001000.00000
     Eigenvalues --- 1000.00000
 RFO step:  Lambda=-2.36391443D-02 EMin= 2.32301991D-03
 Linear search not attempted -- first point.
 Iteration  1 RMS(Cart)=  0.05478959 RMS(Int)=  0.00126851
 Iteration  2 RMS(Cart)=  0.00134347 RMS(Int)=  0.00044923
 Iteration  3 RMS(Cart)=  0.00000133 RMS(Int)=  0.00044923
 Iteration  4 RMS(Cart)=  0.00000000 RMS(Int)=  0.00044923
 Iteration  1 RMS(Cart)=  0.00003978 RMS(Int)=  0.00003201
 Iteration  2 RMS(Cart)=  0.00002395 RMS(Int)=  0.00003528
 Iteration  3 RMS(Cart)=  0.00001550 RMS(Int)=  0.00003998
 Iteration  4 RMS(Cart)=  0.00001063 RMS(Int)=  0.00004382
 Iteration  5 RMS(Cart)=  0.00000765 RMS(Int)=  0.00004673
 Iteration  6 RMS(Cart)=  0.00000574 RMS(Int)=  0.00004890
 Iteration  7 RMS(Cart)=  0.00000446 RMS(Int)=  0.00005055
 Iteration  8 RMS(Cart)=  0.00000355 RMS(Int)=  0.00005182
 Iteration  9 RMS(Cart)=  0.00000289 RMS(Int)=  0.00005282
 Iteration 10 RMS(Cart)=  0.00000238 RMS(Int)=  0.00005361
 Iteration 11 RMS(Cart)=  0.00000198 RMS(Int)=  0.00005425
 Iteration 12 RMS(Cart)=  0.00000166 RMS(Int)=  0.00005478
 Iteration 13 RMS(Cart)=  0.00000139 RMS(Int)=  0.00005521
 Iteration 14 RMS(Cart)=  0.00000117 RMS(Int)=  0.00005556
 Iteration 15 RMS(Cart)=  0.00000099 RMS(Int)=  0.00005586
 Variable       Old X    -DE/DX   Delta X   Delta X   Delta X     New X
                                 (Linear)    (Quad)   (Total)
    R1        2.32365   0.01916   0.00000   0.02047   0.02047   2.34412
    R2        2.32707   0.01525   0.00000   0.01642   0.01642   2.34349
    R3        2.87851  -0.03528   0.00000  -0.10882  -0.10882   2.76969
    R4        2.64679  -0.03649   0.00000  -0.07962  -0.07929   2.56749
    R5        2.81801  -0.02068   0.00000  -0.05832  -0.05807   2.75994
    R6        2.59045  -0.01614   0.00000  -0.03360  -0.03349   2.55695
    R7        2.08392  -0.00996   0.00000  -0.02788  -0.02788   2.05604
    R8        2.82450  -0.01893   0.00000  -0.05576  -0.05572   2.76878
    R9        1.93316  -0.00776   0.00000  -0.01678  -0.01678   1.91638
   R10        2.11895  -0.01093   0.00000  -0.03235  -0.03235   2.08660
   R11        2.92574  -0.01355   0.00000  -0.04613  -0.04619   2.87955
   R12        2.90582  -0.00714   0.00000  -0.01830  -0.01816   2.88767
   R13        2.91051  -0.00489   0.00000  -0.01382  -0.01386   2.89665
   R14        2.09937  -0.01007   0.00000  -0.02889  -0.02889   2.07047
   R15        2.09901  -0.00792   0.00000  -0.02269  -0.02269   2.07632
   R16        2.90402  -0.00189   0.00000  -0.00711  -0.00720   2.89682
   R17        2.10140  -0.01058   0.00000  -0.03045  -0.03045   2.07095
   R18        2.10322  -0.00909   0.00000  -0.02623  -0.02623   2.07699
   R19        2.91843  -0.00902   0.00000  -0.02858  -0.02852   2.88990
   R20        2.10427  -0.01168   0.00000  -0.03376  -0.03376   2.07051
   R21        2.10100  -0.00996   0.00000  -0.02865  -0.02865   2.07235
   R22        2.93627  -0.01010   0.00000  -0.03633  -0.03629   2.89997
   R23        2.10161  -0.01059   0.00000  -0.03047  -0.03047   2.07114
   R24        2.09826  -0.00802   0.00000  -0.02297  -0.02297   2.07529
   R25        2.10794  -0.00882   0.00000  -0.02565  -0.02565   2.08229
   R26        2.77308  -0.00517   0.00000  -0.00882  -0.00935   2.76373
   R27        2.45126  -0.00965   0.00000  -0.01170  -0.01194   2.43932
   R28        2.07985  -0.00637   0.00000  -0.01769  -0.01769   2.06215
    A1        2.16255   0.01031   0.00000   0.03809   0.03763   2.20018
    A2        2.05254  -0.00771   0.00000  -0.02775  -0.02821   2.02433
    A3        2.06780  -0.00260   0.00000  -0.00907  -0.00954   2.05826
    A4        2.04015  -0.00397   0.00000  -0.01264  -0.01300   2.02715
    A5        2.04121  -0.00459   0.00000  -0.01495  -0.01531   2.02590
    A6        2.20182   0.00856   0.00000   0.02755   0.02817   2.22999
    A7        2.16401   0.00620   0.00000   0.01515   0.01500   2.17902
    A8        2.07800  -0.00395   0.00000  -0.01332  -0.01414   2.06387
    A9        2.04050  -0.00221   0.00000  -0.00393  -0.00464   2.03586
   A10        2.21966  -0.00383   0.00000  -0.01508  -0.01512   2.20454
   A11        2.14457  -0.01251   0.00000  -0.06658  -0.06777   2.07680
   A12        1.90592   0.01632   0.00000   0.09159   0.09096   1.99688
   A13        1.83674   0.00091   0.00000  -0.00617  -0.00605   1.83069
   A14        2.00896  -0.00316   0.00000  -0.01173  -0.01204   1.99693
   A15        1.96210   0.00083   0.00000  -0.00001  -0.00011   1.96199
   A16        1.84929   0.00253   0.00000   0.02231   0.02234   1.87163
   A17        1.84742  -0.00033   0.00000   0.00907   0.00868   1.85610
   A18        1.94447  -0.00031   0.00000  -0.00947  -0.00911   1.93536
   A19        1.91150  -0.00008   0.00000  -0.00525  -0.00542   1.90608
   A20        1.92194  -0.00067   0.00000  -0.01064  -0.01060   1.91134
   A21        1.92313  -0.00156   0.00000  -0.00879  -0.00874   1.91440
   A22        1.91837  -0.00028   0.00000   0.00701   0.00706   1.92544
   A23        1.90377   0.00308   0.00000   0.02368   0.02363   1.92740
   A24        1.88489  -0.00047   0.00000  -0.00560  -0.00587   1.87903
   A25        1.93965  -0.00094   0.00000   0.00531   0.00526   1.94492
   A26        1.91929  -0.00069   0.00000  -0.00609  -0.00613   1.91316
   A27        1.90516   0.00041   0.00000  -0.00284  -0.00290   1.90226
   A28        1.91625   0.00100   0.00000   0.00739   0.00743   1.92368
   A29        1.89856   0.00147   0.00000   0.01034   0.01033   1.90889
   A30        1.88390  -0.00124   0.00000  -0.01459  -0.01465   1.86924
   A31        1.94527   0.00000   0.00000   0.00480   0.00484   1.95011
   A32        1.90190   0.00095   0.00000   0.00508   0.00508   1.90698
   A33        1.91810   0.00039   0.00000   0.00585   0.00583   1.92393
   A34        1.90481  -0.00068   0.00000  -0.01207  -0.01209   1.89272
   A35        1.91575  -0.00046   0.00000  -0.00086  -0.00092   1.91483
   A36        1.87661  -0.00021   0.00000  -0.00319  -0.00324   1.87337
   A37        1.95500  -0.00265   0.00000  -0.02021  -0.02016   1.93485
   A38        1.90499   0.00268   0.00000   0.01714   0.01698   1.92197
   A39        1.90823   0.00113   0.00000   0.01467   0.01459   1.92282
   A40        1.90511  -0.00009   0.00000  -0.00135  -0.00122   1.90389
   A41        1.90904  -0.00014   0.00000  -0.00534  -0.00526   1.90378
   A42        1.87995  -0.00087   0.00000  -0.00436  -0.00455   1.87540
   A43        1.84550   0.00386   0.00000   0.02631   0.02633   1.87183
   A44        1.95018  -0.00438   0.00000  -0.03694  -0.03768   1.91250
   A45        1.97088   0.00126   0.00000   0.00633   0.00683   1.97771
   A46        1.87016   0.00278   0.00000   0.03788   0.03838   1.90853
   A47        1.89154  -0.00222   0.00000  -0.02628  -0.02643   1.86512
   A48        1.92990  -0.00093   0.00000  -0.00382  -0.00397   1.92593
   A49        2.05192  -0.00351   0.00000  -0.00835  -0.00913   2.04279
   A50        2.22683  -0.00321   0.00000  -0.01884  -0.01860   2.20824
   A51        1.98530   0.00645   0.00000   0.03502   0.03489   2.02019
   A52        2.06871  -0.00305   0.00000  -0.01564  -0.01578   2.05292
    D1       -2.99482  -0.00142   0.00000   0.01465   0.01420  -2.98062
    D2        0.14414  -0.00092   0.00000   0.00000  -0.00000   0.14414
    D3        0.17194  -0.00147   0.00000  -0.03982  -0.04004   0.13189
    D4       -2.97229  -0.00098   0.00000  -0.05448  -0.05424  -3.02654
    D5       -3.05435  -0.00415   0.00000  -0.01491  -0.01487  -3.06922
    D6        0.04655  -0.00307   0.00000  -0.07850  -0.07900  -0.03245
    D7        0.09015  -0.00467   0.00000   0.00135   0.00135   0.09150
    D8       -3.09214  -0.00360   0.00000  -0.06225  -0.06278   3.12827
    D9       -2.53374  -0.00163   0.00000   0.00605   0.00612  -2.52761
   D10        0.53248   0.00125   0.00000   0.01442   0.01448   0.54696
   D11        0.60494  -0.00110   0.00000  -0.01021  -0.01008   0.59486
   D12       -2.61203   0.00177   0.00000  -0.00184  -0.00172  -2.61375
   D13       -0.54838   0.00463   0.00000   0.00000   0.00000  -0.54838
   D14        2.40134   0.00610   0.00000   0.08157   0.07873   2.48006
   D15        2.63310   0.00361   0.00000   0.06255   0.06342   2.69652
   D16       -0.70037   0.00509   0.00000   0.14412   0.14214  -0.55823
   D17       -2.19651  -0.00221   0.00000  -0.01076  -0.00995  -2.20646
   D18        2.05774  -0.00422   0.00000  -0.02780  -0.02692   2.03082
   D19       -0.19382  -0.00167   0.00000  -0.00356  -0.00321  -0.19703
   D20        1.11551  -0.00115   0.00000  -0.07012  -0.07170   1.04381
   D21       -0.91343  -0.00316   0.00000  -0.08716  -0.08867  -1.00210
   D22        3.11819  -0.00061   0.00000  -0.06293  -0.06495   3.05324
   D23        2.94671   0.00321   0.00000   0.02668   0.02634   2.97305
   D24       -1.22496   0.00239   0.00000   0.02527   0.02500  -1.19996
   D25        0.85250   0.00042   0.00000   0.00624   0.00606   0.85856
   D26        0.92494   0.00215   0.00000   0.02596   0.02580   0.95075
   D27        3.03646   0.00133   0.00000   0.02455   0.02446   3.06092
   D28       -1.16927  -0.00064   0.00000   0.00552   0.00552  -1.16375
   D29       -1.07623   0.00127   0.00000   0.00736   0.00746  -1.06877
   D30        1.03528   0.00045   0.00000   0.00595   0.00612   1.04140
   D31        3.11274  -0.00152   0.00000  -0.01307  -0.01282   3.09992
   D32       -2.90827  -0.00313   0.00000  -0.01185  -0.01164  -2.91991
   D33       -0.87940   0.00020   0.00000   0.02977   0.02942  -0.84998
   D34        1.30936  -0.00357   0.00000   0.00000  -0.00001   1.30935
   D35       -0.91208  -0.00183   0.00000  -0.01392  -0.01385  -0.92594
   D36        1.11678   0.00150   0.00000   0.02769   0.02721   1.14399
   D37       -2.97764  -0.00227   0.00000  -0.00207  -0.00222  -2.97987
   D38        1.09026   0.00082   0.00000   0.01288   0.01294   1.10320
   D39        3.11912   0.00415   0.00000   0.05449   0.05401  -3.11006
   D40       -0.97530   0.00039   0.00000   0.02472   0.02457  -0.95073
   D41        0.95666   0.00031   0.00000   0.00000  -0.00000   0.95666
   D42        3.08218   0.00048   0.00000   0.00873   0.00871   3.09089
   D43       -1.13735  -0.00119   0.00000  -0.01430  -0.01427  -1.15162
   D44       -1.15701   0.00137   0.00000   0.01208   0.01212  -1.14489
   D45        0.96851   0.00153   0.00000   0.02081   0.02083   0.98934
   D46        3.03216  -0.00013   0.00000  -0.00223  -0.00214   3.03002
   D47        3.06268   0.00026   0.00000   0.00063   0.00054   3.06323
   D48       -1.09498   0.00043   0.00000   0.00936   0.00925  -1.08573
   D49        0.96867  -0.00124   0.00000  -0.01368  -0.01372   0.95495
   D50       -0.92193  -0.00103   0.00000   0.00000  -0.00000  -0.92193
   D51        1.18125  -0.00124   0.00000  -0.00866  -0.00866   1.17258
   D52       -3.04976  -0.00072   0.00000  -0.00616  -0.00618  -3.05594
   D53       -3.04922  -0.00021   0.00000  -0.00086  -0.00087  -3.05009
   D54       -0.94605  -0.00043   0.00000  -0.00952  -0.00953  -0.95558
   D55        1.10614   0.00010   0.00000  -0.00703  -0.00705   1.09909
   D56        1.17599  -0.00015   0.00000   0.00644   0.00646   1.18245
   D57       -3.00402  -0.00037   0.00000  -0.00222  -0.00220  -3.00622
   D58       -0.95183   0.00016   0.00000   0.00028   0.00028  -0.95155
   D59        0.98433  -0.00034   0.00000  -0.01363  -0.01362   0.97071
   D60        3.09617  -0.00034   0.00000  -0.01676  -0.01687   3.07929
   D61       -1.13469   0.00081   0.00000  -0.00368  -0.00361  -1.13830
   D62       -1.11714  -0.00108   0.00000  -0.01505  -0.01501  -1.13216
   D63        0.99470  -0.00108   0.00000  -0.01818  -0.01827   0.97643
   D64        3.04703   0.00007   0.00000  -0.00510  -0.00501   3.04202
   D65        3.11351  -0.00016   0.00000  -0.00360  -0.00359   3.10992
   D66       -1.05783  -0.00016   0.00000  -0.00673  -0.00685  -1.06468
   D67        0.99450   0.00099   0.00000   0.00634   0.00641   1.00091
   D68       -1.03926  -0.00004   0.00000  -0.00043  -0.00042  -1.03969
   D69       -3.12177   0.00167   0.00000   0.01007   0.00958  -3.11218
   D70        1.07843   0.00243   0.00000   0.00781   0.00791   1.08634
   D71        3.13215  -0.00163   0.00000  -0.00799  -0.00790   3.12425
   D72        1.04965   0.00008   0.00000   0.00252   0.00210   1.05175
   D73       -1.03334   0.00083   0.00000   0.00025   0.00043  -1.03291
   D74        1.07928  -0.00046   0.00000   0.00112   0.00127   1.08055
   D75       -1.00322   0.00126   0.00000   0.01163   0.01128  -0.99195
   D76       -3.08621   0.00201   0.00000   0.00936   0.00960  -3.07661
   D77       -1.17217   0.00167   0.00000   0.00000  -0.00001  -1.17218
   D78        3.07252  -0.00241   0.00000  -0.01931  -0.01934   3.05318
   D79        1.02751  -0.00393   0.00000  -0.04737  -0.04772   0.97979
   D80       -0.02246   0.00604   0.00000   0.01421   0.01418  -0.00828
   D81       -3.08552   0.00269   0.00000   0.00361   0.00378  -3.08174
         Item               Value     Threshold  Converged?
 Maximum Force            0.036350     0.000450     NO 
 RMS     Force            0.006805     0.000300     NO 
 Maximum Displacement     0.295470     0.001800     NO 
 RMS     Displacement     0.055078     0.001200     NO 
 Predicted change in Energy=-1.353497D-02
 GradGradGradGradGradGradGradGradGradGradGradGradGradGradGradGradGradGrad

                          Input orientation:                          
 ---------------------------------------------------------------------
 Center     Atomic      Atomic             Coordinates (Angstroms)
 Number     Number       Type             X           Y           Z
 ---------------------------------------------------------------------
      1          8           0       -3.422604   -1.492767   -0.100885
      2          7           0       -3.114025   -0.307493    0.095660
      3          8           0       -3.888499    0.603642    0.424184
      4          6           0       -1.691363    0.016983   -0.041814
      5          6           0       -1.319489    1.260778    0.358981
      6          7           0       -0.072619    1.771890    0.236883
      7          6           0        1.182856    1.018309    0.288262
      8          1           0        1.786897    1.525640    1.060894
      9          6           0        1.987957    1.046800   -1.005163
     10          6           0        3.371255    0.436989   -0.751746
     11          6           0        3.262117   -0.969979   -0.153074
     12          6           0        2.369976   -0.989293    1.088851
     13          6           0        0.981608   -0.416729    0.773253
     14          1           0        0.370584   -0.414324    1.690222
     15          7           0        0.381854   -1.289791   -0.235197
     16          6           0       -0.839416   -1.043668   -0.573093
     17          1           0       -2.090863    1.937293    0.721025
     18          1           0        0.035837    2.751128   -0.003409
     19          1           0        1.458090    0.479793   -1.778589
     20          1           0        2.084317    2.082725   -1.358432
     21          1           0        3.937391    0.406670   -1.689600
     22          1           0        3.926730    1.085543   -0.059765
     23          1           0        2.832603   -1.647879   -0.899032
     24          1           0        4.258048   -1.352366    0.100946
     25          1           0        2.259084   -2.015463    1.457493
     26          1           0        2.827751   -0.398041    1.893152
     27          1           0       -1.315055   -1.723392   -1.282005
 ---------------------------------------------------------------------
                    Distance matrix (angstroms):
                    1          2          3          4          5
     1  O    0.000000
     2  N    1.240454   0.000000
     3  O    2.210811   1.240123   0.000000
     4  C    2.297832   1.465657   2.321364   0.000000
     5  C    3.495223   2.397743   2.652525   1.358658   0.000000
     6  N    4.689827   3.686994   3.995100   2.403685   1.353081
     7  C    5.259962   4.500892   5.090095   3.061493   2.515059
     8  H    6.131836   5.320817   5.784946   3.948456   3.195696
     9  C    6.044939   5.392229   6.064005   3.940299   3.584114
    10  C    7.092538   6.582644   7.356263   5.129377   4.890340
    11  C    6.705336   6.415290   7.344441   5.052073   5.121484
    12  C    5.934892   5.614761   6.492129   4.334221   4.382658
    13  C    4.617257   4.152743   4.988081   2.827935   2.877621
    14  H    4.331210   3.833607   4.558388   2.727197   2.726632
    15  N    3.812236   3.646306   4.717604   2.458310   3.122983
    16  C    2.664119   2.482545   3.606258   1.460497   2.531739
    17  H    3.770196   2.544996   2.257927   2.104546   1.088010
    18  H    5.475488   4.391652   4.493879   3.234230   2.046797
    19  H    5.525111   5.003685   5.783905   3.626242   3.590834
    20  H    6.685189   5.903413   6.406242   4.500726   3.900129
    21  H    7.765398   7.308874   8.108726   5.877918   5.706222
    22  H    7.788587   7.178923   7.845013   5.718838   5.265821
    23  H    6.307829   6.176441   7.210648   4.896208   5.223289
    24  H    7.684586   7.445754   8.384311   6.106635   6.164741
    25  H    5.914671   5.800177   6.761673   4.688795   4.974603
    26  H    6.651432   6.208372   6.947607   4.933430   4.722813
    27  H    2.426931   2.671895   3.866365   2.169928   3.405602
                    6          7          8          9         10
     6  N    0.000000
     7  C    1.465176   0.000000
     8  H    2.048764   1.104179   0.000000
     9  C    2.512848   1.523794   2.130329   0.000000
    10  C    3.823560   2.491714   2.642160   1.532841   0.000000
    11  C    4.334787   2.910567   3.142946   2.533167   1.532932
    12  C    3.783683   2.465901   2.581793   2.945591   2.534687
    13  C    2.487799   1.528088   2.122269   2.513447   2.960552
    14  H    2.662359   2.162803   2.483034   3.466392   3.961308
    15  N    3.131022   2.498588   3.403036   2.938039   3.490718
    16  C    3.028433   3.013846   4.021042   3.542707   4.466992
    17  H    2.082081   3.427689   3.914332   4.517685   5.852751
    18  H    1.014105   2.098424   2.387629   2.778312   4.127985
    19  H    2.841604   2.153515   3.043776   1.095648   2.171737
    20  H    2.700745   2.158058   2.500388   1.098739   2.175483
    21  H    4.653530   3.445795   3.666324   2.162987   1.095901
    22  H    4.068644   2.766674   2.455289   2.157341   1.099096
    23  H    4.628762   3.352594   3.873762   2.825948   2.158359
    24  H    5.341735   3.887415   3.912928   3.483215   2.171469
    25  H    4.612025   3.424784   3.594394   3.938990   3.483129
    26  H    3.982960   2.699519   2.340209   3.345601   2.826333
    27  H    4.008449   4.027682   5.066310   4.319779   5.187478
                   11         12         13         14         15
    11  C    0.000000
    12  C    1.529271   0.000000
    13  C    2.522873   1.534600   0.000000
    14  H    3.473824   2.165595   1.101902   0.000000
    15  N    2.899127   2.407495   1.462503   2.115138   0.000000
    16  C    4.123642   3.614583   2.349857   2.642493   1.290834
    17  H    6.153916   5.347830   3.870947   3.539515   4.176453
    18  H    4.927263   4.542245   3.396028   3.605625   4.062325
    19  H    2.828189   3.348427   2.746395   3.743630   2.582977
    20  H    3.486991   3.938032   3.465158   4.297258   3.941308
    21  H    2.170730   3.482139   3.934499   4.981901   4.199418
    22  H    2.162311   2.836855   3.409469   4.237714   4.270730
    23  H    1.095665   2.144630   2.781806   3.779871   2.564190
    24  H    1.096642   2.161619   3.473106   4.303265   3.891245
    25  H    2.166343   1.096001   2.157795   2.486813   2.629790
    26  H    2.168601   1.098197   2.159344   2.465586   3.362663
    27  H    4.774162   4.442895   3.347554   3.659122   2.040421
                   16         17         18         19         20
    16  C    0.000000
    17  H    3.482382   0.000000
    18  H    3.935871   2.389558   0.000000
    19  H    3.008768   4.579023   3.214503   0.000000
    20  H    4.351932   4.666629   2.545412   1.771465   0.000000
    21  H    5.115462   6.670365   4.854054   2.481975   2.520459
    22  H    5.245302   6.127523   4.232776   3.068465   2.464831
    23  H    3.735643   6.302266   5.289168   2.681397   3.832543
    24  H    5.151093   7.177397   5.888686   3.837867   4.319114
    25  H    3.829931   5.923572   5.458705   4.164148   4.975453
    26  H    4.466241   5.569599   4.616166   4.015999   4.156885
    27  H    1.091244   4.244363   4.845725   3.576444   5.103734
                   21         22         23         24         25
    21  H    0.000000
    22  H    1.765601   0.000000
    23  H    2.463072   3.061548   0.000000
    24  H    2.530432   2.465563   1.766119   0.000000
    25  H    4.311339   3.833973   2.453009   2.505150   0.000000
    26  H    3.836010   2.687500   3.059152   2.483644   1.768964
    27  H    5.682560   6.071268   4.165986   5.754102   4.512719
                   26         27
    26  H    0.000000
    27  H    5.385260   0.000000
 Symmetry turned off by external request.
 Stoichiometry    C9H13N3O2
 Framework group  C1[X(C9H13N3O2)]
 Deg. of freedom    75
 Full point group                 C1      NOp   1
 Rotational constants (GHZ):           1.7026805           0.4228699           0.3740787
 Standard basis: 6-31G(d) (6D, 7F)
   236 basis functions,   444 primitive gaussians,   236 cartesian basis functions
    52 alpha electrons       52 beta electrons
       nuclear repulsion energy       933.2631785684 Hartrees.
 NAtoms=   27 NActive=   27 NUniq=   27 SFac= 1.00D+00 NAtFMM=   60 NAOKFM=F Big=F
 Integral buffers will be    131072 words long.
 Raffenetti 1 integral format.
 Two-electron integral symmetry is turned off.
 One-electron integrals computed using PRISM.
 NBasis=   236 RedAO= T EigKep=  1.08D-03  NBF=   236
 NBsUse=   236 1.00D-06 EigRej= -1.00D+00 NBFU=   236
 Initial guess from the checkpoint file:  "/home/alexey/tmp/Gau-1242828.chk"
 B after Tr=     0.054799    0.001895    0.003274
         Rot=    0.999999   -0.000307   -0.001041   -0.000120 Ang=  -0.13 deg.
 ExpMin= 1.61D-01 ExpMax= 5.48D+03 ExpMxC= 8.25D+02 IAcc=3 IRadAn=         5 AccDes= 0.00D+00
 Harris functional with IExCor=  205 and IRadAn=       5 diagonalized for initial guess.
 HarFok:  IExCor=  205 AccDes= 0.00D+00 IRadAn=         5 IDoV= 1 UseB2=F ITyADJ=14
 ICtDFT=  3500011 ScaDFX=  1.000000  1.000000  1.000000  1.000000
 FoFCou: FMM=F IPFlag=           0 FMFlag=      100000 FMFlg1=           0
         NFxFlg=           0 DoJE=T BraDBF=F KetDBF=T FulRan=T
         wScrn=  0.000000 ICntrl=       500 IOpCl=  0 I1Cent=   200000004 NGrid=           0
         NMat0=    1 NMatS0=      1 NMatT0=    0 NMatD0=    1 NMtDS0=    0 NMtDT0=    0
 Symmetry not used in FoFCou.
 Keep R1 ints in memory in canonical form, NReq=397720213.
 Requested convergence on RMS density matrix=1.00D-08 within 128 cycles.
 Requested convergence on MAX density matrix=1.00D-06.
 Requested convergence on             energy=1.00D-06.
 No special actions if energy rises.
 SCF Done:  E(RHF) =  -661.288865690     A.U. after   15 cycles
            NFock= 15  Conv=0.41D-08     -V/T= 2.0025
 ExpMin= 1.61D-01 ExpMax= 5.48D+03 ExpMxC= 8.25D+02 IAcc=3 IRadAn=         5 AccDes= 0.00D+00
 HarFok:  IExCor=  205 AccDes= 0.00D+00 IRadAn=         5 IDoV=-2 UseB2=F ITyADJ=14
 ICtDFT= 12500011 ScaDFX=  1.000000  1.000000  1.000000  1.000000
 Range of M.O.s used for correlation:    15   236
 NBasis=   236 NAE=    52 NBE=    52 NFC=    14 NFV=     0
 NROrb=    222 NOA=    38 NOB=    38 NVA=   184 NVB=   184
 Fully direct method using O(ONN) memory.
 JobTyp=1 Pass  1:  I=  15 to  52 NPSUse=  4 ParTrn=T ParDer=T DoDerP=T.
 Spin components of T(2) and E(2):
     alpha-alpha T2 =       0.9127048715D-01 E2=     -0.2723323549D+00
     alpha-beta  T2 =       0.4926682896D+00 E2=     -0.1489403490D+01
     beta-beta   T2 =       0.9127048715D-01 E2=     -0.2723323549D+00
 ANorm=    0.1294298754D+01
 E2 =    -0.2034068199D+01 EUMP2 =    -0.66332293388902D+03
          IDoAtm=111111111111111111111111111
          Differentiating once with respect to electric field.
                with respect to dipole field.
          Differentiating once with respect to nuclear coordinates.
 Keep R1 ints in memory in canonical form, NReq=397723379.
          There are     1 degrees of freedom in the 1st order CPHF.  IDoFFX=0 NUNeed=     1.
 LinEq1:  Iter=  0 NonCon=     1 RMS=4.55D-03 Max=9.87D-02 NDo=     1
 AX will form     1 AO Fock derivatives at one time.
 LinEq1:  Iter=  1 NonCon=     1 RMS=1.52D-03 Max=2.53D-02 NDo=     1
 LinEq1:  Iter=  2 NonCon=     1 RMS=6.39D-04 Max=1.64D-02 NDo=     1
 LinEq1:  Iter=  3 NonCon=     1 RMS=2.83D-04 Max=7.97D-03 NDo=     1
[...]
    16  C    0.000000
    17  H    3.465839   0.000000
    18  H    4.056283   2.229177   0.000000
    19  H    2.982609   4.489818   3.586745   0.000000
    20  H    4.352684   4.620240   2.970041   1.767530   0.000000
    21  H    5.093125   6.628217   5.133806   2.498825   2.523541
    22  H    5.236328   6.117308   4.317359   3.070349   2.461434
    23  H    3.708201   6.269235   5.428037   2.707152   3.844052
    24  H    5.139402   7.172176   5.917880   3.851803   4.317796
    25  H    3.826868   5.941392   5.306326   4.174906   4.985430
    26  H    4.488498   5.622016   4.412178   4.041975   4.185664
    27  H    1.089665   4.242391   5.042408   3.545611   5.099438
                   21         22         23         24         25
    21  H    0.000000
    22  H    1.758652   0.000000
    23  H    2.468327   3.061865   0.000000
    24  H    2.517034   2.459572   1.764455   0.000000
    25  H    4.312233   3.841157   2.444130   2.520234   0.000000
    26  H    3.848407   2.707441   3.060522   2.489432   1.767452
    27  H    5.636225   6.041669   4.107081   5.709794   4.482388
                   26         27
    26  H    0.000000
    27  H    5.384884   0.000000
 Symmetry turned off by external request.
 Stoichiometry    C9H13N3O2
 Framework group  C1[X(C9H13N3O2)]
 Deg. of freedom    75
 Full point group                 C1      NOp   1
 Rotational constants (GHZ):           1.6938629           0.4202326           0.3730456

 **********************************************************************

            Population analysis using the SCF Density.

 **********************************************************************

 Alpha  occ. eigenvalues --  -20.59511 -20.59192 -15.84908 -15.63601 -15.56635
 Alpha  occ. eigenvalues --  -11.34816 -11.29752 -11.29543 -11.28865 -11.27283
 Alpha  occ. eigenvalues --  -11.23487 -11.23113 -11.22808 -11.22111  -1.57335
 Alpha  occ. eigenvalues --   -1.36966  -1.30626  -1.23242  -1.14688  -1.09822
 Alpha  occ. eigenvalues --   -1.02715  -1.01200  -0.94467  -0.89691  -0.85396
 Alpha  occ. eigenvalues --   -0.82451  -0.78387  -0.77488  -0.75056  -0.71744
 Alpha  occ. eigenvalues --   -0.70081  -0.69508  -0.67768  -0.64984  -0.63641
 Alpha  occ. eigenvalues --   -0.62190  -0.60507  -0.57455  -0.57061  -0.55030
 Alpha  occ. eigenvalues --   -0.54493  -0.50747  -0.49890  -0.48818  -0.48109
 Alpha  occ. eigenvalues --   -0.47515  -0.46211  -0.46010  -0.43803  -0.41747
 Alpha  occ. eigenvalues --   -0.40296  -0.34215
 Alpha virt. eigenvalues --    0.06908   0.11653   0.17413   0.21727   0.23940
 Alpha virt. eigenvalues --    0.25521   0.26851   0.28576   0.29107   0.29844
 Alpha virt. eigenvalues --    0.30432   0.31804   0.32016   0.32628   0.34154
 Alpha virt. eigenvalues --    0.34474   0.35653   0.37290   0.38608   0.40183
 Alpha virt. eigenvalues --    0.41107   0.42782   0.45111   0.46317   0.46537
 Alpha virt. eigenvalues --    0.47161   0.48684   0.53474   0.57883   0.59604
 Alpha virt. eigenvalues --    0.63538   0.69693   0.70302   0.72732   0.74362
 Alpha virt. eigenvalues --    0.74850   0.75940   0.76687   0.78257   0.79560
 Alpha virt. eigenvalues --    0.81244   0.84772   0.85789   0.86748   0.88587
 Alpha virt. eigenvalues --    0.89961   0.90240   0.92114   0.92994   0.94351
 Alpha virt. eigenvalues --    0.95298   0.97839   0.99525   1.02079   1.02357
 Alpha virt. eigenvalues --    1.02842   1.04881   1.06120   1.07412   1.09296
 Alpha virt. eigenvalues --    1.10051   1.10077   1.11863   1.12180   1.14065
 Alpha virt. eigenvalues --    1.14112   1.15093   1.15298   1.16706   1.18771
 Alpha virt. eigenvalues --    1.19747   1.20931   1.21558   1.23067   1.24320
 Alpha virt. eigenvalues --    1.24862   1.26434   1.26790   1.27527   1.29294
 Alpha virt. eigenvalues --    1.30539   1.32740   1.34264   1.36480   1.41408
 Alpha virt. eigenvalues --    1.42752   1.46978   1.48826   1.50784   1.52792
 Alpha virt. eigenvalues --    1.54087   1.58024   1.60695   1.63360   1.64968
 Alpha virt. eigenvalues --    1.67260   1.68971   1.72992   1.74481   1.77182
 Alpha virt. eigenvalues --    1.81904   1.83912   1.86696   1.90311   1.93000
 Alpha virt. eigenvalues --    1.95373   1.96741   1.99340   2.00834   2.03056
 Alpha virt. eigenvalues --    2.05065   2.05669   2.08338   2.09616   2.11194
 Alpha virt. eigenvalues --    2.12552   2.15330   2.16944   2.20123   2.21421
 Alpha virt. eigenvalues --    2.23480   2.24568   2.25319   2.28139   2.30090
 Alpha virt. eigenvalues --    2.31413   2.34721   2.35692   2.37896   2.38475
 Alpha virt. eigenvalues --    2.39736   2.40927   2.43652   2.45011   2.49438
 Alpha virt. eigenvalues --    2.51234   2.52306   2.54954   2.56424   2.61493
 Alpha virt. eigenvalues --    2.63003   2.65255   2.68273   2.69713   2.71295
 Alpha virt. eigenvalues --    2.73192   2.74024   2.78401   2.79169   2.82826
 Alpha virt. eigenvalues --    2.86268   2.87648   2.92644   2.93629   2.96419
 Alpha virt. eigenvalues --    3.00079   3.00841   3.03184   3.04068   3.08097
 Alpha virt. eigenvalues --    3.09061   3.13762   3.22189   3.24013   3.26849
 Alpha virt. eigenvalues --    3.29717   3.36369   3.36974   3.51815   3.63268
 Alpha virt. eigenvalues --    4.11604   4.27220   4.32987   4.38599   4.44809
 Alpha virt. eigenvalues --    4.55637   4.61298   4.61984   4.73623   4.78676
 Alpha virt. eigenvalues --    4.98075   5.00894   5.03695   5.11421
          Condensed to atoms (all electrons):
               1          2          3          4          5          6
     1  O    8.313356   0.307568  -0.082105  -0.085321   0.004211  -0.000019
     2  N    0.307568   5.729566   0.299645   0.260752  -0.050147   0.000956
     3  O   -0.082105   0.299645   8.348545  -0.089955   0.002851   0.000618
     4  C   -0.085321   0.260752  -0.089955   5.195665   0.567367  -0.058581
     5  C    0.004211  -0.050147   0.002851   0.567367   4.736379   0.323354
     6  N   -0.000019   0.000956   0.000618  -0.058581   0.323354   7.149965
     7  C    0.000005  -0.000137  -0.000002   0.000949  -0.034606   0.183209
     8  H   -0.000000   0.000003  -0.000000  -0.000076   0.001910  -0.050680
     9  C   -0.000000  -0.000003   0.000000   0.000984   0.001722  -0.060002
    10  C    0.000000   0.000000  -0.000000  -0.000032  -0.000077   0.003560
    11  C   -0.000000  -0.000000  -0.000000  -0.000042   0.000029  -0.000210
    12  C   -0.000000   0.000003  -0.000000  -0.000025  -0.000089   0.004098
    13  C   -0.000028  -0.000079  -0.000004  -0.014584  -0.000651  -0.045825
    14  H   -0.000009  -0.000079  -0.000000   0.003057   0.008994  -0.007771
    15  N    0.000176   0.002487  -0.000018  -0.059910  -0.008800   0.001749
    16  C    0.002290  -0.030762   0.002430   0.333492  -0.048495  -0.001949
    17  H    0.000198  -0.006329   0.015814  -0.025966   0.377102  -0.032876
    18  H    0.000001  -0.000057   0.000012   0.002679  -0.032428   0.338108
    19  H    0.000000   0.000000   0.000000  -0.000686   0.000439   0.000167
    20  H    0.000000  -0.000000   0.000000  -0.000089   0.000174  -0.000694
    21  H   -0.000000   0.000000   0.000000   0.000000   0.000001  -0.000068
    22  H   -0.000000   0.000000  -0.000000   0.000000  -0.000004  -0.000117
    23  H    0.000000  -0.000000   0.000000   0.000038  -0.000000  -0.000029
    24  H   -0.000000   0.000000   0.000000   0.000000  -0.000000   0.000005
    25  H    0.000000  -0.000000   0.000000   0.000026  -0.000002  -0.000092
    26  H   -0.000000  -0.000000   0.000000   0.000009  -0.000006  -0.000046
    27  H    0.004983  -0.000827  -0.000009  -0.059796   0.002508   0.000044
               7          8          9         10         11         12
     1  O    0.000005  -0.000000  -0.000000   0.000000  -0.000000  -0.000000
     2  N   -0.000137   0.000003  -0.000003   0.000000  -0.000000   0.000003
     3  O   -0.000002  -0.000000   0.000000  -0.000000  -0.000000  -0.000000
     4  C    0.000949  -0.000076   0.000984  -0.000032  -0.000042  -0.000025
     5  C   -0.034606   0.001910   0.001722  -0.000077   0.000029  -0.000089
     6  N    0.183209  -0.050680  -0.060002   0.003560  -0.000210   0.004098
     7  C    5.025964   0.418775   0.343560  -0.054909  -0.008690  -0.060700
     8  H    0.418775   0.545239  -0.056333   0.000952  -0.000449  -0.002242
     9  C    0.343560  -0.056333   5.159566   0.323155  -0.049905  -0.005269
    10  C   -0.054909   0.000952   0.323155   5.122965   0.336391  -0.060687
    11  C   -0.008690  -0.000449  -0.049905   0.336391   5.119235   0.336418
    12  C   -0.060700  -0.002242  -0.005269  -0.060687   0.336418   5.117735
    13  C    0.346373  -0.040044  -0.058875  -0.000388  -0.050953   0.369299
    14  H   -0.047321  -0.000489   0.004443  -0.000396   0.004122  -0.035776
    15  N   -0.058735   0.004153  -0.015408   0.001709  -0.013021  -0.081006
    16  C   -0.002027  -0.000001  -0.001570  -0.000000   0.000038   0.002906
    17  H    0.001948  -0.000069  -0.000073   0.000001   0.000000  -0.000000
    18  H   -0.024630  -0.005153   0.001965  -0.000101   0.000004  -0.000134
    19  H   -0.036701   0.004470   0.390039  -0.032280  -0.002307   0.000714
    20  H   -0.040898  -0.001979   0.399598  -0.035645   0.003927  -0.000403
    21  H    0.004591  -0.000074  -0.036229   0.402638  -0.034941   0.004327
    22  H   -0.004823   0.003615  -0.046704   0.397499  -0.045669  -0.001026
    23  H    0.000552   0.000041  -0.001918  -0.039002   0.399277  -0.037873
    24  H   -0.000128  -0.000103   0.004333  -0.038255   0.402201  -0.038827
    25  H    0.005061  -0.000014  -0.000443   0.004178  -0.033455   0.398265
    26  H   -0.004070   0.001792   0.000939  -0.002190  -0.041267   0.396864
    27  H   -0.000392   0.000009  -0.000062   0.000007   0.000010  -0.000037
              13         14         15         16         17         18
     1  O   -0.000028  -0.000009   0.000176   0.002290   0.000198   0.000001
     2  N   -0.000079  -0.000079   0.002487  -0.030762  -0.006329  -0.000057
     3  O   -0.000004  -0.000000  -0.000018   0.002430   0.015814   0.000012
     4  C   -0.014584   0.003057  -0.059910   0.333492  -0.025966   0.002679
     5  C   -0.000651   0.008994  -0.008800  -0.048495   0.377102  -0.032428
     6  N   -0.045825  -0.007771   0.001749  -0.001949  -0.032876   0.338108
     7  C    0.346373  -0.047321  -0.058735  -0.002027   0.001948  -0.024630
     8  H   -0.040044  -0.000489   0.004153  -0.000001  -0.000069  -0.005153
     9  C   -0.058875   0.004443  -0.015408  -0.001570  -0.000073   0.001965
    10  C   -0.000388  -0.000396   0.001709  -0.000000   0.000001  -0.000101
    11  C   -0.050953   0.004122  -0.013021   0.000038   0.000000   0.000004
    12  C    0.369299  -0.035776  -0.081006   0.002906  -0.000000  -0.000134
    13  C    5.049674   0.399411   0.246009  -0.071244   0.000069   0.002810
    14  H    0.399411   0.533641  -0.037620  -0.005221   0.000144  -0.000091
    15  N    0.246009  -0.037620   6.951983   0.580297  -0.000116  -0.000108
    16  C   -0.071244  -0.005221   0.580297   4.715411   0.001884  -0.000153
    17  H    0.000069   0.000144  -0.000116   0.001884   0.380088  -0.003536
    18  H    0.002810  -0.000091  -0.000108  -0.000153  -0.003536   0.323708
    19  H   -0.007654   0.000116   0.008001   0.002824   0.000008  -0.000140
    20  H    0.004235  -0.000066   0.000142  -0.000030   0.000005   0.000414
    21  H   -0.000412   0.000010  -0.000033   0.000003  -0.000000   0.000002
    22  H    0.000050  -0.000057   0.000016  -0.000002  -0.000000  -0.000001
    23  H   -0.007358  -0.000003   0.008284   0.000077   0.000000   0.000000
    24  H    0.004711  -0.000055   0.000144   0.000007   0.000000  -0.000000
    25  H   -0.035477  -0.002769   0.000111  -0.000013   0.000000   0.000002
    26  H   -0.047257  -0.001060   0.004831  -0.000083   0.000000   0.000000
    27  H    0.005084  -0.000198  -0.040161   0.401576  -0.000077   0.000001
              19         20         21         22         23         24
     1  O    0.000000   0.000000  -0.000000  -0.000000   0.000000  -0.000000
     2  N    0.000000  -0.000000   0.000000   0.000000  -0.000000   0.000000
     3  O    0.000000   0.000000   0.000000  -0.000000   0.000000   0.000000
     4  C   -0.000686  -0.000089   0.000000   0.000000   0.000038   0.000000
     5  C    0.000439   0.000174   0.000001  -0.000004  -0.000000  -0.000000
     6  N    0.000167  -0.000694  -0.000068  -0.000117  -0.000029   0.000005
     7  C   -0.036701  -0.040898   0.004591  -0.004823   0.000552  -0.000128
     8  H    0.004470  -0.001979  -0.000074   0.003615   0.000041  -0.000103
     9  C    0.390039   0.399598  -0.036229  -0.046704  -0.001918   0.004333
    10  C   -0.032280  -0.035645   0.402638   0.397499  -0.039002  -0.038255
    11  C   -0.002307   0.003927  -0.034941  -0.045669   0.399277   0.402201
    12  C    0.000714  -0.000403   0.004327  -0.001026  -0.037873  -0.038827
    13  C   -0.007654   0.004235  -0.000412   0.000050  -0.007358   0.004711
    14  H    0.000116  -0.000066   0.000010  -0.000057  -0.000003  -0.000055
    15  N    0.008001   0.000142  -0.000033   0.000016   0.008284   0.000144
    16  C    0.002824  -0.000030   0.000003  -0.000002   0.000077   0.000007
    17  H    0.000008   0.000005  -0.000000  -0.000000   0.000000   0.000000
    18  H   -0.000140   0.000414   0.000002  -0.000001   0.000000  -0.000000
    19  H    0.504373  -0.024127  -0.002764   0.003942   0.001510  -0.000065
    20  H   -0.024127   0.536588  -0.002616  -0.003005  -0.000048  -0.000081
    21  H   -0.002764  -0.002616   0.523805  -0.027409  -0.002930  -0.002221
    22  H    0.003942  -0.003005  -0.027409   0.572108   0.004154  -0.003676
    23  H    0.001510  -0.000048  -0.002930   0.004154   0.499630  -0.025508
    24  H   -0.000065  -0.000081  -0.002221  -0.003676  -0.025508   0.538377
    25  H   -0.000026   0.000012  -0.000087  -0.000079  -0.002359  -0.002240
    26  H    0.000019  -0.000030  -0.000083   0.002373   0.004059  -0.003081
    27  H    0.000071   0.000000  -0.000000   0.000000  -0.000032  -0.000000
              25         26         27
     1  O    0.000000  -0.000000   0.004983
     2  N   -0.000000  -0.000000  -0.000827
     3  O    0.000000   0.000000  -0.000009
     4  C    0.000026   0.000009  -0.059796
     5  C   -0.000002  -0.000006   0.002508
     6  N   -0.000092  -0.000046   0.000044
     7  C    0.005061  -0.004070  -0.000392
     8  H   -0.000014   0.001792   0.000009
     9  C   -0.000443   0.000939  -0.000062
    10  C    0.004178  -0.002190   0.000007
    11  C   -0.033455  -0.041267   0.000010
    12  C    0.398265   0.396864  -0.000037
    13  C   -0.035477  -0.047257   0.005084
    14  H   -0.002769  -0.001060  -0.000198
    15  N    0.000111   0.004831  -0.040161
    16  C   -0.000013  -0.000083   0.401576
    17  H    0.000000   0.000000  -0.000077
    18  H    0.000002   0.000000   0.000001
    19  H   -0.000026   0.000019   0.000071
    20  H    0.000012  -0.000030   0.000000
    21  H   -0.000087  -0.000083  -0.000000
    22  H   -0.000079   0.002373   0.000000
    23  H   -0.002359   0.004059  -0.000032
    24  H   -0.002240  -0.003081  -0.000000
    25  H    0.506771  -0.024201  -0.000010
    26  H   -0.024201   0.561645   0.000001
    27  H   -0.000010   0.000001   0.443167
 Mulliken charges:
               1
     1  O   -0.465305
     2  N    0.487440
     3  O   -0.497821
     4  C    0.030042
     5  C    0.148263
     6  N   -0.746874
     7  C    0.047782
     8  H    0.176746
     9  C   -0.297509
    10  C   -0.329092
    11  C   -0.320744
    12  C   -0.306537
    13  C   -0.046894
    14  H    0.185042
    15  N   -0.495157
    16  C    0.118315
    17  H    0.291781
    18  H    0.396825
    19  H    0.190058
    20  H    0.164615
    21  H    0.174490
    22  H    0.148814
    23  H    0.199436
    24  H    0.164462
    25  H    0.186840
    26  H    0.150842
    27  H    0.244138
 Sum of Mulliken charges =  -0.00000
 Mulliken charges with hydrogens summed into heavy atoms:
               1
     1  O   -0.465305
     2  N    0.487440
     3  O   -0.497821
     4  C    0.030042
     5  C    0.440045
     6  N   -0.350049
     7  C    0.224528
     9  C    0.057164
    10  C   -0.005788
    11  C    0.043154
    12  C    0.031146
    13  C    0.138148
    15  N   -0.495157
    16  C    0.362453
 Electronic spatial extent (au):  <R**2>=           2997.6138
 Charge=              0.0000 electrons
 Dipole moment (field-independent basis, Debye):
    X=              5.2614    Y=              4.5539    Z=              1.4215  Tot=              7.1022
 Quadrupole moment (field-independent basis, Debye-Ang):
   XX=           -105.5723   YY=            -80.3456   ZZ=            -80.9355
   XY=             -2.0837   XZ=              0.7470   YZ=              2.9359
 Traceless Quadrupole moment (field-independent basis, Debye-Ang):
   XX=            -16.6212   YY=              8.6056   ZZ=              8.0156
   XY=             -2.0837   XZ=              0.7470   YZ=              2.9359
 Octapole moment (field-independent basis, Debye-Ang**2):
  XXX=             89.2441  YYY=             34.1685  ZZZ=             -0.8401  XYY=             -3.4357
  XXY=             11.0025  XXZ=             -0.4361  XZZ=            -10.9434  YZZ=             -0.1512
  YYZ=              9.6844  XYZ=             -1.3972
 Hexadecapole moment (field-independent basis, Debye-Ang**3):
 XXXX=          -3366.8219 YYYY=           -606.7397 ZZZZ=           -303.4007 XXXY=            -36.5578
 XXXZ=             34.2271 YYYX=            -20.0153 YYYZ=             28.9936 ZZZX=             26.3148
 ZZZY=              9.9876 XXYY=           -627.2887 XXZZ=           -520.7932 YYZZ=           -154.3740
 XXYZ=             -1.9872 YYXZ=              9.8125 ZZXY=              2.1460
 N-N= 9.319812668182D+02 E-N=-3.410640468392D+03  KE= 6.596267115387D+02
 Unable to Open any file for archive entry.
 1\1\GINC-LOTUS\FOpt\RMP2-FC\6-31G(d)\C9H13N3O2\ALEXEY\01-Jul-2023\0\\#
 MP2/6-31G* SCF=Tight Opt=(ModRedun, MaxCycle=20 ) NoSymm\\MolName:\\0,
 1\O,-3.4744236053,-1.4446053683,-0.2435386066\N,-3.1160215264,-0.27053
 61666,-0.0257688403\O,-3.9059149257,0.6632247639,0.2107829331\C,-1.687
 9927027,-0.0064367871,-0.0501119383\C,-1.2994315006,1.2406271149,0.355
 0526151\N,-0.0661835953,1.7813378075,0.2381214303\C,1.1956749398,1.037
 6357505,0.2799709509\H,1.82295128,1.5719369422,1.0105422933\C,1.955987
 3487,1.023527586,-1.0431791754\C,3.3425714912,0.4127108162,-0.80885916
 33\C,3.2603370287,-0.9729339733,-0.1625950373\C,2.4095915345,-0.959846
 1832,1.1098252389\C,1.0162372201,-0.3980038321,0.8077602229\H,0.398472
 6234,-0.355627566,1.7202675224\N,0.4017613703,-1.2953007663,-0.1685827
 361\C,-0.8326408124,-1.0878391904,-0.5056169547\H,-2.0875670624,1.9344
 834083,0.6357710895\H,-0.002000061,2.7213551621,0.6139826543\H,1.39112
 76212,0.4397709202,-1.7773155543\H,2.043083383,2.045776007,-1.43110114
 45\H,3.8884597485,0.3557189295,-1.7575258205\H,3.9183982527,1.08607728
 21,-0.1579832019\H,2.8102522913,-1.6785750812,-0.8677196093\H,4.268850
 279,-1.3381687337,0.0649741225\H,2.3006343653,-1.9757263722,1.50414945
 15\H,2.8912488799,-0.3553642139,1.8907845083\H,-1.2824438657,-1.812218
 2558,-1.1840872506\\Version=ES64L-G16RevC.02\HF=-661.2953613\MP2=-663.
 3315174\RMSD=8.868e-09\RMSF=2.478e-03\Dipole=1.8973865,1.5911673,0.498
 2262\PG=C01 [X(C9H13N3O2)]\\@
 The archive entry for this job was punched.


 THE 2ND LAW OF THERMODYNAMICS HAS THE SAME
 DEGREE OF TRUTH AS THE STATEMENT THAT IF YOU THROW
 A TUMBLERFULL OF WATER INTO THE SEA, YOU CANNOT GET
 THE SAME TUMBLERFULL OF WATER OUT AGAIN.
          - J.C. MAXWELL, LETTER TO LORD RAYLEIGH, DECEMBER 6,1870
 Job cpu time:       0 days  1 hours 11 minutes 58.1 seconds.
 Elapsed time:       0 days  0 hours 21 minutes 33.4 seconds.
 File lengths (MBytes):  RWF=     31 Int=      0 D2E=      0 Chk=      7 Scr=      1
 Normal termination of Gaussian 16 at Sat Jul  1 01:11:04 2023.
