 Entering Gaussian System, Link 0=g16
 Initial command:
 /home/alexey/programs//g16/l1.exe "/home/alexey/tmp/Gau-1592036.inp" -scrdir="/home/alexey/tmp/"
 Entering Link 1 = /home/alexey/programs//g16/l1.exe PID=   1592038.
  
 Copyright (c) 1988-2021, Gaussian, Inc.  All Rights Reserved.
  
 This is part of the Gaussian(R) 16 program.  It is based on
 the Gaussian(R) 09 system (copyright 2009, Gaussian, Inc.),
 the Gaussian(R) 03 system (copyright 2003, Gaussian, Inc.),
 the Gaussian(R) 98 system (copyright 1998, Gaussian, Inc.),
 the Gaussian(R) 94 system (copyright 1995, Gaussian, Inc.),
 the Gaussian 92(TM) system (copyright 1992, Gaussian, Inc.),
 the Gaussian 90(TM) system (copyright 1990, Gaussian, Inc.),
 the Gaussian 88(TM) system (copyright 1988, Gaussian, Inc.),
 the Gaussian 86(TM) system (copyright 1986, Carnegie Mellon
 University), and the Gaussian 82(TM) system (copyright 1983,
 Carnegie Mellon University). Gaussian is a federally registered
 trademark of Gaussian, Inc.
  
 This software contains proprietary and confidential information,
 including trade secrets, belonging to Gaussian, Inc.
  
 This software is provided under written license and may be
 used, copied, transmitted, or stored only in accord with that
 written license.
  
 The following legend is applicable only to US Government
 contracts under FAR:
  
                    RESTRICTED RIGHTS LEGEND
  
 Use, reproduction and disclosure by the US Government is
 subject to restrictions as set forth in subparagraphs (a)
 and (c) of the Commercial Computer Software - Restricted
 Rights clause in FAR 52.227-19.
  
 Gaussian, Inc.
 340 Quinnipiac St., Bldg. 40, Wallingford CT 06492
  
  
 ---------------------------------------------------------------
 Warning -- This program may not be used in any manner that
 competes with the business of Gaussian, Inc. or will provide
 assistance to any competitor of Gaussian, Inc.  The licensee
 of this program is prohibited from giving any competitor of
 Gaussian, Inc. access to this program.  By using this program,
 the user acknowledges that Gaussian, Inc. is engaged in the
 business of creating and licensing software in the field of
 computational chemistry and represents and warrants to the
 licensee that it is not a competitor of Gaussian, Inc. and that
 it will not use this program in any manner prohibited above.
 ---------------------------------------------------------------
  

 Cite this work as:
 Gaussian 16, Revision C.02,
 M. J. Frisch, G. W. Trucks, H. B. Schlegel, G. E. Scuseria, 
 M. A. Robb, J. R. Cheeseman, G. Scalmani, V. Barone, 
 G. A. Petersson, H. Nakatsuji, X. Li, M. Caricato, A. V. Marenich, 
 J. Bloino, B. G. Janesko, R. Gomperts, B. Mennucci, H. P. Hratchian, 
 J. V. Ortiz, A. F. Izmaylov, J. L. Sonnenberg, D. Williams-Young, 
 F. Ding, F. Lipparini, F. Egidi, J. Goings, B. Peng, A. Petrone, 
 T. Henderson, D. Ranasinghe, V. G. Zakrzewski, J. Gao, N. Rega, 
 G. Zheng, W. Liang, M. Hada, M. Ehara, K. Toyota, R. Fukuda, 
 J. Hasegawa, M. Ishida, T. Nakajima, Y. Honda, O. Kitao, H. Nakai, 
 T. Vreven, K. Throssell, J. A. Montgomery, Jr., J. E. Peralta, 
 F. Ogliaro, M. J. Bearpark, J. J. Heyd, E. N. Brothers, K. N. Kudin, 
 V. N. Staroverov, T. A. Keith, R. Kobayashi, J. Normand, 
 K. Raghavachari, A. P. Rendell, J. C. Burant, S. S. Iyengar, 
 J. Tomasi, M. Cossi, J. M. Millam, M. Klene, C. Adamo, R. Cammi, 
 J. W. Ochterski, R. L. Martin, K. Morokuma, O. Farkas, 
 J. B. Foresman, and D. J. Fox, Gaussian, Inc., Wallingford CT, 2019.
 
 ******************************************
 Gaussian 16:  ES64L-G16RevC.02  7-Dec-2021
                 2-Jul-2023 
 ******************************************
 %mem=8GB
 %NPROCS=4
 Will use up to    4 processors via shared memory.
 %NoSave
 ---------------------------------------------------------
 #MP2/6-31G* SCF=Tight Opt=(ModRedun, MaxCycle=20 ) NoSymm
 ---------------------------------------------------------
 1/6=20,18=120,19=15,38=1/1,3;
 2/9=110,12=2,15=1,17=6,18=5,40=1/2;
 3/5=1,6=6,7=1,11=9,25=1,30=1,71=1/1,2,3;
 4//1;
 5/5=2,32=2,38=5/2;
 8/6=4,10=2/1;
 9/15=2,16=-3/6;
 10/5=1,31=1/2;
 6/7=2,8=2,9=2,10=2/1;
 7/12=2,30=1/1,2,3,16;
 1/6=20,18=20,19=15/3(2);
 2/9=110,15=1/2;
 99//99;
 2/9=110,15=1/2;
 3/5=1,6=6,7=1,11=9,25=1,30=1,71=1/1,2,3;
 4/5=5,16=3,69=1/1;
 5/5=2,32=2,38=5/2;
 8/6=4,10=2/1;
 9/15=2,16=-3/6;
 10/5=1,31=1/2;
 7/12=2,30=1/1,2,3,16;
 1/6=20,18=20,19=15/3(-8);
 2/9=110,15=1/2;
 6/7=2,8=2,9=2,10=2/1;
 99/9=10/99;
 --------
 MolName:
 --------
 Symbolic Z-matrix:
 Charge =  0 Multiplicity = 1
 8                    0    -3.63626  -1.42228  -0.17493 
 7                    0    -3.25665  -0.26292  -0.01921 
 8                    0    -4.01968   0.68684   0.1623 
 6                    0    -1.75129  -0.00391  -0.01201 
 6                    0    -1.35112   1.32668   0.14677 
 7                    0    -0.08806   1.74285   0.47413 
 6                    0     1.1955    0.98268   0.40559 
 1                    0     1.8719    1.47196   1.15364 
 6                    0     1.9319    1.05863  -0.95518 
 6                    0     3.35079   0.47804  -0.80266 
 6                    0     3.30873  -0.94694  -0.22823 
 6                    0     2.48654  -1.00462   1.07732 
 6                    0     1.04188  -0.47506   0.86472 
 1                    0     0.51018  -0.52968   1.84361 
 7                    0     0.37192  -1.33959  -0.11042 
 6                    0    -0.87712  -1.14789  -0.38278 
 1                    0    -2.09509   2.12015  -0.03424 
 1                    0     0.15199   2.73709   0.46895 
 1                    0     1.37016   0.4897   -1.7263 
 1                    0     2.00379   2.11433  -1.29279 
 1                    0     3.86589   0.47157  -1.78815 
 1                    0     3.93794   1.1251   -0.11335 
 1                    0     2.85071  -1.62779  -0.98083 
 1                    0     4.34289  -1.3077   -0.037 
 1                    0     2.44201  -2.05645   1.43565 
 1                    0     2.99184  -0.40145   1.86042 
 1                    0    -1.3913   -1.91634  -0.98005 
 
 The following ModRedundant input section has been read:
 D      16       4       5      17 F                                           
 D       1       2       4      16 F                                           
 D       7      13      15      16 F                                           
 D       7       9      10      11 F                                           
 D       9      10      11      12 F                                           
 D       6       7      13      15 F                                           
 

 GradGradGradGradGradGradGradGradGradGradGradGradGradGradGradGradGradGrad
 Berny optimization.
 Initialization pass.
                           ----------------------------
                           !    Initial Parameters    !
                           ! (Angstroms and Degrees)  !
 --------------------------                            --------------------------
 ! Name  Definition              Value          Derivative Info.                !
 --------------------------------------------------------------------------------
 ! R1    R(1,2)                  1.2298         estimate D2E/DX2                !
 ! R2    R(2,3)                  1.2317         estimate D2E/DX2                !
 ! R3    R(2,4)                  1.5275         estimate D2E/DX2                !
 ! R4    R(4,5)                  1.3985         estimate D2E/DX2                !
 ! R5    R(4,16)                 1.4867         estimate D2E/DX2                !
 ! R6    R(5,6)                  1.3696         estimate D2E/DX2                !
 ! R7    R(5,17)                 1.1027         estimate D2E/DX2                !
 ! R8    R(6,7)                  1.4933         estimate D2E/DX2                !
 ! R9    R(6,18)                 1.0228         estimate D2E/DX2                !
 ! R10   R(7,8)                  1.1209         estimate D2E/DX2                !
 ! R11   R(7,9)                  1.5491         estimate D2E/DX2                !
 ! R12   R(7,13)                 1.536          estimate D2E/DX2                !
 ! R13   R(9,10)                 1.5406         estimate D2E/DX2                !
 ! R14   R(9,19)                 1.1108         estimate D2E/DX2                !
 ! R15   R(9,20)                 1.1107         estimate D2E/DX2                !
 ! R16   R(10,11)                1.537          estimate D2E/DX2                !
 ! R17   R(10,21)                1.112          estimate D2E/DX2                !
 ! R18   R(10,22)                1.1129         estimate D2E/DX2                !
 ! R19   R(11,12)                1.544          estimate D2E/DX2                !
 ! R20   R(11,23)                1.1134         estimate D2E/DX2                !
 ! R21   R(11,24)                1.1118         estimate D2E/DX2                !
 ! R22   R(12,13)                1.5533         estimate D2E/DX2                !
 ! R23   R(12,25)                1.1121         estimate D2E/DX2                !
 ! R24   R(12,26)                1.1101         estimate D2E/DX2                !
 ! R25   R(13,14)                1.1153         estimate D2E/DX2                !
 ! R26   R(13,15)                1.4653         estimate D2E/DX2                !
 ! R27   R(15,16)                1.2927         estimate D2E/DX2                !
 ! R28   R(16,27)                1.1007         estimate D2E/DX2                !
 ! A1    A(1,2,3)              123.6649         estimate D2E/DX2                !
 ! A2    A(1,2,4)              117.6871         estimate D2E/DX2                !
 ! A3    A(3,2,4)              118.6234         estimate D2E/DX2                !
 ! A4    A(2,4,5)              116.3504         estimate D2E/DX2                !
 ! A5    A(2,4,16)             116.6036         estimate D2E/DX2                !
 ! A6    A(5,4,16)             126.3109         estimate D2E/DX2                !
 ! A7    A(4,5,6)              125.4607         estimate D2E/DX2                !
 ! A8    A(4,5,17)             118.2262         estimate D2E/DX2                !
 ! A9    A(6,5,17)             116.2836         estimate D2E/DX2                !
 ! A10   A(5,6,7)              128.8314         estimate D2E/DX2                !
 ! A11   A(5,6,18)             120.7048         estimate D2E/DX2                !
 ! A12   A(7,6,18)             107.0291         estimate D2E/DX2                !
 ! A13   A(6,7,8)              105.4166         estimate D2E/DX2                !
 ! A14   A(6,7,9)              115.0841         estimate D2E/DX2                !
 ! A15   A(6,7,13)             112.5451         estimate D2E/DX2                !
 ! A16   A(8,7,9)              106.1384         estimate D2E/DX2                !
 ! A17   A(8,7,13)             105.9692         estimate D2E/DX2                !
 ! A18   A(9,7,13)             110.8937         estimate D2E/DX2                !
 ! A19   A(7,9,10)             109.4123         estimate D2E/DX2                !
 ! A20   A(7,9,19)             110.1387         estimate D2E/DX2                !
 ! A21   A(7,9,20)             110.1436         estimate D2E/DX2                !
 ! A22   A(10,9,19)            109.9655         estimate D2E/DX2                !
 ! A23   A(10,9,20)            109.188          estimate D2E/DX2                !
 ! A24   A(19,9,20)            107.9714         estimate D2E/DX2                !
 ! A25   A(9,10,11)            111.1729         estimate D2E/DX2                !
 ! A26   A(9,10,21)            109.9419         estimate D2E/DX2                !
 ! A27   A(9,10,22)            109.1533         estimate D2E/DX2                !
 ! A28   A(11,10,21)           109.7855         estimate D2E/DX2                !
 ! A29   A(11,10,22)           108.7837         estimate D2E/DX2                !
 ! A30   A(21,10,22)           107.933          estimate D2E/DX2                !
 ! A31   A(10,11,12)           111.4223         estimate D2E/DX2                !
 ! A32   A(10,11,23)           108.9997         estimate D2E/DX2                !
 ! A33   A(10,11,24)           109.8557         estimate D2E/DX2                !
 ! A34   A(12,11,23)           109.2478         estimate D2E/DX2                !
 ! A35   A(12,11,24)           109.7403         estimate D2E/DX2                !
 ! A36   A(23,11,24)           107.4853         estimate D2E/DX2                !
 ! A37   A(11,12,13)           111.5191         estimate D2E/DX2                !
 ! A38   A(11,12,25)           109.2154         estimate D2E/DX2                !
 ! A39   A(11,12,26)           109.4997         estimate D2E/DX2                !
 ! A40   A(13,12,25)           109.2274         estimate D2E/DX2                !
 ! A41   A(13,12,26)           109.5516         estimate D2E/DX2                !
 ! A42   A(25,12,26)           107.7477         estimate D2E/DX2                !
 ! A43   A(7,13,12)            105.7504         estimate D2E/DX2                !
 ! A44   A(7,13,14)            110.8854         estimate D2E/DX2                !
 ! A45   A(7,13,15)            113.9997         estimate D2E/DX2                !
 ! A46   A(12,13,14)           107.8524         estimate D2E/DX2                !
 ! A47   A(12,13,15)           108.3715         estimate D2E/DX2                !
 ! A48   A(14,13,15)           109.7077         estimate D2E/DX2                !
 ! A49   A(13,15,16)           119.6364         estimate D2E/DX2                !
 ! A50   A(4,16,15)            129.0279         estimate D2E/DX2                !
 ! A51   A(4,16,27)            113.4432         estimate D2E/DX2                !
 ! A52   A(15,16,27)           117.5257         estimate D2E/DX2                !
 ! D1    D(1,2,4,5)            179.0662         estimate D2E/DX2                !
 ! D2    D(1,2,4,16)             8.2587         Frozen                          !
 ! D3    D(3,2,4,5)             -2.6698         estimate D2E/DX2                !
 ! D4    D(3,2,4,16)          -173.4773         estimate D2E/DX2                !
 ! D5    D(2,4,5,6)            164.7035         estimate D2E/DX2                !
 ! D6    D(2,4,5,17)           -17.3515         estimate D2E/DX2                !
 ! D7    D(16,4,5,6)           -25.5067         estimate D2E/DX2                !
 ! D8    D(16,4,5,17)          152.4383         Frozen                          !
 ! D9    D(2,4,16,15)         -158.4625         estimate D2E/DX2                !
 ! D10   D(2,4,16,27)           22.2121         estimate D2E/DX2                !
 ! D11   D(5,4,16,15)           31.7705         estimate D2E/DX2                !
 ! D12   D(5,4,16,27)         -147.555          estimate D2E/DX2                !
 ! D13   D(4,5,6,7)             16.8211         estimate D2E/DX2                !
 ! D14   D(4,5,6,18)           173.0636         estimate D2E/DX2                !
 ! D15   D(17,5,6,7)          -161.1595         estimate D2E/DX2                !
 ! D16   D(17,5,6,18)           -4.9171         estimate D2E/DX2                !
 ! D17   D(5,6,7,8)           -155.2472         estimate D2E/DX2                !
 ! D18   D(5,6,7,9)             88.1732         estimate D2E/DX2                !
 ! D19   D(5,6,7,13)           -40.1927         estimate D2E/DX2                !
 ! D20   D(18,6,7,8)            45.9926         estimate D2E/DX2                !
 ! D21   D(18,6,7,9)           -70.587          estimate D2E/DX2                !
 ! D22   D(18,6,7,13)          161.0471         estimate D2E/DX2                !
 ! D23   D(6,7,9,10)           168.8143         estimate D2E/DX2                !
 ! D24   D(6,7,9,19)           -70.1989         estimate D2E/DX2                !
 ! D25   D(6,7,9,20)            48.7847         estimate D2E/DX2                !
 ! D26   D(8,7,9,10)            52.6461         estimate D2E/DX2                !
 ! D27   D(8,7,9,19)           173.6328         estimate D2E/DX2                !
 ! D28   D(8,7,9,20)           -67.3835         estimate D2E/DX2                !
 ! D29   D(13,7,9,10)          -62.0008         estimate D2E/DX2                !
 ! D30   D(13,7,9,19)           58.9859         estimate D2E/DX2                !
 ! D31   D(13,7,9,20)          177.9696         estimate D2E/DX2                !
 ! D32   D(6,7,13,12)         -166.0285         estimate D2E/DX2                !
 ! D33   D(6,7,13,14)          -49.3783         estimate D2E/DX2                !
 ! D34   D(6,7,13,15)           75.0225         Frozen                          !
 ! D35   D(8,7,13,12)          -51.3086         estimate D2E/DX2                !
 ! D36   D(8,7,13,14)           65.3416         estimate D2E/DX2                !
 ! D37   D(8,7,13,15)         -170.2576         estimate D2E/DX2                !
 ! D38   D(9,7,13,12)           63.4442         estimate D2E/DX2                !
 ! D39   D(9,7,13,14)         -179.9056         estimate D2E/DX2                !
 ! D40   D(9,7,13,15)          -55.5048         estimate D2E/DX2                !
 ! D41   D(7,9,10,11)           54.8123         Frozen                          !
 ! D42   D(7,9,10,21)          176.5945         estimate D2E/DX2                !
 ! D43   D(7,9,10,22)          -65.1923         estimate D2E/DX2                !
 ! D44   D(19,9,10,11)         -66.2795         estimate D2E/DX2                !
 ! D45   D(19,9,10,21)          55.5027         estimate D2E/DX2                !
 ! D46   D(19,9,10,22)         173.7159         estimate D2E/DX2                !
 ! D47   D(20,9,10,11)         175.4259         estimate D2E/DX2                !
 ! D48   D(20,9,10,21)         -62.792          estimate D2E/DX2                !
 ! D49   D(20,9,10,22)          55.4213         estimate D2E/DX2                !
 ! D50   D(9,10,11,12)         -52.8223         Frozen                          !
 ! D51   D(9,10,11,23)          67.8159         estimate D2E/DX2                !
 ! D52   D(9,10,11,24)        -174.655          estimate D2E/DX2                !
 ! D53   D(21,10,11,12)       -174.6954         estimate D2E/DX2                !
 ! D54   D(21,10,11,23)        -54.0572         estimate D2E/DX2                !
 ! D55   D(21,10,11,24)         63.4719         estimate D2E/DX2                !
 ! D56   D(22,10,11,12)         67.4014         estimate D2E/DX2                !
 ! D57   D(22,10,11,23)       -171.9604         estimate D2E/DX2                !
 ! D58   D(22,10,11,24)        -54.4313         estimate D2E/DX2                !
 ! D59   D(10,11,12,13)         56.6766         estimate D2E/DX2                !
 ! D60   D(10,11,12,25)        177.4941         estimate D2E/DX2                !
 ! D61   D(10,11,12,26)        -64.7391         estimate D2E/DX2                !
 ! D62   D(23,11,12,13)        -63.8159         estimate D2E/DX2                !
 ! D63   D(23,11,12,25)         57.0016         estimate D2E/DX2                !
 ! D64   D(23,11,12,26)        174.7684         estimate D2E/DX2                !
 ! D65   D(24,11,12,13)        178.5761         estimate D2E/DX2                !
 ! D66   D(24,11,12,25)        -60.6064         estimate D2E/DX2                !
 ! D67   D(24,11,12,26)         57.1604         estimate D2E/DX2                !
 ! D68   D(11,12,13,7)         -60.4901         estimate D2E/DX2                !
 ! D69   D(11,12,13,14)       -179.1743         estimate D2E/DX2                !
 ! D70   D(11,12,13,15)         62.1227         estimate D2E/DX2                !
 ! D71   D(25,12,13,7)         178.6994         estimate D2E/DX2                !
 ! D72   D(25,12,13,14)         60.0153         estimate D2E/DX2                !
 ! D73   D(25,12,13,15)        -58.6877         estimate D2E/DX2                !
 ! D74   D(26,12,13,7)          60.8955         estimate D2E/DX2                !
 ! D75   D(26,12,13,14)        -57.7887         estimate D2E/DX2                !
 ! D76   D(26,12,13,15)       -176.4917         estimate D2E/DX2                !
 ! D77   D(7,13,15,16)         -67.1605         Frozen                          !
 ! D78   D(12,13,15,16)        175.3909         estimate D2E/DX2                !
 ! D79   D(14,13,15,16)         57.8689         estimate D2E/DX2                !
 ! D80   D(13,15,16,4)          11.1399         estimate D2E/DX2                !
 ! D81   D(13,15,16,27)       -169.558          estimate D2E/DX2                !
 --------------------------------------------------------------------------------
 Trust Radius=3.00D-01 FncErr=1.00D-07 GrdErr=1.00D-07 EigMax=2.50D+02 EigMin=1.00D-04
 Number of steps in this run=     20 maximum allowed number of steps=    162.
 GradGradGradGradGradGradGradGradGradGradGradGradGradGradGradGradGradGrad

                          Input orientation:                          
 ---------------------------------------------------------------------
 Center     Atomic      Atomic             Coordinates (Angstroms)
 Number     Number       Type             X           Y           Z
 ---------------------------------------------------------------------
      1          8           0       -3.636260   -1.422280   -0.174930
      2          7           0       -3.256650   -0.262920   -0.019210
      3          8           0       -4.019680    0.686840    0.162300
      4          6           0       -1.751290   -0.003910   -0.012010
      5          6           0       -1.351120    1.326680    0.146770
      6          7           0       -0.088060    1.742850    0.474130
      7          6           0        1.195500    0.982680    0.405590
      8          1           0        1.871900    1.471960    1.153640
      9          6           0        1.931900    1.058630   -0.955180
     10          6           0        3.350790    0.478040   -0.802660
     11          6           0        3.308730   -0.946940   -0.228230
     12          6           0        2.486540   -1.004620    1.077320
     13          6           0        1.041880   -0.475060    0.864720
     14          1           0        0.510180   -0.529680    1.843610
     15          7           0        0.371920   -1.339590   -0.110420
     16          6           0       -0.877120   -1.147890   -0.382780
     17          1           0       -2.095090    2.120150   -0.034240
     18          1           0        0.151990    2.737090    0.468950
     19          1           0        1.370160    0.489700   -1.726300
     20          1           0        2.003790    2.114330   -1.292790
     21          1           0        3.865890    0.471570   -1.788150
     22          1           0        3.937940    1.125100   -0.113350
     23          1           0        2.850710   -1.627790   -0.980830
     24          1           0        4.342890   -1.307700   -0.037000
     25          1           0        2.442010   -2.056450    1.435650
     26          1           0        2.991840   -0.401450    1.860420
     27          1           0       -1.391300   -1.916340   -0.980050
 ---------------------------------------------------------------------
                    Distance matrix (angstroms):
                    1          2          3          4          5
     1  O    0.000000
     2  N    1.229824   0.000000
     3  O    2.170051   1.231749   0.000000
     4  C    2.364620   1.527497   2.377628   0.000000
     5  C    3.589169   2.487051   2.744239   1.398505   0.000000
     6  N    4.798859   3.782388   4.082895   2.460455   1.369556
     7  C    5.428328   4.642587   5.229227   3.135494   2.582750
     8  H    6.362511   5.539622   6.025768   4.082210   3.379756
     9  C    6.145576   5.435401   6.066984   3.947714   3.473379
    10  C    7.268021   6.694855   7.436301   5.185424   4.871300
    11  C    6.961442   6.604225   7.518467   5.151685   5.198478
    12  C    6.263485   5.893787   6.784482   4.488570   4.585686
    13  C    4.884986   4.393597   5.240496   2.965204   3.080287
    14  H    4.697255   4.210732   4.982605   2.972206   3.128862
    15  N    4.009552   3.786035   4.844269   2.510328   3.184966
    16  C    2.780530   2.564667   3.679542   1.486719   2.574606
    17  H    3.865722   2.651126   2.407707   2.151819   1.102656
    18  H    5.662665   4.566967   4.658368   3.371480   2.086240
    19  H    5.579127   4.988784   5.714547   3.595260   3.407975
    20  H    6.750362   5.911476   6.359026   4.497551   3.734722
    21  H    7.903885   7.375581   8.126058   5.910454   5.629593
    22  H    7.991335   7.327864   7.974445   5.801058   5.299288
    23  H    6.540068   6.331463   7.339381   4.975339   5.258873
    24  H    7.981165   7.671042   8.599447   6.232136   6.276582
    25  H    6.319929   6.148829   7.134458   4.887986   5.243531
    26  H    7.008313   6.526548   7.295848   5.114813   4.978386
    27  H    2.435602   2.671431   3.871678   2.173496   3.433441
                    6          7          8          9         10
     6  N    0.000000
     7  C    1.493346   0.000000
     8  H    2.092023   1.120933   0.000000
     9  C    2.567357   1.549112   2.149782   0.000000
    10  C    3.880158   2.521865   2.646149   1.540648   0.000000
    11  C    4.389358   2.931024   3.134505   2.538982   1.536980
    12  C    3.813266   2.463203   2.552852   2.948844   2.545493
    13  C    2.519613   1.536036   2.136187   2.540940   3.003268
    14  H    2.719882   2.196542   2.517321   3.518130   4.010899
    15  N    3.170917   2.517437   3.428207   2.983055   3.557617
    16  C    3.116615   3.075160   4.096500   3.617591   4.549194
    17  H    2.104511   3.509312   4.191446   4.265162   5.739739
    18  H    1.022822   2.042274   2.242196   2.830804   4.117356
    19  H    2.922102   2.195106   3.083931   1.110792   2.185439
    20  H    2.763302   2.195099   2.532796   1.110699   2.175335
    21  H    4.729459   3.493524   3.692006   2.186046   1.112007
    22  H    4.115267   2.794738   2.448284   2.176532   1.112915
    23  H    4.702605   3.387689   3.888763   2.839317   2.171715
    24  H    5.403742   3.917626   3.905115   3.500778   2.181597
    25  H    4.664810   3.442546   3.585280   3.959798   3.501364
    26  H    4.000701   2.694287   2.294225   3.344086   2.827427
    27  H    4.147619   4.125027   5.165432   4.460350   5.315255
                   11         12         13         14         15
    11  C    0.000000
    12  C    1.543951   0.000000
    13  C    2.560433   1.553279   0.000000
    14  H    3.506923   2.172272   1.115309   0.000000
    15  N    2.965283   2.448377   1.465318   2.119741   0.000000
    16  C    4.193520   3.669690   2.385690   2.695106   1.292683
    17  H    6.216586   5.656066   4.169391   4.163574   4.249911
    18  H    4.901341   4.452037   3.356553   3.562271   4.123513
    19  H    2.840106   3.367430   2.784226   3.810900   2.637016
    20  H    3.493928   3.946938   3.505005   4.365623   3.998820
    21  H    2.180814   3.506089   3.988591   5.045094   4.278189
    22  H    2.168514   2.839008   3.450260   4.279898   4.334882
    23  H    1.113439   2.181042   2.829613   3.829019   2.642929
    24  H    1.111847   2.186230   3.521797   4.339548   3.971777
    25  H    2.179613   1.112083   2.187949   2.495882   2.681323
    26  H    2.181843   1.110130   2.190703   2.485028   3.410029
    27  H    4.857494   4.483486   3.376511   3.675800   2.048864
                   16         17         18         19         20
    16  C    0.000000
    17  H    3.504999   0.000000
    18  H    4.108233   2.383943   0.000000
    19  H    3.088206   4.186812   3.369543   0.000000
    20  H    4.446329   4.287750   2.630726   1.796897   0.000000
    21  H    5.205176   6.428631   4.901034   2.496562   2.532086
    22  H    5.331405   6.115050   4.155840   3.098199   2.471961
    23  H    3.805875   6.277263   5.332647   2.689148   3.849423
    24  H    5.233890   7.293679   5.846362   3.862836   4.331130
    25  H    3.892145   6.339546   5.399697   4.198770   5.003182
    26  H    4.534090   5.985404   4.455488   4.035908   4.153086
    27  H    1.100740   4.205131   5.112314   3.737858   5.279275
                   21         22         23         24         25
    21  H    0.000000
    22  H    1.799235   0.000000
    23  H    2.467725   3.084314   0.000000
    24  H    2.541625   2.467454   1.794401   0.000000
    25  H    4.337189   3.841805   2.488003   2.518466   0.000000
    26  H    3.852037   2.668563   3.097827   2.499365   1.794928
    27  H    5.830368   6.196961   4.251813   5.843006   4.533156
                   26         27
    26  H    0.000000
    27  H    5.438297   0.000000
 Symmetry turned off by external request.
 Stoichiometry    C9H13N3O2
 Framework group  C1[X(C9H13N3O2)]
 Deg. of freedom    75
 Full point group                 C1      NOp   1
 Rotational constants (GHZ):           1.6711206           0.4013480           0.3557210
 Standard basis: 6-31G(d) (6D, 7F)
   236 basis functions,   444 primitive gaussians,   236 cartesian basis functions
    52 alpha electrons       52 beta electrons
       nuclear repulsion energy       917.6810210666 Hartrees.
 NAtoms=   27 NActive=   27 NUniq=   27 SFac= 1.00D+00 NAtFMM=   60 NAOKFM=F Big=F
 Integral buffers will be    131072 words long.
 Raffenetti 1 integral format.
 Two-electron integral symmetry is turned off.
 One-electron integrals computed using PRISM.
 NBasis=   236 RedAO= T EigKep=  1.33D-03  NBF=   236
 NBsUse=   236 1.00D-06 EigRej= -1.00D+00 NBFU=   236
 ExpMin= 1.61D-01 ExpMax= 5.48D+03 ExpMxC= 8.25D+02 IAcc=3 IRadAn=         5 AccDes= 0.00D+00
 Harris functional with IExCor=  205 and IRadAn=       5 diagonalized for initial guess.
 HarFok:  IExCor=  205 AccDes= 0.00D+00 IRadAn=         5 IDoV= 1 UseB2=F ITyADJ=14
 ICtDFT=  3500011 ScaDFX=  1.000000  1.000000  1.000000  1.000000
 FoFCou: FMM=F IPFlag=           0 FMFlag=      100000 FMFlg1=           0
         NFxFlg=           0 DoJE=T BraDBF=F KetDBF=T FulRan=T
         wScrn=  0.000000 ICntrl=       500 IOpCl=  0 I1Cent=   200000004 NGrid=           0
         NMat0=    1 NMatS0=      1 NMatT0=    0 NMatD0=    1 NMtDS0=    0 NMtDT0=    0
 Symmetry not used in FoFCou.
 Keep R1 ints in memory in canonical form, NReq=397720213.
 Requested convergence on RMS density matrix=1.00D-08 within 128 cycles.
 Requested convergence on MAX density matrix=1.00D-06.
 Requested convergence on             energy=1.00D-06.
 No special actions if energy rises.
 SCF Done:  E(RHF) =  -661.277623591     A.U. after   16 cycles
            NFock= 16  Conv=0.49D-08     -V/T= 2.0037
 ExpMin= 1.61D-01 ExpMax= 5.48D+03 ExpMxC= 8.25D+02 IAcc=3 IRadAn=         5 AccDes= 0.00D+00
 HarFok:  IExCor=  205 AccDes= 0.00D+00 IRadAn=         5 IDoV=-2 UseB2=F ITyADJ=14
 ICtDFT= 12500011 ScaDFX=  1.000000  1.000000  1.000000  1.000000
 Range of M.O.s used for correlation:    15   236
 NBasis=   236 NAE=    52 NBE=    52 NFC=    14 NFV=     0
 NROrb=    222 NOA=    38 NOB=    38 NVA=   184 NVB=   184
 Fully direct method using O(ONN) memory.
 JobTyp=1 Pass  1:  I=  15 to  52 NPSUse=  4 ParTrn=T ParDer=T DoDerP=T.
 Spin components of T(2) and E(2):
     alpha-alpha T2 =       0.9207187809D-01 E2=     -0.2719223844D+00
     alpha-beta  T2 =       0.4996304251D+00 E2=     -0.1493840856D+01
     beta-beta   T2 =       0.9207187809D-01 E2=     -0.2719223844D+00
 ANorm=    0.1297603245D+01
 E2 =    -0.2037685625D+01 EUMP2 =    -0.66331530921632D+03
          IDoAtm=111111111111111111111111111
          Differentiating once with respect to electric field.
                with respect to dipole field.
          Differentiating once with respect to nuclear coordinates.
 Keep R1 ints in memory in canonical form, NReq=397723379.
          There are     1 degrees of freedom in the 1st order CPHF.  IDoFFX=0 NUNeed=     1.
 LinEq1:  Iter=  0 NonCon=     1 RMS=4.65D-03 Max=1.19D-01 NDo=     1
 AX will form     1 AO Fock derivatives at one time.
 LinEq1:  Iter=  1 NonCon=     1 RMS=1.58D-03 Max=3.09D-02 NDo=     1
 LinEq1:  Iter=  2 NonCon=     1 RMS=6.46D-04 Max=1.90D-02 NDo=     1
 LinEq1:  Iter=  3 NonCon=     1 RMS=2.98D-04 Max=1.04D-02 NDo=     1
 LinEq1:  Iter=  4 NonCon=     1 RMS=9.17D-05 Max=2.29D-03 NDo=     1
 LinEq1:  Iter=  5 NonCon=     1 RMS=3.82D-05 Max=1.94D-03 NDo=     1
 LinEq1:  Iter=  6 NonCon=     1 RMS=1.54D-05 Max=5.36D-04 NDo=     1
 LinEq1:  Iter=  7 NonCon=     1 RMS=5.93D-06 Max=9.06D-05 NDo=     1
 LinEq1:  Iter=  8 NonCon=     1 RMS=2.31D-06 Max=5.36D-05 NDo=     1
 LinEq1:  Iter=  9 NonCon=     1 RMS=8.38D-07 Max=2.34D-05 NDo=     1
 LinEq1:  Iter= 10 NonCon=     1 RMS=4.08D-07 Max=1.42D-05 NDo=     1
 LinEq1:  Iter= 11 NonCon=     1 RMS=1.52D-07 Max=5.61D-06 NDo=     1
 LinEq1:  Iter= 12 NonCon=     1 RMS=5.45D-08 Max=8.44D-07 NDo=     1
 LinEq1:  Iter= 13 NonCon=     1 RMS=1.76D-08 Max=2.98D-07 NDo=     1
 LinEq1:  Iter= 14 NonCon=     1 RMS=5.55D-09 Max=1.20D-07 NDo=     1
 LinEq1:  Iter= 15 NonCon=     1 RMS=2.03D-09 Max=5.65D-08 NDo=     1
 LinEq1:  Iter= 16 NonCon=     1 RMS=7.14D-10 Max=9.95D-09 NDo=     1
 LinEq1:  Iter= 17 NonCon=     1 RMS=2.31D-10 Max=3.75D-09 NDo=     1
 LinEq1:  Iter= 18 NonCon=     0 RMS=7.85D-11 Max=7.80D-10 NDo=     1
 Linear equations converged to 1.000D-10 1.000D-09 after    18 iterations.
 End of Minotr F.D. properties file   721 does not exist.
 End of Minotr F.D. properties file   722 does not exist.
 End of Minotr F.D. properties file   788 does not exist.

 **********************************************************************

            Population analysis using the SCF Density.

 **********************************************************************

 Alpha  occ. eigenvalues --  -20.59545 -20.59164 -15.85055 -15.63994 -15.56376
 Alpha  occ. eigenvalues --  -11.36189 -11.30424 -11.30265 -11.29749 -11.27545
 Alpha  occ. eigenvalues --  -11.24769 -11.23964 -11.23328 -11.22849  -1.58246
 Alpha  occ. eigenvalues --   -1.37752  -1.28999  -1.22574  -1.13327  -1.08376
 Alpha  occ. eigenvalues --   -1.01792  -1.00712  -0.93690  -0.88882  -0.84987
 Alpha  occ. eigenvalues --   -0.81540  -0.77876  -0.77021  -0.74296  -0.71511
 Alpha  occ. eigenvalues --   -0.70035  -0.69629  -0.67251  -0.64378  -0.63337
 Alpha  occ. eigenvalues --   -0.62488  -0.59687  -0.56866  -0.56789  -0.54772
 Alpha  occ. eigenvalues --   -0.54374  -0.50536  -0.49640  -0.48311  -0.47913
 Alpha  occ. eigenvalues --   -0.47536  -0.46241  -0.45628  -0.43834  -0.41876
 Alpha  occ. eigenvalues --   -0.39604  -0.33545
 Alpha virt. eigenvalues --    0.07486   0.12026   0.17283   0.20927   0.22741
 Alpha virt. eigenvalues --    0.24201   0.26891   0.28079   0.28440   0.28790
 Alpha virt. eigenvalues --    0.29943   0.31116   0.31774   0.32348   0.33254
 Alpha virt. eigenvalues --    0.33858   0.34529   0.35762   0.37466   0.38755
 Alpha virt. eigenvalues --    0.40284   0.41543   0.44208   0.45144   0.45487
 Alpha virt. eigenvalues --    0.46996   0.49767   0.52893   0.56634   0.58807
 Alpha virt. eigenvalues --    0.63468   0.68713   0.69238   0.72337   0.74044
 Alpha virt. eigenvalues --    0.74983   0.75720   0.75939   0.78207   0.78450
 Alpha virt. eigenvalues --    0.80335   0.84095   0.84504   0.85681   0.87305
 Alpha virt. eigenvalues --    0.88583   0.90501   0.90821   0.92022   0.93966
 Alpha virt. eigenvalues --    0.94773   0.97515   0.98716   1.00383   1.02038
 Alpha virt. eigenvalues --    1.02811   1.04920   1.05578   1.06838   1.08403
 Alpha virt. eigenvalues --    1.09516   1.10467   1.11548   1.12315   1.13112
 Alpha virt. eigenvalues --    1.13583   1.13860   1.15214   1.15800   1.17096
 Alpha virt. eigenvalues --    1.17503   1.19123   1.19860   1.21651   1.22533
 Alpha virt. eigenvalues --    1.24307   1.25016   1.25649   1.26331   1.27669
 Alpha virt. eigenvalues --    1.29891   1.31346   1.34111   1.36977   1.39717
 Alpha virt. eigenvalues --    1.41246   1.44466   1.48398   1.49759   1.51837
 Alpha virt. eigenvalues --    1.55535   1.58007   1.59907   1.61580   1.67721
 Alpha virt. eigenvalues --    1.68363   1.69103   1.71338   1.74613   1.76330
 Alpha virt. eigenvalues --    1.78787   1.81272   1.85975   1.87349   1.91514
 Alpha virt. eigenvalues --    1.94024   1.95482   1.97902   1.99337   1.99498
 Alpha virt. eigenvalues --    2.02878   2.03840   2.06898   2.09245   2.11885
 Alpha virt. eigenvalues --    2.12221   2.13037   2.17413   2.18502   2.19360
 Alpha virt. eigenvalues --    2.20945   2.22645   2.23927   2.25597   2.26369
 Alpha virt. eigenvalues --    2.29986   2.31860   2.32838   2.35282   2.35958
 Alpha virt. eigenvalues --    2.39592   2.40386   2.42226   2.43991   2.46782
 Alpha virt. eigenvalues --    2.48460   2.50027   2.50737   2.55985   2.58351
 Alpha virt. eigenvalues --    2.60579   2.63265   2.66352   2.68047   2.69103
 Alpha virt. eigenvalues --    2.70047   2.70676   2.74561   2.77279   2.81458
 Alpha virt. eigenvalues --    2.83821   2.85774   2.90798   2.91210   2.94731
 Alpha virt. eigenvalues --    2.97128   2.98361   3.01940   3.04372   3.05698
 Alpha virt. eigenvalues --    3.07780   3.14216   3.17762   3.22771   3.27054
 Alpha virt. eigenvalues --    3.32194   3.34273   3.37641   3.42997   3.58782
 Alpha virt. eigenvalues --    4.10352   4.23880   4.31317   4.34691   4.43338
 Alpha virt. eigenvalues --    4.52351   4.59580   4.61343   4.70338   4.78154
 Alpha virt. eigenvalues --    4.95170   4.99257   5.02467   5.10470
          Condensed to atoms (all electrons):
               1          2          3          4          5          6
     1  O    8.303371   0.312065  -0.089194  -0.079562   0.003651  -0.000011
     2  N    0.312065   5.681775   0.309756   0.267140  -0.046569   0.000963
     3  O   -0.089194   0.309756   8.333135  -0.088081   0.008337   0.000380
     4  C   -0.079562   0.267140  -0.088081   5.259191   0.566562  -0.053531
     5  C    0.003651  -0.046569   0.008337   0.566562   4.671810   0.310013
     6  N   -0.000011   0.000963   0.000380  -0.053531   0.310013   7.161397
     7  C    0.000003  -0.000083   0.000003   0.004522  -0.028243   0.204810
     8  H   -0.000000   0.000001  -0.000000  -0.000297   0.003457  -0.046556
     9  C   -0.000000  -0.000002   0.000000   0.000719  -0.000460  -0.057405
    10  C   -0.000000   0.000000  -0.000000  -0.000030  -0.000002   0.003350
    11  C   -0.000000  -0.000000  -0.000000  -0.000012   0.000014  -0.000158
    12  C   -0.000000   0.000001  -0.000000  -0.000136  -0.000222   0.003688
    13  C   -0.000019  -0.000022  -0.000003  -0.009773   0.000231  -0.049179
    14  H   -0.000001  -0.000079   0.000000   0.002758   0.003151  -0.005191
    15  N    0.000221   0.001699  -0.000012  -0.063423  -0.003599   0.001313
    16  C    0.002899  -0.026969   0.002136   0.317604  -0.042757  -0.000674
    17  H    0.000117  -0.004842   0.011149  -0.024856   0.373987  -0.033758
    18  H    0.000000  -0.000037   0.000006   0.001700  -0.024917   0.329220
    19  H    0.000000  -0.000002   0.000000  -0.000970   0.001285   0.000093
    20  H    0.000000  -0.000000   0.000000  -0.000020   0.000068  -0.000830
    21  H   -0.000000   0.000000  -0.000000   0.000001   0.000000  -0.000062
    22  H   -0.000000   0.000000  -0.000000  -0.000000  -0.000001  -0.000089
    23  H    0.000000  -0.000000   0.000000   0.000024  -0.000001  -0.000024
    24  H    0.000000   0.000000   0.000000   0.000000  -0.000000   0.000005
    25  H    0.000000  -0.000000   0.000000   0.000017   0.000002  -0.000073
    26  H    0.000000  -0.000000   0.000000   0.000005   0.000001  -0.000069
    27  H    0.005986  -0.000550   0.000030  -0.067032   0.001632   0.000027
               7          8          9         10         11         12
     1  O    0.000003  -0.000000  -0.000000  -0.000000  -0.000000  -0.000000
     2  N   -0.000083   0.000001  -0.000002   0.000000  -0.000000   0.000001
     3  O    0.000003  -0.000000   0.000000  -0.000000  -0.000000  -0.000000
     4  C    0.004522  -0.000297   0.000719  -0.000030  -0.000012  -0.000136
     5  C   -0.028243   0.003457  -0.000460  -0.000002   0.000014  -0.000222
     6  N    0.204810  -0.046556  -0.057405   0.003350  -0.000158   0.003688
     7  C    5.030390   0.413673   0.342784  -0.049186  -0.007954  -0.064650
     8  H    0.413673   0.542600  -0.058478   0.001124  -0.000301  -0.003006
     9  C    0.342784  -0.058478   5.177825   0.318710  -0.053244  -0.005798
    10  C   -0.049186   0.001124   0.318710   5.126287   0.332564  -0.060396
    11  C   -0.007954  -0.000301  -0.053244   0.332564   5.124677   0.330278
    12  C   -0.064650  -0.003006  -0.005798  -0.060396   0.330278   5.138809
    13  C    0.324534  -0.038604  -0.054741  -0.000994  -0.047718   0.368159
    14  H   -0.040468  -0.001069   0.003845  -0.000393   0.003985  -0.040868
    15  N   -0.057577   0.003816  -0.011777   0.001240  -0.007615  -0.074422
    16  C   -0.002822   0.000050  -0.000852  -0.000026  -0.000010   0.002436
    17  H    0.001426  -0.000032  -0.000094   0.000001   0.000000   0.000001
    18  H   -0.029606  -0.003466   0.000686  -0.000095   0.000009  -0.000146
    19  H   -0.035718   0.004015   0.387102  -0.032670  -0.002200   0.000575
    20  H   -0.042279  -0.001857   0.397073  -0.037010   0.004126  -0.000378
    21  H    0.004070  -0.000076  -0.035796   0.399986  -0.035756   0.004226
    22  H   -0.004374   0.003531  -0.045820   0.396030  -0.045576  -0.001212
    23  H    0.000446   0.000034  -0.002023  -0.040089   0.396613  -0.036509
    24  H   -0.000149  -0.000105   0.004425  -0.038562   0.400258  -0.037873
    25  H    0.005077  -0.000006  -0.000382   0.004108  -0.033793   0.395148
    26  H   -0.004486   0.001538   0.001099  -0.002453  -0.042524   0.394588
    27  H   -0.000401   0.000009  -0.000064   0.000005   0.000005  -0.000023
              13         14         15         16         17         18
     1  O   -0.000019  -0.000001   0.000221   0.002899   0.000117   0.000000
     2  N   -0.000022  -0.000079   0.001699  -0.026969  -0.004842  -0.000037
     3  O   -0.000003   0.000000  -0.000012   0.002136   0.011149   0.000006
     4  C   -0.009773   0.002758  -0.063423   0.317604  -0.024856   0.001700
     5  C    0.000231   0.003151  -0.003599  -0.042757   0.373987  -0.024917
     6  N   -0.049179  -0.005191   0.001313  -0.000674  -0.033758   0.329220
     7  C    0.324534  -0.040468  -0.057577  -0.002822   0.001426  -0.029606
     8  H   -0.038604  -0.001069   0.003816   0.000050  -0.000032  -0.003466
     9  C   -0.054741   0.003845  -0.011777  -0.000852  -0.000094   0.000686
    10  C   -0.000994  -0.000393   0.001240  -0.000026   0.000001  -0.000095
    11  C   -0.047718   0.003985  -0.007615  -0.000010   0.000000   0.000009
    12  C    0.368159  -0.040868  -0.074422   0.002436   0.000001  -0.000146
    13  C    5.020192   0.404539   0.243994  -0.069397  -0.000010   0.003863
    14  H    0.404539   0.516183  -0.035621  -0.004481   0.000044  -0.000036
    15  N    0.243994  -0.035621   6.945822   0.586704  -0.000051  -0.000128
    16  C   -0.069397  -0.004481   0.586704   4.704841   0.001929  -0.000201
    17  H   -0.000010   0.000044  -0.000051   0.001929   0.389730  -0.002082
    18  H    0.003863  -0.000036  -0.000128  -0.000201  -0.002082   0.326045
    19  H   -0.005787   0.000064   0.006548   0.002628   0.000015  -0.000113
    20  H    0.003922  -0.000051   0.000074  -0.000034  -0.000002   0.002276
    21  H   -0.000410   0.000008  -0.000035   0.000002  -0.000000  -0.000000
    22  H    0.000327  -0.000043   0.000002  -0.000001  -0.000000   0.000003
    23  H   -0.005908   0.000010   0.006937   0.000049   0.000000   0.000000
    24  H    0.004152  -0.000058   0.000042   0.000005   0.000000  -0.000000
    25  H   -0.034172  -0.002713   0.000928  -0.000052  -0.000000   0.000003
    26  H   -0.045092  -0.000882   0.004194  -0.000051   0.000000  -0.000001
    27  H    0.004875  -0.000176  -0.039457   0.402978  -0.000076   0.000001
              19         20         21         22         23         24
     1  O    0.000000   0.000000  -0.000000  -0.000000   0.000000   0.000000
     2  N   -0.000002  -0.000000   0.000000   0.000000  -0.000000   0.000000
     3  O    0.000000   0.000000  -0.000000  -0.000000   0.000000   0.000000
     4  C   -0.000970  -0.000020   0.000001  -0.000000   0.000024   0.000000
     5  C    0.001285   0.000068   0.000000  -0.000001  -0.000001  -0.000000
     6  N    0.000093  -0.000830  -0.000062  -0.000089  -0.000024   0.000005
     7  C   -0.035718  -0.042279   0.004070  -0.004374   0.000446  -0.000149
     8  H    0.004015  -0.001857  -0.000076   0.003531   0.000034  -0.000105
     9  C    0.387102   0.397073  -0.035796  -0.045820  -0.002023   0.004425
    10  C   -0.032670  -0.037010   0.399986   0.396030  -0.040089  -0.038562
    11  C   -0.002200   0.004126  -0.035756  -0.045576   0.396613   0.400258
    12  C    0.000575  -0.000378   0.004226  -0.001212  -0.036509  -0.037873
    13  C   -0.005787   0.003922  -0.000410   0.000327  -0.005908   0.004152
    14  H    0.000064  -0.000051   0.000008  -0.000043   0.000010  -0.000058
    15  N    0.006548   0.000074  -0.000035   0.000002   0.006937   0.000042
    16  C    0.002628  -0.000034   0.000002  -0.000001   0.000049   0.000005
    17  H    0.000015  -0.000002  -0.000000  -0.000000   0.000000   0.000000
    18  H   -0.000113   0.002276  -0.000000   0.000003   0.000000  -0.000000
    19  H    0.507093  -0.024044  -0.002602   0.003763   0.001654  -0.000072
    20  H   -0.024044   0.549009  -0.002660  -0.002959  -0.000049  -0.000090
    21  H   -0.002602  -0.002660   0.525698  -0.024680  -0.002803  -0.002073
    22  H    0.003763  -0.002959  -0.024680   0.569002   0.004057  -0.003594
    23  H    0.001654  -0.000049  -0.002803   0.004057   0.509010  -0.024972
    24  H   -0.000072  -0.000090  -0.002073  -0.003594  -0.024972   0.541295
    25  H   -0.000028   0.000011  -0.000086  -0.000083  -0.002083  -0.002404
    26  H    0.000022  -0.000035  -0.000073   0.002468   0.003828  -0.002757
    27  H    0.000079   0.000000  -0.000000   0.000000  -0.000022  -0.000000
              25         26         27
     1  O    0.000000   0.000000   0.005986
     2  N   -0.000000  -0.000000  -0.000550
     3  O    0.000000   0.000000   0.000030
     4  C    0.000017   0.000005  -0.067032
     5  C    0.000002   0.000001   0.001632
     6  N   -0.000073  -0.000069   0.000027
     7  C    0.005077  -0.004486  -0.000401
     8  H   -0.000006   0.001538   0.000009
     9  C   -0.000382   0.001099  -0.000064
    10  C    0.004108  -0.002453   0.000005
    11  C   -0.033793  -0.042524   0.000005
    12  C    0.395148   0.394588  -0.000023
    13  C   -0.034172  -0.045092   0.004875
    14  H   -0.002713  -0.000882  -0.000176
    15  N    0.000928   0.004194  -0.039457
    16  C   -0.000052  -0.000051   0.402978
    17  H   -0.000000   0.000000  -0.000076
    18  H    0.000003  -0.000001   0.000001
    19  H   -0.000028   0.000022   0.000079
    20  H    0.000011  -0.000035   0.000000
    21  H   -0.000086  -0.000073  -0.000000
    22  H   -0.000083   0.002468   0.000000
    23  H   -0.002083   0.003828  -0.000022
    24  H   -0.002404  -0.002757  -0.000000
    25  H    0.509708  -0.023133  -0.000011
    26  H   -0.023133   0.562961   0.000001
    27  H   -0.000011   0.000001   0.448534
 Mulliken charges:
               1
     1  O   -0.459526
     2  N    0.505756
     3  O   -0.487641
     4  C   -0.032518
     5  C    0.202570
     6  N   -0.767649
     7  C    0.036260
     8  H    0.180005
     9  C   -0.307330
    10  C   -0.321497
    11  C   -0.315668
    12  C   -0.312270
    13  C   -0.016958
    14  H    0.197543
    15  N   -0.509815
    16  C    0.124069
    17  H    0.287407
    18  H    0.397017
    19  H    0.189270
    20  H    0.155741
    21  H    0.173121
    22  H    0.149250
    23  H    0.191822
    24  H    0.162526
    25  H    0.184016
    26  H    0.150853
    27  H    0.243647
 Sum of Mulliken charges =  -0.00000
 Mulliken charges with hydrogens summed into heavy atoms:
               1
     1  O   -0.459526
     2  N    0.505756
     3  O   -0.487641
     4  C   -0.032518
     5  C    0.489976
     6  N   -0.370632
     7  C    0.216265
     9  C    0.037680
    10  C    0.000873
    11  C    0.038681
    12  C    0.022599
    13  C    0.180585
    15  N   -0.509815
    16  C    0.367716
 Electronic spatial extent (au):  <R**2>=           3121.2208
 Charge=             -0.0000 electrons
 Dipole moment (field-independent basis, Debye):
    X=              5.5366    Y=              4.7405    Z=              0.1754  Tot=              7.2909
 Quadrupole moment (field-independent basis, Debye-Ang):
   XX=           -106.0398   YY=            -79.6371   ZZ=            -82.4556
   XY=             -1.6911   XZ=              2.3753   YZ=             -0.2338
 Traceless Quadrupole moment (field-independent basis, Debye-Ang):
   XX=            -16.6623   YY=              9.7404   ZZ=              6.9219
   XY=             -1.6911   XZ=              2.3753   YZ=             -0.2338
 Octapole moment (field-independent basis, Debye-Ang**2):
  XXX=            103.8333  YYY=             38.0817  ZZZ=             -7.8588  XYY=             -1.9683
  XXY=             11.4646  XXZ=             -4.3769  XZZ=             -7.1755  YZZ=             -2.3923
  YYZ=              0.4364  XYZ=              1.6522
 Hexadecapole moment (field-independent basis, Debye-Ang**3):
 XXXX=          -3558.0008 YYYY=           -619.7380 ZZZZ=           -297.8529 XXXY=            -35.8831
 XXXZ=             31.9309 YYYX=            -16.8609 YYYZ=             18.1522 ZZZX=             19.1102
 ZZZY=             10.4580 XXYY=           -655.9661 XXZZ=           -543.6661 YYZZ=           -164.0896
 XXYZ=             -2.5856 YYXZ=             15.7894 ZZXY=              4.7337
 N-N= 9.176810210666D+02 E-N=-3.381404640950D+03  KE= 6.588686643974D+02
 Calling FoFJK, ICntrl=  10002127 FMM=F ISym2X=0 I1Cent= 0 IOpClX= 0 NMat=1 NMatS=1 NMatT=0.
 -------------------------------------------------------------------
 Center     Atomic                   Forces (Hartrees/Bohr)
 Number     Number              X              Y              Z
 -------------------------------------------------------------------
      1        8           0.001973727   -0.019103494   -0.002764837
      2        7           0.040447861    0.013451086   -0.006456251
      3        8          -0.004857971    0.016591418    0.002440192
      4        6          -0.006119460    0.005014016   -0.000871369
      5        6           0.004978640   -0.014780827   -0.002008935
      6        7           0.015571733   -0.003419783   -0.013872056
      7        6          -0.004668980    0.003564800    0.007443091
      8        1          -0.011281744   -0.001868437   -0.007538561
      9        6          -0.004617324    0.001290085   -0.002698431
     10        6           0.002677034   -0.001231173    0.001171127
     11        6          -0.000893437   -0.004625530   -0.002303902
     12        6           0.000645364   -0.008924430   -0.003209453
     13        6           0.009019113   -0.003604107    0.004292593
     14        1           0.001268201    0.004366752   -0.010035151
     15        7           0.000609367   -0.001059053    0.002849160
     16        6          -0.017942890    0.008128064    0.008791995
     17        1           0.004945443   -0.007078616    0.013437907
     18        1          -0.017433646   -0.002356674   -0.003268467
     19        1           0.003153118    0.005663819    0.007677867
     20        1          -0.003151259   -0.007595112    0.002611284
     21        1          -0.004239539    0.002326030    0.009690122
     22        1          -0.004123827   -0.003843709   -0.007339044
     23        1           0.004067283    0.006024704    0.009331879
     24        1          -0.009400787    0.002601649   -0.001942709
     25        1          -0.000899386    0.010631182   -0.002315816
     26        1          -0.004756070   -0.004691163   -0.004275359
     27        1           0.005029435    0.004528502    0.001163121
 -------------------------------------------------------------------
 Cartesian Forces:  Max     0.040447861 RMS     0.008508310

 GradGradGradGradGradGradGradGradGradGradGradGradGradGradGradGradGradGrad
 Berny optimization.
 FormGI is forming the generalized inverse of G from B-inverse, IUseBI=4.
 Internal  Forces:  Max     0.038842146 RMS     0.006947685
 Search for a local minimum.
 Step number   1 out of a maximum of   20
 All quantities printed in internal units (Hartrees-Bohrs-Radians)
 Mixed Optimization -- RFO/linear search
 Second derivative matrix not updated -- first step.
 ITU=  0
     Eigenvalues ---    0.00233   0.00774   0.01144   0.01208   0.01261
     Eigenvalues ---    0.01503   0.01541   0.01640   0.02007   0.02093
     Eigenvalues ---    0.02687   0.03678   0.04506   0.04698   0.04834
     Eigenvalues ---    0.05068   0.05138   0.05304   0.05861   0.06244
     Eigenvalues ---    0.07182   0.07693   0.07708   0.07829   0.07992
     Eigenvalues ---    0.08042   0.08050   0.10448   0.11710   0.12240
     Eigenvalues ---    0.13034   0.14645   0.15180   0.15992   0.16000
     Eigenvalues ---    0.19830   0.22076   0.22605   0.24700   0.25000
     Eigenvalues ---    0.25000   0.25371   0.26148   0.26649   0.27980
     Eigenvalues ---    0.28084   0.28465   0.29656   0.31469   0.31814
     Eigenvalues ---    0.32044   0.32239   0.32293   0.32380   0.32388
     Eigenvalues ---    0.32405   0.32516   0.32526   0.32586   0.33363
     Eigenvalues ---    0.33390   0.33600   0.35239   0.43891   0.44298
     Eigenvalues ---    0.49679   0.67163   0.90362   0.911601000.00000
     Eigenvalues --- 1000.000001000.000001000.000001000.000001000.00000
     Eigenvalues --- 1000.000001000.000001000.000001000.000001000.00000
     Eigenvalues --- 1000.000001000.000001000.000001000.000001000.00000
     Eigenvalues --- 1000.000001000.000001000.000001000.000001000.00000
     Eigenvalues --- 1000.000001000.000001000.000001000.000001000.00000
     Eigenvalues --- 1000.000001000.000001000.000001000.000001000.00000
     Eigenvalues --- 1000.000001000.000001000.000001000.000001000.00000
     Eigenvalues --- 1000.000001000.000001000.000001000.000001000.00000
     Eigenvalues --- 1000.000001000.000001000.000001000.000001000.00000
     Eigenvalues --- 1000.000001000.000001000.000001000.000001000.00000
     Eigenvalues --- 1000.000001000.000001000.000001000.000001000.00000
     Eigenvalues --- 1000.000001000.000001000.000001000.000001000.00000
     Eigenvalues --- 1000.000001000.000001000.000001000.000001000.00000
     Eigenvalues --- 1000.000001000.000001000.000001000.000001000.00000
     Eigenvalues --- 1000.000001000.000001000.000001000.000001000.00000
     Eigenvalues --- 1000.000001000.000001000.000001000.000001000.00000
     Eigenvalues --- 1000.000001000.000001000.000001000.000001000.00000
     Eigenvalues --- 1000.000001000.000001000.000001000.000001000.00000
     Eigenvalues --- 1000.00000
 RFO step:  Lambda=-2.58738969D-02 EMin= 2.33305314D-03
 Linear search not attempted -- first point.
 Iteration  1 RMS(Cart)=  0.07038251 RMS(Int)=  0.00185577
 Iteration  2 RMS(Cart)=  0.00275925 RMS(Int)=  0.00040042
 Iteration  3 RMS(Cart)=  0.00000620 RMS(Int)=  0.00040040
 Iteration  4 RMS(Cart)=  0.00000000 RMS(Int)=  0.00040040
 Iteration  1 RMS(Cart)=  0.00008449 RMS(Int)=  0.00008277
 Iteration  2 RMS(Cart)=  0.00004365 RMS(Int)=  0.00009128
 Iteration  3 RMS(Cart)=  0.00002681 RMS(Int)=  0.00010247
 Iteration  4 RMS(Cart)=  0.00001918 RMS(Int)=  0.00011118
 Iteration  5 RMS(Cart)=  0.00001496 RMS(Int)=  0.00011768
 Iteration  6 RMS(Cart)=  0.00001215 RMS(Int)=  0.00012263
 Iteration  7 RMS(Cart)=  0.00001005 RMS(Int)=  0.00012648
 Iteration  8 RMS(Cart)=  0.00000839 RMS(Int)=  0.00012953
 Iteration  9 RMS(Cart)=  0.00000704 RMS(Int)=  0.00013201
 Iteration 10 RMS(Cart)=  0.00000593 RMS(Int)=  0.00013403
 Iteration 11 RMS(Cart)=  0.00000500 RMS(Int)=  0.00013570
 Iteration 12 RMS(Cart)=  0.00000421 RMS(Int)=  0.00013710
 Iteration 13 RMS(Cart)=  0.00000355 RMS(Int)=  0.00013827
 Iteration 14 RMS(Cart)=  0.00000300 RMS(Int)=  0.00013925
 Iteration 15 RMS(Cart)=  0.00000253 RMS(Int)=  0.00014008
 Iteration 16 RMS(Cart)=  0.00000214 RMS(Int)=  0.00014078
 Iteration 17 RMS(Cart)=  0.00000181 RMS(Int)=  0.00014137
 Iteration 18 RMS(Cart)=  0.00000153 RMS(Int)=  0.00014187
 Iteration 19 RMS(Cart)=  0.00000129 RMS(Int)=  0.00014229
 Iteration 20 RMS(Cart)=  0.00000109 RMS(Int)=  0.00014265
 Iteration 21 RMS(Cart)=  0.00000092 RMS(Int)=  0.00014296
 Variable       Old X    -DE/DX   Delta X   Delta X   Delta X     New X
                                 (Linear)    (Quad)   (Total)
    R1        2.32403   0.01775   0.00000   0.01893   0.01893   2.34297
    R2        2.32767   0.01616   0.00000   0.01739   0.01739   2.34506
    R3        2.88655  -0.03884   0.00000  -0.12047  -0.12047   2.76608
    R4        2.64279  -0.03020   0.00000  -0.06486  -0.06456   2.57823
    R5        2.80949  -0.02197   0.00000  -0.06388  -0.06325   2.74624
    R6        2.58809  -0.02574   0.00000  -0.04900  -0.04912   2.53897
    R7        2.08372  -0.01064   0.00000  -0.02956  -0.02956   2.05415
    R8        2.82202  -0.01824   0.00000  -0.04903  -0.04955   2.77246
    R9        1.93285  -0.00637   0.00000  -0.01370  -0.01370   1.91916
   R10        2.11826  -0.01265   0.00000  -0.03716  -0.03716   2.08110
   R11        2.92740  -0.01309   0.00000  -0.04282  -0.04285   2.88455
   R12        2.90269  -0.00218   0.00000  -0.00216  -0.00225   2.90043
   R13        2.91140  -0.00426   0.00000  -0.01400  -0.01405   2.89735
   R14        2.09909  -0.00983   0.00000  -0.02799  -0.02799   2.07110
   R15        2.09892  -0.00822   0.00000  -0.02340  -0.02340   2.07552
   R16        2.90447  -0.00160   0.00000  -0.00738  -0.00743   2.89704
   R17        2.10139  -0.01056   0.00000  -0.03021  -0.03021   2.07118
   R18        2.10310  -0.00896   0.00000  -0.02568  -0.02568   2.07743
   R19        2.91764  -0.00914   0.00000  -0.03009  -0.03005   2.88759
   R20        2.10409  -0.01166   0.00000  -0.03349  -0.03349   2.07060
   R21        2.10109  -0.00992   0.00000  -0.02836  -0.02836   2.07273
   R22        2.93527  -0.01100   0.00000  -0.03654  -0.03649   2.89878
   R23        2.10153  -0.01077   0.00000  -0.03079  -0.03079   2.07075
   R24        2.09784  -0.00773   0.00000  -0.02198  -0.02198   2.07587
   R25        2.10763  -0.00963   0.00000  -0.02780  -0.02780   2.07983
   R26        2.76905  -0.00586   0.00000  -0.01132  -0.01172   2.75733
   R27        2.44282  -0.00566   0.00000  -0.00791  -0.00760   2.43521
   R28        2.08010  -0.00614   0.00000  -0.01697  -0.01697   2.06312
    A1        2.15836   0.01118   0.00000   0.04106   0.04059   2.19895
    A2        2.05403  -0.00704   0.00000  -0.02499  -0.02546   2.02857
    A3        2.07037  -0.00415   0.00000  -0.01452  -0.01499   2.05538
    A4        2.03070  -0.00843   0.00000  -0.03377  -0.03526   1.99544
    A5        2.03512  -0.00233   0.00000  -0.01194  -0.01339   2.02172
    A6        2.20454   0.01048   0.00000   0.03153   0.03055   2.23509
    A7        2.18970   0.00552   0.00000   0.01908   0.01935   2.20905
    A8        2.06344  -0.00143   0.00000  -0.00236  -0.00275   2.06069
    A9        2.02953  -0.00402   0.00000  -0.01769  -0.01803   2.01150
   A10        2.24853  -0.00521   0.00000  -0.01521  -0.01603   2.23250
   A11        2.10670  -0.01349   0.00000  -0.07522  -0.07539   2.03131
   A12        1.86801   0.01916   0.00000   0.10001   0.10061   1.96862
   A13        1.83987  -0.00233   0.00000  -0.01792  -0.01779   1.82208
   A14        2.00860  -0.00130   0.00000  -0.02395  -0.02401   1.98458
   A15        1.96428   0.00194   0.00000   0.00983   0.00910   1.97339
   A16        1.85247   0.00310   0.00000   0.02380   0.02364   1.87610
   A17        1.84951   0.00113   0.00000   0.02733   0.02702   1.87653
   A18        1.93546  -0.00221   0.00000  -0.01328  -0.01281   1.92265
   A19        1.90960  -0.00013   0.00000  -0.00574  -0.00588   1.90372
   A20        1.92228  -0.00056   0.00000  -0.01311  -0.01310   1.90919
   A21        1.92237  -0.00169   0.00000  -0.00624  -0.00622   1.91615
   A22        1.91926  -0.00044   0.00000   0.00452   0.00447   1.92373
   A23        1.90569   0.00326   0.00000   0.02551   0.02551   1.93120
   A24        1.88446  -0.00041   0.00000  -0.00452  -0.00475   1.87970
   A25        1.94033  -0.00058   0.00000   0.00657   0.00649   1.94682
   A26        1.91885  -0.00094   0.00000  -0.00800  -0.00803   1.91082
   A27        1.90508   0.00028   0.00000  -0.00311  -0.00319   1.90189
   A28        1.91612   0.00064   0.00000   0.00691   0.00695   1.92307
   A29        1.89863   0.00178   0.00000   0.01122   0.01123   1.90986
   A30        1.88379  -0.00117   0.00000  -0.01408  -0.01416   1.86962
   A31        1.94469   0.00124   0.00000   0.00745   0.00751   1.95220
   A32        1.90240   0.00020   0.00000   0.00471   0.00473   1.90713
   A33        1.91734   0.00044   0.00000   0.00493   0.00489   1.92223
   A34        1.90673  -0.00130   0.00000  -0.01516  -0.01519   1.89154
   A35        1.91533  -0.00067   0.00000   0.00013   0.00005   1.91538
   A36        1.87597   0.00004   0.00000  -0.00253  -0.00257   1.87340
   A37        1.94637  -0.00367   0.00000  -0.02188  -0.02181   1.92456
   A38        1.90617   0.00247   0.00000   0.01465   0.01448   1.92064
   A39        1.91113   0.00182   0.00000   0.01645   0.01636   1.92749
   A40        1.90638   0.00069   0.00000  -0.00230  -0.00221   1.90417
   A41        1.91204  -0.00027   0.00000  -0.00303  -0.00293   1.90911
   A42        1.88055  -0.00096   0.00000  -0.00327  -0.00345   1.87710
   A43        1.84569   0.00537   0.00000   0.02473   0.02467   1.87036
   A44        1.93532  -0.00439   0.00000  -0.02611  -0.02658   1.90873
   A45        1.98967  -0.00058   0.00000  -0.00109  -0.00084   1.98883
   A46        1.88238   0.00203   0.00000   0.02896   0.02924   1.91161
   A47        1.89144  -0.00413   0.00000  -0.02924  -0.02916   1.86228
   A48        1.91476   0.00193   0.00000   0.00515   0.00515   1.91991
   A49        2.08805  -0.00573   0.00000  -0.01454  -0.01522   2.07283
   A50        2.25196  -0.00363   0.00000  -0.01913  -0.01887   2.23310
   A51        1.97996   0.00366   0.00000   0.01931   0.01846   1.99841
   A52        2.05121  -0.00007   0.00000  -0.00075  -0.00161   2.04960
    D1        3.12529  -0.00024   0.00000  -0.08473  -0.08236   3.04293
    D2        0.14414   0.00048   0.00000   0.00000  -0.00000   0.14414
    D3       -0.04660   0.00001   0.00000  -0.02942  -0.02824  -0.07484
    D4       -3.02775   0.00072   0.00000   0.05531   0.05412  -2.97363
    D5        2.87462   0.00526   0.00000   0.13402   0.13478   3.00940
    D6       -0.30284   0.00754   0.00000   0.09956   0.10022  -0.20262
    D7       -0.44518   0.00287   0.00000   0.03447   0.03457  -0.41061
    D8        2.66055   0.00514   0.00000   0.00000   0.00000   2.66055
    D9       -2.76569  -0.00476   0.00000  -0.09803  -0.09852  -2.86421
   D10        0.38767  -0.00100   0.00000  -0.03793  -0.03871   0.34896
   D11        0.55450  -0.00182   0.00000   0.00369   0.00484   0.55934
   D12       -2.57532   0.00194   0.00000   0.06379   0.06465  -2.51067
   D13        0.29358  -0.00516   0.00000  -0.08216  -0.08163   0.21195
   D14        3.02053   0.00038   0.00000  -0.02979  -0.03085   2.98968
   D15       -2.81276  -0.00743   0.00000  -0.04856  -0.04816  -2.86093
   D16       -0.08582  -0.00189   0.00000   0.00382   0.00262  -0.08320
   D17       -2.70958   0.00029   0.00000   0.03059   0.03079  -2.67878
   D18        1.53891  -0.00128   0.00000   0.02616   0.02606   1.56498
   D19       -0.70150   0.00124   0.00000   0.05754   0.05701  -0.64449
   D20        0.80272   0.00080   0.00000   0.01361   0.01321   0.81593
   D21       -1.23198  -0.00077   0.00000   0.00918   0.00847  -1.22350
   D22        2.81080   0.00175   0.00000   0.04056   0.03942   2.85022
   D23        2.94637   0.00208   0.00000   0.02673   0.02646   2.97282
   D24       -1.22520   0.00110   0.00000   0.02038   0.02015  -1.20506
   D25        0.85145  -0.00081   0.00000   0.00276   0.00259   0.85405
   D26        0.91885   0.00361   0.00000   0.04629   0.04628   0.96513
   D27        3.03046   0.00263   0.00000   0.03994   0.03997   3.07043
   D28       -1.17606   0.00072   0.00000   0.02232   0.02241  -1.15365
   D29       -1.08212   0.00165   0.00000   0.00747   0.00756  -1.07456
   D30        1.02950   0.00067   0.00000   0.00112   0.00125   1.03075
   D31        3.10615  -0.00123   0.00000  -0.01649  -0.01630   3.08985
   D32       -2.89774  -0.00071   0.00000  -0.02025  -0.02015  -2.91790
   D33       -0.86181   0.00252   0.00000   0.01487   0.01463  -0.84719
   D34        1.30939   0.00115   0.00000   0.00000  -0.00001   1.30938
   D35       -0.89550  -0.00184   0.00000  -0.02062  -0.02057  -0.91607
   D36        1.14043   0.00139   0.00000   0.01451   0.01421   1.15464
   D37       -2.97156   0.00001   0.00000  -0.00036  -0.00042  -2.97198
   D38        1.10731   0.00135   0.00000   0.01599   0.01603   1.12334
   D39       -3.13994   0.00458   0.00000   0.05111   0.05081  -3.08913
   D40       -0.96874   0.00320   0.00000   0.03624   0.03618  -0.93256
   D41        0.95666   0.00094   0.00000   0.00000  -0.00000   0.95665
   D42        3.08215   0.00072   0.00000   0.00766   0.00762   3.08977
   D43       -1.13782  -0.00109   0.00000  -0.01602  -0.01599  -1.15381
   D44       -1.15679   0.00199   0.00000   0.01702   0.01708  -1.13971
   D45        0.96870   0.00177   0.00000   0.02468   0.02470   0.99341
   D46        3.03192  -0.00004   0.00000   0.00100   0.00109   3.03301
   D47        3.06176   0.00080   0.00000   0.00454   0.00449   3.06625
   D48       -1.09593   0.00058   0.00000   0.01220   0.01212  -1.08381
   D49        0.96728  -0.00123   0.00000  -0.01148  -0.01149   0.95579
   D50       -0.92192  -0.00089   0.00000   0.00000  -0.00000  -0.92192
   D51        1.18361  -0.00160   0.00000  -0.01107  -0.01108   1.17253
   D52       -3.04830  -0.00118   0.00000  -0.00853  -0.00855  -3.05686
   D53       -3.04901   0.00025   0.00000   0.00103   0.00103  -3.04798
   D54       -0.94348  -0.00046   0.00000  -0.01005  -0.01004  -0.95352
   D55        1.10779  -0.00004   0.00000  -0.00750  -0.00752   1.10027
   D56        1.17638   0.00025   0.00000   0.00748   0.00750   1.18388
   D57       -3.00128  -0.00046   0.00000  -0.00360  -0.00357  -3.00485
   D58       -0.95001  -0.00004   0.00000  -0.00105  -0.00105  -0.95105
   D59        0.98919  -0.00137   0.00000  -0.01172  -0.01172   0.97748
   D60        3.09786  -0.00121   0.00000  -0.01885  -0.01896   3.07889
   D61       -1.12991   0.00014   0.00000  -0.00471  -0.00464  -1.13455
   D62       -1.11380  -0.00155   0.00000  -0.01232  -0.01229  -1.12609
   D63        0.99486  -0.00139   0.00000  -0.01946  -0.01954   0.97533
   D64        3.05028  -0.00004   0.00000  -0.00531  -0.00521   3.04507
   D65        3.11674  -0.00044   0.00000  -0.00042  -0.00042   3.11632
   D66       -1.05778  -0.00028   0.00000  -0.00756  -0.00767  -1.06545
   D67        0.99764   0.00107   0.00000   0.00658   0.00666   1.00430
   D68       -1.05575   0.00030   0.00000  -0.00334  -0.00323  -1.05898
   D69       -3.12718   0.00159   0.00000  -0.00029  -0.00064  -3.12782
   D70        1.08425   0.00044   0.00000  -0.00643  -0.00642   1.07783
   D71        3.11889  -0.00090   0.00000  -0.00611  -0.00597   3.11292
   D72        1.04746   0.00039   0.00000  -0.00307  -0.00339   1.04408
   D73       -1.02429  -0.00076   0.00000  -0.00920  -0.00917  -1.03346
   D74        1.06283   0.00001   0.00000   0.00096   0.00116   1.06399
   D75       -1.00860   0.00130   0.00000   0.00400   0.00375  -1.00486
   D76       -3.08036   0.00014   0.00000  -0.00214  -0.00203  -3.08239
   D77       -1.17217   0.00574   0.00000   0.00000  -0.00001  -1.17218
   D78        3.06115   0.00216   0.00000  -0.01056  -0.01070   3.05045
   D79        1.01000   0.00102   0.00000  -0.03137  -0.03168   0.97832
   D80        0.19443   0.00015   0.00000  -0.00362  -0.00435   0.19007
   D81       -2.95935  -0.00372   0.00000  -0.06569  -0.06556  -3.02491
         Item               Value     Threshold  Converged?
 Maximum Force            0.038842     0.000450     NO 
 RMS     Force            0.006969     0.000300     NO 
 Maximum Displacement     0.303633     0.001800     NO 
 RMS     Displacement     0.070903     0.001200     NO 
 Predicted change in Energy=-1.507370D-02
 GradGradGradGradGradGradGradGradGradGradGradGradGradGradGradGradGradGrad

                          Input orientation:                          
 ---------------------------------------------------------------------
 Center     Atomic      Atomic             Coordinates (Angstroms)
 Number     Number       Type             X           Y           Z
 ---------------------------------------------------------------------
      1          8           0       -3.487403   -1.387228   -0.330964
      2          7           0       -3.119434   -0.232163   -0.070895
      3          8           0       -3.859004    0.754009    0.072134
      4          6           0       -1.675180   -0.023815    0.044353
      5          6           0       -1.306716    1.279318    0.210191
      6          7           0       -0.071909    1.733639    0.482235
      7          6           0        1.193766    0.993877    0.425019
      8          1           0        1.846896    1.512648    1.144112
      9          6           0        1.876726    1.050654   -0.938927
     10          6           0        3.286294    0.459589   -0.818486
     11          6           0        3.254935   -0.955620   -0.229899
     12          6           0        2.480991   -1.007045    1.086649
     13          6           0        1.060391   -0.462878    0.889584
     14          1           0        0.519005   -0.492323    1.847370
     15          7           0        0.407507   -1.336364   -0.079844
     16          6           0       -0.840195   -1.148765   -0.341935
     17          1           0       -2.058975    2.047733    0.051320
     18          1           0        0.058266    2.739942    0.439822
     19          1           0        1.287180    0.479420   -1.665082
     20          1           0        1.921442    2.090605   -1.289354
     21          1           0        3.763476    0.448331   -1.805114
     22          1           0        3.892882    1.110693   -0.173013
     23          1           0        2.770439   -1.632822   -0.942115
     24          1           0        4.276793   -1.322257   -0.073549
     25          1           0        2.422425   -2.039954    1.447800
     26          1           0        2.994444   -0.415475    1.856789
     27          1           0       -1.335051   -1.880745   -0.983230
 ---------------------------------------------------------------------
                    Distance matrix (angstroms):
                    1          2          3          4          5
     1  O    0.000000
     2  N    1.239844   0.000000
     3  O    2.210311   1.240950   0.000000
     4  C    2.298676   1.463749   2.318377   0.000000
     5  C    3.486935   2.376874   2.609441   1.364340   0.000000
     6  N    4.697521   3.668480   3.933186   2.418856   1.343564
     7  C    5.306083   4.511407   5.070754   3.067809   2.525873
     8  H    6.248190   5.402318   5.855080   3.996900   3.297260
     9  C    5.923408   5.230747   5.831710   3.838927   3.392206
    10  C    7.037853   6.486198   7.206606   5.059090   4.777643
    11  C    6.756894   6.417262   7.322717   5.024888   5.098753
    12  C    6.146209   5.771058   6.657784   4.396235   4.510250
    13  C    4.798603   4.294960   5.133175   2.896643   3.016623
    14  H    4.647290   4.121367   4.885875   2.878336   3.025281
    15  N    3.903328   3.695762   4.753512   2.464913   3.140776
    16  C    2.657950   2.471549   3.592383   1.453248   2.533392
    17  H    3.739720   2.517426   2.216813   2.106812   1.087012
    18  H    5.495400   4.380870   4.407282   3.286273   2.012295
    19  H    5.297253   4.739835   5.438431   3.457021   3.299210
    20  H    6.501495   5.682457   6.087174   4.380095   3.650729
    21  H    7.623493   7.130571   7.856189   5.763890   5.518954
    22  H    7.793149   7.140467   7.763959   5.686622   5.216426
    23  H    6.292409   6.116492   7.118650   4.829653   5.141164
    24  H    7.768733   7.476128   8.397815   6.093097   6.166383
    25  H    6.206135   6.023848   7.011065   4.777535   5.143514
    26  H    6.909769   6.413195   7.177913   5.024312   4.907503
    27  H    2.302527   2.595034   3.798166   2.149372   3.378025
                    6          7          8          9         10
     6  N    0.000000
     7  C    1.467124   0.000000
     8  H    2.041747   1.101271   0.000000
     9  C    2.506660   1.526436   2.133865   0.000000
    10  C    3.820026   2.492076   2.651903   1.533214   0.000000
    11  C    4.336719   2.911679   3.156394   2.535215   1.533047
    12  C    3.793938   2.469493   2.598890   2.949953   2.535561
    13  C    2.504541   1.534844   2.141513   2.510106   2.953488
    14  H    2.677253   2.164989   2.505549   3.462317   3.958638
    15  N    3.157640   2.510600   3.418593   2.931634   3.472528
    16  C    3.094798   3.052233   4.063485   3.546195   4.454415
    17  H    2.057371   3.439561   4.091007   4.179054   5.643638
    18  H    1.015574   2.082864   2.280674   2.839267   4.147711
    19  H    2.833930   2.154510   3.045064   1.095980   2.171076
    20  H    2.690612   2.161342   2.502269   1.098316   2.178245
    21  H    4.646952   3.445944   3.674777   2.161689   1.096023
    22  H    4.066568   2.767041   2.466261   2.157572   1.099328
    23  H    4.630418   3.354773   3.885776   2.828387   2.158605
    24  H    5.344025   3.888201   3.927313   3.484237   2.170483
    25  H    4.625367   3.429259   3.611709   3.942856   3.482821
    26  H    3.988810   2.697903   2.354237   3.348859   2.829843
    27  H    4.099620   4.079403   5.115221   4.348628   5.182772
                   11         12         13         14         15
    11  C    0.000000
    12  C    1.528049   0.000000
    13  C    2.512381   1.533968   0.000000
    14  H    3.466266   2.166339   1.100600   0.000000
    15  N    2.876687   2.401769   1.459118   2.106891   0.000000
    16  C    4.101212   3.618178   2.366285   2.659209   1.288660
    17  H    6.110388   5.569099   4.091001   4.040255   4.189612
    18  H    4.931977   4.508647   3.385941   3.555420   4.124111
    19  H    2.826862   3.347654   2.732339   3.724473   2.565907
    20  H    3.490005   3.943846   3.465466   4.298533   3.936880
    21  H    2.170483   3.482124   3.924076   4.975145   4.174233
    22  H    2.163299   2.839895   3.410021   4.246723   4.259649
    23  H    1.095714   2.142723   2.765530   3.761771   2.532755
    24  H    1.096842   2.161093   3.465747   4.301127   3.869316
    25  H    2.164146   1.095792   2.157292   2.485523   2.624620
    26  H    2.171147   1.098501   2.162937   2.476649   3.360182
    27  H    4.742502   4.428309   3.354984   3.657531   2.036901
                   16         17         18         19         20
    16  C    0.000000
    17  H    3.443497   0.000000
    18  H    4.066992   2.261150   0.000000
    19  H    2.987881   4.074604   3.324276   0.000000
    20  H    4.360935   4.200352   2.623568   1.771829   0.000000
    21  H    5.087769   6.317070   4.901000   2.480447   2.521144
    22  H    5.247447   6.029342   4.211211   3.068299   2.468405
    23  H    3.692046   6.152774   5.327917   2.680355   3.834746
    24  H    5.126957   7.177351   5.878859   3.836248   4.321283
    25  H    3.826493   6.224329   5.427031   4.162459   4.980413
    26  H    4.480686   5.904587   4.537135   4.014868   4.162930
    27  H    1.091758   4.126414   5.031616   3.593243   5.144908
                   21         22         23         24         25
    21  H    0.000000
    22  H    1.766133   0.000000
    23  H    2.462130   3.062396   0.000000
    24  H    2.529188   2.465061   1.766340   0.000000
    25  H    4.309459   3.836125   2.449197   2.503652   0.000000
    26  H    3.840197   2.693785   3.060388   2.488549   1.770143
    27  H    5.665251   6.077535   4.113174   5.712461   4.478155
                   26         27
    26  H    0.000000
    27  H    5.381193   0.000000
 Symmetry turned off by external request.
 Stoichiometry    C9H13N3O2
 Framework group  C1[X(C9H13N3O2)]
 Deg. of freedom    75
 Full point group                 C1      NOp   1
 Rotational constants (GHZ):           1.6751069           0.4235342           0.3743148
 Standard basis: 6-31G(d) (6D, 7F)
   236 basis functions,   444 primitive gaussians,   236 cartesian basis functions
    52 alpha electrons       52 beta electrons
       nuclear repulsion energy       932.7837001819 Hartrees.
 NAtoms=   27 NActive=   27 NUniq=   27 SFac= 1.00D+00 NAtFMM=   60 NAOKFM=F Big=F
 Integral buffers will be    131072 words long.
 Raffenetti 1 integral format.
 Two-electron integral symmetry is turned off.
 One-electron integrals computed using PRISM.
 NBasis=   236 RedAO= T EigKep=  1.13D-03  NBF=   236
 NBsUse=   236 1.00D-06 EigRej= -1.00D+00 NBFU=   236
 Initial guess from the checkpoint file:  "/home/alexey/tmp/Gau-1592038.chk"
 B after Tr=     0.060033    0.008382   -0.012773
         Rot=    0.999983   -0.003174    0.004617    0.001419 Ang=  -0.66 deg.
 ExpMin= 1.61D-01 ExpMax= 5.48D+03 ExpMxC= 8.25D+02 IAcc=3 IRadAn=         5 AccDes= 0.00D+00
 Harris functional with IExCor=  205 and IRadAn=       5 diagonalized for initial guess.
 HarFok:  IExCor=  205 AccDes= 0.00D+00 IRadAn=         5 IDoV= 1 UseB2=F ITyADJ=14
 ICtDFT=  3500011 ScaDFX=  1.000000  1.000000  1.000000  1.000000
 FoFCou: FMM=F IPFlag=           0 FMFlag=      100000 FMFlg1=           0
         NFxFlg=           0 DoJE=T BraDBF=F KetDBF=T FulRan=T
         wScrn=  0.000000 ICntrl=       500 IOpCl=  0 I1Cent=   200000004 NGrid=           0
         NMat0=    1 NMatS0=      1 NMatT0=    0 NMatD0=    1 NMtDS0=    0 NMtDT0=    0
 Symmetry not used in FoFCou.
 Keep R1 ints in memory in canonical form, NReq=397720213.
 Requested convergence on RMS density matrix=1.00D-08 within 128 cycles.
 Requested convergence on MAX density matrix=1.00D-06.
 Requested convergence on             energy=1.00D-06.
 No special actions if energy rises.
 SCF Done:  E(RHF) =  -661.295651831     A.U. after   15 cycles
            NFock= 15  Conv=0.58D-08     -V/T= 2.0024
 ExpMin= 1.61D-01 ExpMax= 5.48D+03 ExpMxC= 8.25D+02 IAcc=3 IRadAn=         5 AccDes= 0.00D+00
 HarFok:  IExCor=  205 AccDes= 0.00D+00 IRadAn=         5 IDoV=-2 UseB2=F ITyADJ=14
 ICtDFT= 12500011 ScaDFX=  1.000000  1.000000  1.000000  1.000000
 Range of M.O.s used for correlation:    15   236
 NBasis=   236 NAE=    52 NBE=    52 NFC=    14 NFV=     0
 NROrb=    222 NOA=    38 NOB=    38 NVA=   184 NVB=   184
 Fully direct method using O(ONN) memory.
 JobTyp=1 Pass  1:  I=  15 to  52 NPSUse=  4 ParTrn=T ParDer=T DoDerP=T.
 Spin components of T(2) and E(2):
     alpha-alpha T2 =       0.9136595140D-01 E2=     -0.2725169817D+00
     alpha-beta  T2 =       0.4913644982D+00 E2=     -0.1488242646D+01
     beta-beta   T2 =       0.9136595140D-01 E2=     -0.2725169817D+00
 ANorm=    0.1293868773D+01
 E2 =    -0.2033276610D+01 EUMP2 =    -0.66332892844034D+03
          IDoAtm=111111111111111111111111111
          Differentiating once with respect to electric field.
                with respect to dipole field.
          Differentiating once with respect to nuclear coordinates.
 Keep R1 ints in memory in canonical form, NReq=397723379.
          There are     1 degrees of freedom in the 1st order CPHF.  IDoFFX=0 NUNeed=     1.
 LinEq1:  Iter=  0 NonCon=     1 RMS=4.60D-03 Max=1.16D-01 NDo=     1
[...]
                   16         17         18         19         20
    16  C    0.000000
    17  H    3.430543   0.000000
    18  H    4.056971   2.238448   0.000000
    19  H    2.982637   4.193025   3.400660   0.000000
    20  H    4.357869   4.335569   2.739254   1.768894   0.000000
    21  H    5.093478   6.425091   4.990124   2.498834   2.519184
    22  H    5.237475   6.063317   4.265024   3.070244   2.458915
    23  H    3.705142   6.204816   5.384959   2.705167   3.842199
    24  H    5.137533   7.194012   5.920526   3.850288   4.315170
    25  H    3.823451   6.152178   5.421957   4.171229   4.983178
    26  H    4.487041   5.847114   4.548721   4.038029   4.182248
    27  H    1.089396   4.128612   5.013824   3.559927   5.115791
                   21         22         23         24         25
    21  H    0.000000
    22  H    1.759024   0.000000
    23  H    2.469283   3.062090   0.000000
    24  H    2.517683   2.459406   1.764740   0.000000
    25  H    4.311749   3.839392   2.443566   2.519979   0.000000
    26  H    3.847572   2.705200   3.060636   2.490599   1.767721
    27  H    5.650387   6.052819   4.115408   5.717116   4.481692
                   26         27
    26  H    0.000000
    27  H    5.387057   0.000000
 Symmetry turned off by external request.
 Stoichiometry    C9H13N3O2
 Framework group  C1[X(C9H13N3O2)]
 Deg. of freedom    75
 Full point group                 C1      NOp   1
 Rotational constants (GHZ):           1.6878584           0.4198917           0.3729817

 **********************************************************************

            Population analysis using the SCF Density.

 **********************************************************************

 Alpha  occ. eigenvalues --  -20.59079 -20.58765 -15.84547 -15.64343 -15.56077
 Alpha  occ. eigenvalues --  -11.35304 -11.29658 -11.29601 -11.28507 -11.27144
 Alpha  occ. eigenvalues --  -11.23884 -11.23285 -11.22724 -11.22121  -1.56959
 Alpha  occ. eigenvalues --   -1.36557  -1.31168  -1.23113  -1.14735  -1.09830
 Alpha  occ. eigenvalues --   -1.02858  -1.01346  -0.94410  -0.89572  -0.85729
 Alpha  occ. eigenvalues --   -0.82401  -0.78497  -0.77398  -0.75284  -0.72027
 Alpha  occ. eigenvalues --   -0.69535  -0.69462  -0.67823  -0.64895  -0.63705
 Alpha  occ. eigenvalues --   -0.62965  -0.60221  -0.57404  -0.57107  -0.55133
 Alpha  occ. eigenvalues --   -0.54709  -0.50849  -0.50020  -0.48571  -0.48063
 Alpha  occ. eigenvalues --   -0.47274  -0.46214  -0.46079  -0.43560  -0.41694
 Alpha  occ. eigenvalues --   -0.40076  -0.33735
 Alpha virt. eigenvalues --    0.07516   0.12001   0.17317   0.21650   0.23329
 Alpha virt. eigenvalues --    0.24880   0.27356   0.28385   0.28977   0.29760
 Alpha virt. eigenvalues --    0.30672   0.31769   0.32177   0.32691   0.33787
 Alpha virt. eigenvalues --    0.34334   0.35719   0.37340   0.38528   0.40214
 Alpha virt. eigenvalues --    0.41631   0.42615   0.45080   0.46085   0.46700
 Alpha virt. eigenvalues --    0.47074   0.48950   0.53949   0.56920   0.59164
 Alpha virt. eigenvalues --    0.64169   0.69116   0.70036   0.72818   0.74066
 Alpha virt. eigenvalues --    0.75231   0.75822   0.76916   0.78708   0.79034
 Alpha virt. eigenvalues --    0.81278   0.85293   0.85564   0.86346   0.88344
 Alpha virt. eigenvalues --    0.89219   0.90710   0.91890   0.92649   0.94538
 Alpha virt. eigenvalues --    0.95840   0.98154   0.98349   1.00944   1.02262
 Alpha virt. eigenvalues --    1.03124   1.05875   1.06161   1.07220   1.08803
 Alpha virt. eigenvalues --    1.09970   1.11670   1.11771   1.12513   1.13920
 Alpha virt. eigenvalues --    1.14633   1.14802   1.16237   1.16588   1.18207
 Alpha virt. eigenvalues --    1.19022   1.19969   1.21203   1.22840   1.23722
 Alpha virt. eigenvalues --    1.24939   1.26992   1.27151   1.27883   1.29469
 Alpha virt. eigenvalues --    1.30401   1.32404   1.36022   1.37078   1.40479
 Alpha virt. eigenvalues --    1.41108   1.42287   1.48437   1.52939   1.53599
 Alpha virt. eigenvalues --    1.54652   1.58519   1.60786   1.61753   1.67164
 Alpha virt. eigenvalues --    1.68404   1.69226   1.74024   1.74445   1.78027
 Alpha virt. eigenvalues --    1.81421   1.84842   1.87460   1.90444   1.93971
 Alpha virt. eigenvalues --    1.96387   1.97204   1.99037   2.01123   2.02107
 Alpha virt. eigenvalues --    2.04456   2.06142   2.08823   2.09425   2.13118
 Alpha virt. eigenvalues --    2.13935   2.14899   2.19411   2.20378   2.21856
 Alpha virt. eigenvalues --    2.23992   2.24927   2.26315   2.28164   2.29763
 Alpha virt. eigenvalues --    2.31576   2.33504   2.33925   2.35842   2.38753
 Alpha virt. eigenvalues --    2.39402   2.42459   2.43323   2.43885   2.48243
 Alpha virt. eigenvalues --    2.50347   2.51589   2.53127   2.56093   2.61773
 Alpha virt. eigenvalues --    2.62274   2.65020   2.67339   2.70337   2.71197
 Alpha virt. eigenvalues --    2.71971   2.73724   2.76673   2.78699   2.85179
 Alpha virt. eigenvalues --    2.87758   2.88854   2.92478   2.93119   2.96121
 Alpha virt. eigenvalues --    2.99018   3.01442   3.04285   3.04993   3.07694
 Alpha virt. eigenvalues --    3.09442   3.14955   3.20996   3.25217   3.27262
 Alpha virt. eigenvalues --    3.34283   3.37972   3.39916   3.51138   3.63318
 Alpha virt. eigenvalues --    4.13655   4.27668   4.31702   4.37857   4.46818
 Alpha virt. eigenvalues --    4.56494   4.62142   4.63168   4.73263   4.79959
 Alpha virt. eigenvalues --    4.98334   5.00703   5.03707   5.12017
          Condensed to atoms (all electrons):
               1          2          3          4          5          6
     1  O    8.316534   0.306056  -0.080559  -0.084114   0.004399  -0.000019
     2  N    0.306056   5.735243   0.295849   0.260132  -0.048590   0.001207
     3  O   -0.080559   0.295849   8.352759  -0.090814   0.003515   0.000762
     4  C   -0.084114   0.260132  -0.090814   5.244561   0.546767  -0.051435
     5  C    0.004399  -0.048590   0.003515   0.546767   4.706520   0.317097
     6  N   -0.000019   0.001207   0.000762  -0.051435   0.317097   7.195667
     7  C    0.000004  -0.000119   0.000004   0.004792  -0.028094   0.170842
     8  H   -0.000000   0.000002   0.000000  -0.000328   0.003401  -0.051859
     9  C   -0.000000  -0.000003  -0.000000   0.001114  -0.000195  -0.063177
    10  C    0.000000   0.000000   0.000000  -0.000049  -0.000024   0.003827
    11  C   -0.000000  -0.000000  -0.000000  -0.000022   0.000022  -0.000171
    12  C   -0.000000   0.000002  -0.000000  -0.000048  -0.000230   0.003567
    13  C   -0.000028  -0.000059  -0.000006  -0.012934  -0.000764  -0.044040
    14  H   -0.000004  -0.000140   0.000001   0.003072   0.004883  -0.006341
    15  N    0.000398   0.002287  -0.000018  -0.065337  -0.005137   0.001468
    16  C    0.000108  -0.030583   0.002846   0.331770  -0.051739  -0.002275
    17  H    0.000199  -0.007561   0.016231  -0.025812   0.376887  -0.035712
    18  H    0.000001  -0.000055   0.000012   0.001492  -0.030846   0.336957
    19  H    0.000001  -0.000005   0.000000  -0.001278   0.001303  -0.000019
    20  H    0.000000  -0.000000   0.000000  -0.000061   0.000146  -0.000842
    21  H   -0.000000   0.000000   0.000000   0.000001   0.000001  -0.000080
    22  H   -0.000000   0.000000  -0.000000  -0.000000  -0.000003  -0.000115
    23  H    0.000000  -0.000000   0.000000   0.000035  -0.000001  -0.000030
    24  H    0.000000   0.000000   0.000000   0.000000  -0.000000   0.000006
    25  H    0.000000  -0.000000   0.000000   0.000014   0.000005  -0.000085
    26  H    0.000000  -0.000000   0.000000   0.000007  -0.000001  -0.000059
    27  H    0.006966  -0.000930   0.000042  -0.061943   0.001811   0.000086
               7          8          9         10         11         12
     1  O    0.000004  -0.000000  -0.000000   0.000000  -0.000000  -0.000000
     2  N   -0.000119   0.000002  -0.000003   0.000000  -0.000000   0.000002
     3  O    0.000004   0.000000  -0.000000   0.000000  -0.000000  -0.000000
     4  C    0.004792  -0.000328   0.001114  -0.000049  -0.000022  -0.000048
     5  C   -0.028094   0.003401  -0.000195  -0.000024   0.000022  -0.000230
     6  N    0.170842  -0.051859  -0.063177   0.003827  -0.000171   0.003567
     7  C    5.016107   0.419240   0.350538  -0.054271  -0.009213  -0.060048
     8  H    0.419240   0.538797  -0.057139   0.001099  -0.000382  -0.002302
     9  C    0.350538  -0.057139   5.165847   0.324344  -0.050368  -0.005833
    10  C   -0.054271   0.001099   0.324344   5.117283   0.337385  -0.060712
    11  C   -0.009213  -0.000382  -0.050368   0.337385   5.119118   0.335987
    12  C   -0.060048  -0.002302  -0.005833  -0.060712   0.335987   5.115543
    13  C    0.338405  -0.038399  -0.058645  -0.000654  -0.050797   0.371088
    14  H   -0.046526  -0.000944   0.004484  -0.000415   0.004176  -0.035466
    15  N   -0.057413   0.003868  -0.014688   0.001506  -0.012863  -0.080334
    16  C   -0.003588   0.000137  -0.001804   0.000007  -0.000013   0.002935
    17  H    0.001634  -0.000036  -0.000111   0.000002   0.000000   0.000000
    18  H   -0.021436  -0.003752   0.000835  -0.000081   0.000005  -0.000108
    19  H   -0.037049   0.004383   0.389244  -0.031296  -0.002240   0.000714
    20  H   -0.043447  -0.002150   0.399591  -0.035420   0.003964  -0.000410
    21  H    0.004586  -0.000083  -0.036377   0.402351  -0.034895   0.004346
    22  H   -0.004779   0.003571  -0.047105   0.398105  -0.045304  -0.001018
    23  H    0.000529   0.000032  -0.001938  -0.038993   0.399261  -0.037701
    24  H   -0.000133  -0.000103   0.004427  -0.038563   0.402334  -0.038734
    25  H    0.005188  -0.000022  -0.000407   0.004188  -0.033519   0.398862
    26  H   -0.003993   0.001739   0.000975  -0.002224  -0.041421   0.397062
    27  H   -0.000426   0.000010  -0.000075   0.000008   0.000009  -0.000038
              13         14         15         16         17         18
     1  O   -0.000028  -0.000004   0.000398   0.000108   0.000199   0.000001
     2  N   -0.000059  -0.000140   0.002287  -0.030583  -0.007561  -0.000055
     3  O   -0.000006   0.000001  -0.000018   0.002846   0.016231   0.000012
     4  C   -0.012934   0.003072  -0.065337   0.331770  -0.025812   0.001492
     5  C   -0.000764   0.004883  -0.005137  -0.051739   0.376887  -0.030846
     6  N   -0.044040  -0.006341   0.001468  -0.002275  -0.035712   0.336957
     7  C    0.338405  -0.046526  -0.057413  -0.003588   0.001634  -0.021436
     8  H   -0.038399  -0.000944   0.003868   0.000137  -0.000036  -0.003752
     9  C   -0.058645   0.004484  -0.014688  -0.001804  -0.000111   0.000835
    10  C   -0.000654  -0.000415   0.001506   0.000007   0.000002  -0.000081
    11  C   -0.050797   0.004176  -0.012863  -0.000013   0.000000   0.000005
    12  C    0.371088  -0.035466  -0.080334   0.002935   0.000000  -0.000108
    13  C    5.041620   0.402547   0.246401  -0.073076   0.000030   0.003058
    14  H    0.402547   0.522879  -0.037719  -0.003905   0.000107  -0.000111
    15  N    0.246401  -0.037719   6.965039   0.579356  -0.000087  -0.000145
    16  C   -0.073076  -0.003905   0.579356   4.735614   0.002281  -0.000233
    17  H    0.000030   0.000107  -0.000087   0.002281   0.382689  -0.002712
    18  H    0.003058  -0.000111  -0.000145  -0.000233  -0.002712   0.311236
    19  H   -0.007342   0.000103   0.007673   0.003358   0.000023  -0.000152
    20  H    0.004339  -0.000065   0.000117  -0.000033   0.000007   0.001447
    21  H   -0.000433   0.000010  -0.000042   0.000003  -0.000000   0.000001
    22  H    0.000071  -0.000055   0.000014  -0.000002   0.000000   0.000002
    23  H   -0.007274   0.000003   0.008424   0.000047   0.000000   0.000000
    24  H    0.004698  -0.000055   0.000145   0.000008   0.000000  -0.000000
    25  H   -0.035876  -0.002888   0.000234  -0.000010  -0.000000   0.000002
    26  H   -0.047131  -0.001053   0.004780  -0.000079   0.000000  -0.000001
    27  H    0.005076  -0.000193  -0.038945   0.402127  -0.000095   0.000001
              19         20         21         22         23         24
     1  O    0.000001   0.000000  -0.000000  -0.000000   0.000000   0.000000
     2  N   -0.000005  -0.000000   0.000000   0.000000  -0.000000   0.000000
     3  O    0.000000   0.000000   0.000000  -0.000000   0.000000   0.000000
     4  C   -0.001278  -0.000061   0.000001  -0.000000   0.000035   0.000000
     5  C    0.001303   0.000146   0.000001  -0.000003  -0.000001  -0.000000
     6  N   -0.000019  -0.000842  -0.000080  -0.000115  -0.000030   0.000006
     7  C   -0.037049  -0.043447   0.004586  -0.004779   0.000529  -0.000133
     8  H    0.004383  -0.002150  -0.000083   0.003571   0.000032  -0.000103
     9  C    0.389244   0.399591  -0.036377  -0.047105  -0.001938   0.004427
    10  C   -0.031296  -0.035420   0.402351   0.398105  -0.038993  -0.038563
    11  C   -0.002240   0.003964  -0.034895  -0.045304   0.399261   0.402334
    12  C    0.000714  -0.000410   0.004346  -0.001018  -0.037701  -0.038734
    13  C   -0.007342   0.004339  -0.000433   0.000071  -0.007274   0.004698
    14  H    0.000103  -0.000065   0.000010  -0.000055   0.000003  -0.000055
    15  N    0.007673   0.000117  -0.000042   0.000014   0.008424   0.000145
    16  C    0.003358  -0.000033   0.000003  -0.000002   0.000047   0.000008
    17  H    0.000023   0.000007  -0.000000   0.000000   0.000000   0.000000
    18  H   -0.000152   0.001447   0.000001   0.000002   0.000000  -0.000000
    19  H    0.504224  -0.025206  -0.002805   0.003940   0.001488  -0.000065
    20  H   -0.025206   0.546382  -0.002712  -0.003021  -0.000045  -0.000085
    21  H   -0.002805  -0.002712   0.524151  -0.027380  -0.002884  -0.002241
    22  H    0.003940  -0.003021  -0.027380   0.570297   0.004126  -0.003671
    23  H    0.001488  -0.000045  -0.002884   0.004126   0.498450  -0.025454
    24  H   -0.000065  -0.000085  -0.002241  -0.003671  -0.025454   0.538277
    25  H   -0.000030   0.000012  -0.000086  -0.000080  -0.002342  -0.002293
    26  H    0.000019  -0.000030  -0.000081   0.002370   0.004042  -0.003057
    27  H    0.000100   0.000000  -0.000000   0.000000  -0.000033  -0.000000
              25         26         27
     1  O    0.000000   0.000000   0.006966
     2  N   -0.000000  -0.000000  -0.000930
     3  O    0.000000   0.000000   0.000042
     4  C    0.000014   0.000007  -0.061943
     5  C    0.000005  -0.000001   0.001811
     6  N   -0.000085  -0.000059   0.000086
     7  C    0.005188  -0.003993  -0.000426
     8  H   -0.000022   0.001739   0.000010
     9  C   -0.000407   0.000975  -0.000075
    10  C    0.004188  -0.002224   0.000008
    11  C   -0.033519  -0.041421   0.000009
    12  C    0.398862   0.397062  -0.000038
    13  C   -0.035876  -0.047131   0.005076
    14  H   -0.002888  -0.001053  -0.000193
    15  N    0.000234   0.004780  -0.038945
    16  C   -0.000010  -0.000079   0.402127
    17  H   -0.000000   0.000000  -0.000095
    18  H    0.000002  -0.000001   0.000001
    19  H   -0.000030   0.000019   0.000100
    20  H    0.000012  -0.000030   0.000000
    21  H   -0.000086  -0.000081  -0.000000
    22  H   -0.000080   0.002370   0.000000
    23  H   -0.002342   0.004042  -0.000033
    24  H   -0.002293  -0.003057  -0.000000
    25  H    0.505905  -0.024030  -0.000010
    26  H   -0.024030   0.560609   0.000001
    27  H   -0.000010   0.000001   0.432841
 Mulliken charges:
               1
     1  O   -0.469941
     2  N    0.487267
     3  O   -0.500624
     4  C    0.000419
     5  C    0.198868
     6  N   -0.775228
     7  C    0.058667
     8  H    0.181217
     9  C   -0.303534
    10  C   -0.327405
    11  C   -0.321054
    12  C   -0.307124
    13  C   -0.039877
    14  H    0.193613
    15  N   -0.508982
    16  C    0.106743
    17  H    0.292036
    18  H    0.404581
    19  H    0.190913
    20  H    0.157521
    21  H    0.174648
    22  H    0.150035
    23  H    0.200256
    24  H    0.164559
    25  H    0.187265
    26  H    0.151554
    27  H    0.253610
 Sum of Mulliken charges =  -0.00000
 Mulliken charges with hydrogens summed into heavy atoms:
               1
     1  O   -0.469941
     2  N    0.487267
     3  O   -0.500624
     4  C    0.000419
     5  C    0.490904
     6  N   -0.370646
     7  C    0.239884
     9  C    0.044899
    10  C   -0.002723
    11  C    0.043761
    12  C    0.031694
    13  C    0.153736
    15  N   -0.508982
    16  C    0.360352
 Electronic spatial extent (au):  <R**2>=           2999.9201
 Charge=             -0.0000 electrons
 Dipole moment (field-independent basis, Debye):
    X=              5.4970    Y=              4.9295    Z=              0.6879  Tot=              7.4155
 Quadrupole moment (field-independent basis, Debye-Ang):
   XX=           -106.3830   YY=            -78.6805   ZZ=            -82.1533
   XY=             -2.0347   XZ=              1.1946   YZ=              0.0842
 Traceless Quadrupole moment (field-independent basis, Debye-Ang):
   XX=            -17.3107   YY=             10.3917   ZZ=              6.9190
   XY=             -2.0347   XZ=              1.1946   YZ=              0.0842
 Octapole moment (field-independent basis, Debye-Ang**2):
  XXX=             93.6214  YYY=             38.8352  ZZZ=             -6.9119  XYY=             -5.4242
  XXY=             10.4227  XXZ=             -0.6576  XZZ=             -8.6787  YZZ=             -1.2751
  YYZ=              3.3108  XYZ=              2.6911
 Hexadecapole moment (field-independent basis, Debye-Ang**3):
 XXXX=          -3379.8109 YYYY=           -593.8629 ZZZZ=           -303.8861 XXXY=            -25.5403
 XXXZ=             15.3380 YYYX=            -11.8863 YYYZ=             14.3675 ZZZX=             16.2212
 ZZZY=              4.7062 XXYY=           -623.7634 XXZZ=           -526.3938 YYZZ=           -160.0849
 XXYZ=            -12.5327 YYXZ=              8.9750 ZZXY=              4.8199
 N-N= 9.319003552078D+02 E-N=-3.410502868546D+03  KE= 6.596292176450D+02
 Unable to Open any file for archive entry.
 1\1\GINC-LOTUS\FOpt\RMP2-FC\6-31G(d)\C9H13N3O2\ALEXEY\02-Jul-2023\0\\#
 MP2/6-31G* SCF=Tight Opt=(ModRedun, MaxCycle=20 ) NoSymm\\MolName:\\0,
 1\O,-3.5046084007,-1.3743014939,-0.4043601706\N,-3.1165015512,-0.24729
 06578,-0.039461531\O,-3.8896584692,0.6895660996,0.2420450774\C,-1.6829
 768884,-0.0448573062,0.0900006109\C,-1.3070393992,1.2637536833,0.26998
 27313\N,-0.0618329811,1.7445022271,0.3950920473\C,1.19621765,1.0095557
 928,0.3730247902\H,1.8424580467,1.5292275358,1.0974230973\C,1.90732737
 42,1.0401852335,-0.9793340782\C,3.3081038497,0.4394431246,-0.814521217
 9\C,3.2634663877,-0.9639047174,-0.2042787245\C,2.4609848958,-0.9929657
 999,1.0982533686\C,1.0500848554,-0.4431539639,0.8627182094\H,0.4699862
 361,-0.4380106195,1.799643617\N,0.4099004333,-1.3237687253,-0.11449992
 25\C,-0.8364440442,-1.1209654255,-0.3975609423\H,-2.082044055,2.021016
 8044,0.1898530625\H,0.0171201401,2.7537582029,0.4491749723\H,1.3204866
 044,0.4695487949,-1.7067734756\H,1.9727245832,2.0733256964,-1.34418444
 53\H,3.8175178588,0.4153096029,-1.7846508067\H,3.900503686,1.101503431
 5,-0.1671161605\H,2.7938791052,-1.6550189079,-0.9110011316\H,4.2835290
 982,-1.3237167153,-0.0247227679\H,2.3770862706,-2.0199465168,1.4689411
 892\H,2.9643403287,-0.4032638081,1.87674771\H,-1.3146216152,-1.8365315
 722,-1.0654651085\\Version=ES64L-G16RevC.02\HF=-661.2966245\MP2=-663.3
 314816\RMSD=7.287e-09\RMSF=2.328e-03\Dipole=2.0127091,1.733822,0.26727
 17\PG=C01 [X(C9H13N3O2)]\\@
 The archive entry for this job was punched.


 THE WORLD IS MADE UP OF THE WILLS, THE WON'TS, AND THE CANT'S:
 THE WILLS DO EVERYTHING,
 THE WON'TS DO NOTHING,
 THE CAN'TS CAN'T DO ANYTHING.

                               -- FROM WALT DISNEY'S "BLACK HOLE"
 Job cpu time:       0 days  1 hours 12 minutes 34.4 seconds.
 Elapsed time:       0 days  0 hours 21 minutes 56.3 seconds.
 File lengths (MBytes):  RWF=     36 Int=      0 D2E=      0 Chk=      7 Scr=      1
 Normal termination of Gaussian 16 at Sun Jul  2 22:59:21 2023.
