 Entering Gaussian System, Link 0=g16
 Initial command:
 /home/alexey/programs//g16/l1.exe "/home/alexey/tmp/Gau-1588858.inp" -scrdir="/home/alexey/tmp/"
 Entering Link 1 = /home/alexey/programs//g16/l1.exe PID=   1588860.
  
 Copyright (c) 1988-2021, Gaussian, Inc.  All Rights Reserved.
  
 This is part of the Gaussian(R) 16 program.  It is based on
 the Gaussian(R) 09 system (copyright 2009, Gaussian, Inc.),
 the Gaussian(R) 03 system (copyright 2003, Gaussian, Inc.),
 the Gaussian(R) 98 system (copyright 1998, Gaussian, Inc.),
 the Gaussian(R) 94 system (copyright 1995, Gaussian, Inc.),
 the Gaussian 92(TM) system (copyright 1992, Gaussian, Inc.),
 the Gaussian 90(TM) system (copyright 1990, Gaussian, Inc.),
 the Gaussian 88(TM) system (copyright 1988, Gaussian, Inc.),
 the Gaussian 86(TM) system (copyright 1986, Carnegie Mellon
 University), and the Gaussian 82(TM) system (copyright 1983,
 Carnegie Mellon University). Gaussian is a federally registered
 trademark of Gaussian, Inc.
  
 This software contains proprietary and confidential information,
 including trade secrets, belonging to Gaussian, Inc.
  
 This software is provided under written license and may be
 used, copied, transmitted, or stored only in accord with that
 written license.
  
 The following legend is applicable only to US Government
 contracts under FAR:
  
                    RESTRICTED RIGHTS LEGEND
  
 Use, reproduction and disclosure by the US Government is
 subject to restrictions as set forth in subparagraphs (a)
 and (c) of the Commercial Computer Software - Restricted
 Rights clause in FAR 52.227-19.
  
 Gaussian, Inc.
 340 Quinnipiac St., Bldg. 40, Wallingford CT 06492
  
  
 ---------------------------------------------------------------
 Warning -- This program may not be used in any manner that
 competes with the business of Gaussian, Inc. or will provide
 assistance to any competitor of Gaussian, Inc.  The licensee
 of this program is prohibited from giving any competitor of
 Gaussian, Inc. access to this program.  By using this program,
 the user acknowledges that Gaussian, Inc. is engaged in the
 business of creating and licensing software in the field of
 computational chemistry and represents and warrants to the
 licensee that it is not a competitor of Gaussian, Inc. and that
 it will not use this program in any manner prohibited above.
 ---------------------------------------------------------------
  

 Cite this work as:
 Gaussian 16, Revision C.02,
 M. J. Frisch, G. W. Trucks, H. B. Schlegel, G. E. Scuseria, 
 M. A. Robb, J. R. Cheeseman, G. Scalmani, V. Barone, 
 G. A. Petersson, H. Nakatsuji, X. Li, M. Caricato, A. V. Marenich, 
 J. Bloino, B. G. Janesko, R. Gomperts, B. Mennucci, H. P. Hratchian, 
 J. V. Ortiz, A. F. Izmaylov, J. L. Sonnenberg, D. Williams-Young, 
 F. Ding, F. Lipparini, F. Egidi, J. Goings, B. Peng, A. Petrone, 
 T. Henderson, D. Ranasinghe, V. G. Zakrzewski, J. Gao, N. Rega, 
 G. Zheng, W. Liang, M. Hada, M. Ehara, K. Toyota, R. Fukuda, 
 J. Hasegawa, M. Ishida, T. Nakajima, Y. Honda, O. Kitao, H. Nakai, 
 T. Vreven, K. Throssell, J. A. Montgomery, Jr., J. E. Peralta, 
 F. Ogliaro, M. J. Bearpark, J. J. Heyd, E. N. Brothers, K. N. Kudin, 
 V. N. Staroverov, T. A. Keith, R. Kobayashi, J. Normand, 
 K. Raghavachari, A. P. Rendell, J. C. Burant, S. S. Iyengar, 
 J. Tomasi, M. Cossi, J. M. Millam, M. Klene, C. Adamo, R. Cammi, 
 J. W. Ochterski, R. L. Martin, K. Morokuma, O. Farkas, 
 J. B. Foresman, and D. J. Fox, Gaussian, Inc., Wallingford CT, 2019.
 
 ******************************************
 Gaussian 16:  ES64L-G16RevC.02  7-Dec-2021
                 2-Jul-2023 
 ******************************************
 %mem=8GB
 %NPROCS=4
 Will use up to    4 processors via shared memory.
 %NoSave
 ---------------------------------------------------------
 #MP2/6-31G* SCF=Tight Opt=(ModRedun, MaxCycle=20 ) NoSymm
 ---------------------------------------------------------
 1/6=20,18=120,19=15,38=1/1,3;
 2/9=110,12=2,15=1,17=6,18=5,40=1/2;
 3/5=1,6=6,7=1,11=9,25=1,30=1,71=1/1,2,3;
 4//1;
 5/5=2,32=2,38=5/2;
 8/6=4,10=2/1;
 9/15=2,16=-3/6;
 10/5=1,31=1/2;
 6/7=2,8=2,9=2,10=2/1;
 7/12=2,30=1/1,2,3,16;
 1/6=20,18=20,19=15/3(2);
 2/9=110,15=1/2;
 99//99;
 2/9=110,15=1/2;
 3/5=1,6=6,7=1,11=9,25=1,30=1,71=1/1,2,3;
 4/5=5,16=3,69=1/1;
 5/5=2,32=2,38=5/2;
 8/6=4,10=2/1;
 9/15=2,16=-3/6;
 10/5=1,31=1/2;
 7/12=2,30=1/1,2,3,16;
 1/6=20,18=20,19=15/3(-8);
 2/9=110,15=1/2;
 6/7=2,8=2,9=2,10=2/1;
 99/9=10/99;
 --------
 MolName:
 --------
 Symbolic Z-matrix:
 Charge =  0 Multiplicity = 1
 8                    0    -3.62825  -1.43391  -0.18658 
 7                    0    -3.25815  -0.2718   -0.02842 
 8                    0    -4.02997   0.67268   0.14259 
 6                    0    -1.7543    0.00011  -0.02625 
 6                    0    -1.36132   1.32416   0.19826 
 7                    0    -0.0835    1.75398   0.44365 
 6                    0     1.19777   0.98762   0.38987 
 1                    0     1.86991   1.47931   1.14022 
 6                    0     1.9445    1.05421  -0.96586 
 6                    0     3.36052   0.47021  -0.80003 
 6                    0     3.31015  -0.9516   -0.21857 
 6                    0     2.47838  -1.00004   1.08125 
 6                    0     1.037    -0.46686   0.85591 
 1                    0     0.49821  -0.51578   1.8312 
 7                    0     0.37195  -1.33166  -0.12155 
 6                    0    -0.87379  -1.13629  -0.40455 
 1                    0    -2.13698   2.10771   0.18347 
 1                    0     0.15769   2.74562   0.37533 
 1                    0     1.38676   0.48334  -1.73842 
 1                    0     2.02261   2.10789  -1.30836 
 1                    0     3.88279   0.45716  -1.78167 
 1                    0     3.94454   1.11911  -0.10976 
 1                    0     2.85564  -1.63505  -0.97094 
 1                    0     4.34184  -1.31435  -0.01795 
 1                    0     2.42781  -2.04993   1.44445 
 1                    0     2.98     -0.39457   1.86496 
 1                    0    -1.38179  -1.89827  -1.01525 
 
 The following ModRedundant input section has been read:
 D      16       4       5      17 F                                           
 D       1       2       4      16 F                                           
 D       7      13      15      16 F                                           
 D       7       9      10      11 F                                           
 D       9      10      11      12 F                                           
 D       6       7      13      15 F                                           
 

 GradGradGradGradGradGradGradGradGradGradGradGradGradGradGradGradGradGrad
 Berny optimization.
 Initialization pass.
                           ----------------------------
                           !    Initial Parameters    !
                           ! (Angstroms and Degrees)  !
 --------------------------                            --------------------------
 ! Name  Definition              Value          Derivative Info.                !
 --------------------------------------------------------------------------------
 ! R1    R(1,2)                  1.2298         estimate D2E/DX2                !
 ! R2    R(2,3)                  1.2317         estimate D2E/DX2                !
 ! R3    R(2,4)                  1.5282         estimate D2E/DX2                !
 ! R4    R(4,5)                  1.3993         estimate D2E/DX2                !
 ! R5    R(4,16)                 1.4865         estimate D2E/DX2                !
 ! R6    R(5,6)                  1.3703         estimate D2E/DX2                !
 ! R7    R(5,17)                 1.1026         estimate D2E/DX2                !
 ! R8    R(6,7)                  1.4939         estimate D2E/DX2                !
 ! R9    R(6,18)                 1.0228         estimate D2E/DX2                !
 ! R10   R(7,8)                  1.121          estimate D2E/DX2                !
 ! R11   R(7,9)                  1.5492         estimate D2E/DX2                !
 ! R12   R(7,13)                 1.5358         estimate D2E/DX2                !
 ! R13   R(9,10)                 1.5407         estimate D2E/DX2                !
 ! R14   R(9,19)                 1.1108         estimate D2E/DX2                !
 ! R15   R(9,20)                 1.1107         estimate D2E/DX2                !
 ! R16   R(10,11)                1.5369         estimate D2E/DX2                !
 ! R17   R(10,21)                1.112          estimate D2E/DX2                !
 ! R18   R(10,22)                1.1129         estimate D2E/DX2                !
 ! R19   R(11,12)                1.5439         estimate D2E/DX2                !
 ! R20   R(11,23)                1.1134         estimate D2E/DX2                !
 ! R21   R(11,24)                1.1119         estimate D2E/DX2                !
 ! R22   R(12,13)                1.5533         estimate D2E/DX2                !
 ! R23   R(12,25)                1.1121         estimate D2E/DX2                !
 ! R24   R(12,26)                1.1101         estimate D2E/DX2                !
 ! R25   R(13,14)                1.1153         estimate D2E/DX2                !
 ! R26   R(13,15)                1.4648         estimate D2E/DX2                !
 ! R27   R(15,16)                1.2923         estimate D2E/DX2                !
 ! R28   R(16,27)                1.1007         estimate D2E/DX2                !
 ! A1    A(1,2,3)              123.6337         estimate D2E/DX2                !
 ! A2    A(1,2,4)              117.6741         estimate D2E/DX2                !
 ! A3    A(3,2,4)              118.6863         estimate D2E/DX2                !
 ! A4    A(2,4,5)              116.4204         estimate D2E/DX2                !
 ! A5    A(2,4,16)             116.5188         estimate D2E/DX2                !
 ! A6    A(5,4,16)             126.7157         estimate D2E/DX2                !
 ! A7    A(4,5,6)              125.9744         estimate D2E/DX2                !
 ! A8    A(4,5,17)             118.2096         estimate D2E/DX2                !
 ! A9    A(6,5,17)             115.8158         estimate D2E/DX2                !
 ! A10   A(5,6,7)              129.2275         estimate D2E/DX2                !
 ! A11   A(5,6,18)             120.7987         estimate D2E/DX2                !
 ! A12   A(7,6,18)             107.0192         estimate D2E/DX2                !
 ! A13   A(6,7,8)              105.3757         estimate D2E/DX2                !
 ! A14   A(6,7,9)              115.0144         estimate D2E/DX2                !
 ! A15   A(6,7,13)             112.6515         estimate D2E/DX2                !
 ! A16   A(8,7,9)              106.1356         estimate D2E/DX2                !
 ! A17   A(8,7,13)             105.9655         estimate D2E/DX2                !
 ! A18   A(9,7,13)             110.8994         estimate D2E/DX2                !
 ! A19   A(7,9,10)             109.4221         estimate D2E/DX2                !
 ! A20   A(7,9,19)             110.1536         estimate D2E/DX2                !
 ! A21   A(7,9,20)             110.153          estimate D2E/DX2                !
 ! A22   A(10,9,19)            109.971          estimate D2E/DX2                !
 ! A23   A(10,9,20)            109.1567         estimate D2E/DX2                !
 ! A24   A(19,9,20)            107.9626         estimate D2E/DX2                !
 ! A25   A(9,10,11)            111.1777         estimate D2E/DX2                !
 ! A26   A(9,10,21)            109.9438         estimate D2E/DX2                !
 ! A27   A(9,10,22)            109.1504         estimate D2E/DX2                !
 ! A28   A(11,10,21)           109.786          estimate D2E/DX2                !
 ! A29   A(11,10,22)           108.7797         estimate D2E/DX2                !
 ! A30   A(21,10,22)           107.9325         estimate D2E/DX2                !
 ! A31   A(10,11,12)           111.4191         estimate D2E/DX2                !
 ! A32   A(10,11,23)           109.0006         estimate D2E/DX2                !
 ! A33   A(10,11,24)           109.8569         estimate D2E/DX2                !
 ! A34   A(12,11,23)           109.2511         estimate D2E/DX2                !
 ! A35   A(12,11,24)           109.7397         estimate D2E/DX2                !
 ! A36   A(23,11,24)           107.4837         estimate D2E/DX2                !
 ! A37   A(11,12,13)           111.5321         estimate D2E/DX2                !
 ! A38   A(11,12,25)           109.2125         estimate D2E/DX2                !
 ! A39   A(11,12,26)           109.4993         estimate D2E/DX2                !
 ! A40   A(13,12,25)           109.2232         estimate D2E/DX2                !
 ! A41   A(13,12,26)           109.5424         estimate D2E/DX2                !
 ! A42   A(25,12,26)           107.7511         estimate D2E/DX2                !
 ! A43   A(7,13,12)            105.782          estimate D2E/DX2                !
 ! A44   A(7,13,14)            110.9455         estimate D2E/DX2                !
 ! A45   A(7,13,15)            113.8396         estimate D2E/DX2                !
 ! A46   A(12,13,14)           107.8409         estimate D2E/DX2                !
 ! A47   A(12,13,15)           108.3891         estimate D2E/DX2                !
 ! A48   A(14,13,15)           109.7737         estimate D2E/DX2                !
 ! A49   A(13,15,16)           119.6389         estimate D2E/DX2                !
 ! A50   A(4,16,15)            129.1095         estimate D2E/DX2                !
 ! A51   A(4,16,27)            113.392          estimate D2E/DX2                !
 ! A52   A(15,16,27)           117.4976         estimate D2E/DX2                !
 ! D1    D(1,2,4,5)           -178.0268         estimate D2E/DX2                !
 ! D2    D(1,2,4,16)             8.2591         Frozen                          !
 ! D3    D(3,2,4,5)              1.1282         estimate D2E/DX2                !
 ! D4    D(3,2,4,16)          -172.5859         estimate D2E/DX2                !
 ! D5    D(2,4,5,6)            169.3641         estimate D2E/DX2                !
 ! D6    D(2,4,5,17)           -10.4301         estimate D2E/DX2                !
 ! D7    D(16,4,5,6)           -17.6559         estimate D2E/DX2                !
 ! D8    D(16,4,5,17)          162.5499         Frozen                          !
 ! D9    D(2,4,16,15)         -157.2589         estimate D2E/DX2                !
 ! D10   D(2,4,16,27)           23.1064         estimate D2E/DX2                !
 ! D11   D(5,4,16,15)           29.7672         estimate D2E/DX2                !
 ! D12   D(5,4,16,27)         -149.8675         estimate D2E/DX2                !
 ! D13   D(4,5,6,7)              7.3137         estimate D2E/DX2                !
 ! D14   D(4,5,6,18)           165.2114         estimate D2E/DX2                !
 ! D15   D(17,5,6,7)          -172.8878         estimate D2E/DX2                !
 ! D16   D(17,5,6,18)          -14.9901         estimate D2E/DX2                !
 ! D17   D(5,6,7,8)           -150.3174         estimate D2E/DX2                !
 ! D18   D(5,6,7,9)             93.1713         estimate D2E/DX2                !
 ! D19   D(5,6,7,13)           -35.2383         estimate D2E/DX2                !
 ! D20   D(18,6,7,8)            49.4377         estimate D2E/DX2                !
 ! D21   D(18,6,7,9)           -67.0737         estimate D2E/DX2                !
 ! D22   D(18,6,7,13)          164.5168         estimate D2E/DX2                !
 ! D23   D(6,7,9,10)           168.7534         estimate D2E/DX2                !
 ! D24   D(6,7,9,19)           -70.2373         estimate D2E/DX2                !
 ! D25   D(6,7,9,20)            48.7506         estimate D2E/DX2                !
 ! D26   D(8,7,9,10)            52.676          estimate D2E/DX2                !
 ! D27   D(8,7,9,19)           173.6852         estimate D2E/DX2                !
 ! D28   D(8,7,9,20)           -67.3269         estimate D2E/DX2                !
 ! D29   D(13,7,9,10)          -61.9678         estimate D2E/DX2                !
 ! D30   D(13,7,9,19)           59.0414         estimate D2E/DX2                !
 ! D31   D(13,7,9,20)          178.0293         estimate D2E/DX2                !
 ! D32   D(6,7,13,12)         -166.0776         estimate D2E/DX2                !
 ! D33   D(6,7,13,14)          -49.3926         estimate D2E/DX2                !
 ! D34   D(6,7,13,15)           75.0216         Frozen                          !
 ! D35   D(8,7,13,12)          -51.355          estimate D2E/DX2                !
 ! D36   D(8,7,13,14)           65.3301         estimate D2E/DX2                !
 ! D37   D(8,7,13,15)         -170.2558         estimate D2E/DX2                !
 ! D38   D(9,7,13,12)           63.3953         estimate D2E/DX2                !
 ! D39   D(9,7,13,14)         -179.9197         estimate D2E/DX2                !
 ! D40   D(9,7,13,15)          -55.5055         estimate D2E/DX2                !
 ! D41   D(7,9,10,11)           54.8121         Frozen                          !
 ! D42   D(7,9,10,21)          176.5993         estimate D2E/DX2                !
 ! D43   D(7,9,10,22)          -65.1886         estimate D2E/DX2                !
 ! D44   D(19,9,10,11)         -66.3078         estimate D2E/DX2                !
 ! D45   D(19,9,10,21)          55.4794         estimate D2E/DX2                !
 ! D46   D(19,9,10,22)         173.6914         estimate D2E/DX2                !
 ! D47   D(20,9,10,11)         175.4238         estimate D2E/DX2                !
 ! D48   D(20,9,10,21)         -62.789          estimate D2E/DX2                !
 ! D49   D(20,9,10,22)          55.423          estimate D2E/DX2                !
 ! D50   D(9,10,11,12)         -52.8218         Frozen                          !
 ! D51   D(9,10,11,23)          67.8191         estimate D2E/DX2                !
 ! D52   D(9,10,11,24)        -174.6525         estimate D2E/DX2                !
 ! D53   D(21,10,11,12)       -174.7009         estimate D2E/DX2                !
 ! D54   D(21,10,11,23)        -54.06           estimate D2E/DX2                !
 ! D55   D(21,10,11,24)         63.4685         estimate D2E/DX2                !
 ! D56   D(22,10,11,12)         67.3986         estimate D2E/DX2                !
 ! D57   D(22,10,11,23)       -171.9605         estimate D2E/DX2                !
 ! D58   D(22,10,11,24)        -54.4321         estimate D2E/DX2                !
 ! D59   D(10,11,12,13)         56.6509         estimate D2E/DX2                !
 ! D60   D(10,11,12,25)        177.4695         estimate D2E/DX2                !
 ! D61   D(10,11,12,26)        -64.7616         estimate D2E/DX2                !
 ! D62   D(23,11,12,13)        -63.843          estimate D2E/DX2                !
 ! D63   D(23,11,12,25)         56.9756         estimate D2E/DX2                !
 ! D64   D(23,11,12,26)        174.7446         estimate D2E/DX2                !
 ! D65   D(24,11,12,13)        178.5493         estimate D2E/DX2                !
 ! D66   D(24,11,12,25)        -60.6321         estimate D2E/DX2                !
 ! D67   D(24,11,12,26)         57.1369         estimate D2E/DX2                !
 ! D68   D(11,12,13,7)         -60.4543         estimate D2E/DX2                !
 ! D69   D(11,12,13,14)       -179.2191         estimate D2E/DX2                !
 ! D70   D(11,12,13,15)         61.9962         estimate D2E/DX2                !
 ! D71   D(25,12,13,7)         178.7333         estimate D2E/DX2                !
 ! D72   D(25,12,13,14)         59.9685         estimate D2E/DX2                !
 ! D73   D(25,12,13,15)        -58.8162         estimate D2E/DX2                !
 ! D74   D(26,12,13,7)          60.9331         estimate D2E/DX2                !
 ! D75   D(26,12,13,14)        -57.8317         estimate D2E/DX2                !
 ! D76   D(26,12,13,15)       -176.6164         estimate D2E/DX2                !
 ! D77   D(7,13,15,16)         -67.1594         Frozen                          !
 ! D78   D(12,13,15,16)        175.4375         estimate D2E/DX2                !
 ! D79   D(14,13,15,16)         57.8821         estimate D2E/DX2                !
 ! D80   D(13,15,16,4)           9.9991         estimate D2E/DX2                !
 ! D81   D(13,15,16,27)       -170.3788         estimate D2E/DX2                !
 --------------------------------------------------------------------------------
 Trust Radius=3.00D-01 FncErr=1.00D-07 GrdErr=1.00D-07 EigMax=2.50D+02 EigMin=1.00D-04
 Number of steps in this run=     20 maximum allowed number of steps=    162.
 GradGradGradGradGradGradGradGradGradGradGradGradGradGradGradGradGradGrad

                          Input orientation:                          
 ---------------------------------------------------------------------
 Center     Atomic      Atomic             Coordinates (Angstroms)
 Number     Number       Type             X           Y           Z
 ---------------------------------------------------------------------
      1          8           0       -3.628250   -1.433910   -0.186580
      2          7           0       -3.258150   -0.271800   -0.028420
      3          8           0       -4.029970    0.672680    0.142590
      4          6           0       -1.754300    0.000110   -0.026250
      5          6           0       -1.361320    1.324160    0.198260
      6          7           0       -0.083500    1.753980    0.443650
      7          6           0        1.197770    0.987620    0.389870
      8          1           0        1.869910    1.479310    1.140220
      9          6           0        1.944500    1.054210   -0.965860
     10          6           0        3.360520    0.470210   -0.800030
     11          6           0        3.310150   -0.951600   -0.218570
     12          6           0        2.478380   -1.000040    1.081250
     13          6           0        1.037000   -0.466860    0.855910
     14          1           0        0.498210   -0.515780    1.831200
     15          7           0        0.371950   -1.331660   -0.121550
     16          6           0       -0.873790   -1.136290   -0.404550
     17          1           0       -2.136980    2.107710    0.183470
     18          1           0        0.157690    2.745620    0.375330
     19          1           0        1.386760    0.483340   -1.738420
     20          1           0        2.022610    2.107890   -1.308360
     21          1           0        3.882790    0.457160   -1.781670
     22          1           0        3.944540    1.119110   -0.109760
     23          1           0        2.855640   -1.635050   -0.970940
     24          1           0        4.341840   -1.314350   -0.017950
     25          1           0        2.427810   -2.049930    1.444450
     26          1           0        2.980000   -0.394570    1.864960
     27          1           0       -1.381790   -1.898270   -1.015250
 ---------------------------------------------------------------------
                    Distance matrix (angstroms):
                    1          2          3          4          5
     1  O    0.000000
     2  N    1.229833   0.000000
     3  O    2.169667   1.231663   0.000000
     4  C    2.365123   1.528236   2.378977   0.000000
     5  C    3.590825   2.489264   2.747584   1.399266   0.000000
     6  N    4.808855   3.795397   4.102983   2.467476   1.370323
     7  C    5.430154   4.649336   5.243053   3.140549   2.588226
     8  H    6.362155   5.543384   6.037756   4.084554   3.369304
     9  C    6.152525   5.450198   6.088392   3.959181   3.515181
    10  C    7.269450   6.704681   7.453111   5.194335   4.901182
    11  C    6.955217   6.606122   7.526359   5.156684   5.213009
    12  C    6.251925   5.888079   6.785108   4.488033   4.574371
    13  C    4.877143   4.389579   5.242286   2.964393   3.064669
    14  H    4.684236   4.198566   4.976772   2.964804   3.083784
    15  N    4.002035   3.782804   4.843970   2.510704   3.187457
    16  C    2.779054   2.563979   3.678751   1.486544   2.579705
    17  H    3.860556   2.638937   2.375793   2.152302   1.102641
    18  H    5.667235   4.575566   4.678434   3.369688   2.087892
    19  H    5.588773   5.006948   5.737161   3.609889   3.465494
    20  H    6.762762   5.931913   6.387394   4.511274   3.786175
    21  H    7.907982   7.389066   8.146226   5.921755   5.672081
    22  H    7.991931   7.336211   7.990982   5.808262   5.318747
    23  H    6.534256   6.334447   7.346917   4.981740   5.282680
    24  H    7.972770   7.671171   8.605885   6.236249   6.287648
    25  H    6.302032   6.136875   7.128139   4.884226   5.224460
    26  H    6.997000   6.520313   7.296935   5.113320   4.957719
    27  H    2.439038   2.672071   3.868234   2.172724   3.443411
                    6          7          8          9         10
     6  N    0.000000
     7  C    1.493939   0.000000
     8  H    2.092000   1.120962   0.000000
     9  C    2.566940   1.549207   2.149848   0.000000
    10  C    3.880216   2.522115   2.646653   1.540671   0.000000
    11  C    4.390394   2.931369   3.135271   2.539038   1.536937
    12  C    3.815022   2.463485   2.553603   2.948835   2.545392
    13  C    2.521430   1.535758   2.135919   2.540877   3.003162
    14  H    2.723140   2.197050   2.517816   3.518546   4.011031
    15  N    3.169867   2.514476   3.426004   2.979622   3.555084
    16  C    3.114107   3.071393   4.093356   3.613325   4.546056
    17  H    2.099904   3.523884   4.167184   4.369130   5.819896
    18  H    1.022834   2.042680   2.262807   2.802204   4.100864
    19  H    2.921921   2.195366   3.084146   1.110772   2.185515
    20  H    2.762334   2.195302   2.532583   1.110698   2.174948
    21  H    4.729191   3.493752   3.692414   2.186088   1.112004
    22  H    4.115146   2.794936   2.448731   2.176529   1.112935
    23  H    4.703736   3.388028   3.889460   2.839423   2.171689
    24  H    5.404753   3.917979   3.905935   3.500835   2.181580
    25  H    4.666692   3.442651   3.585993   3.959655   3.501249
    26  H    4.002677   2.694937   2.295425   3.344363   2.827510
    27  H    4.141603   4.117870   5.160199   4.447896   5.305235
                   11         12         13         14         15
    11  C    0.000000
    12  C    1.543930   0.000000
    13  C    2.560604   1.553266   0.000000
    14  H    3.506922   2.172097   1.115293   0.000000
    15  N    2.964267   2.448213   1.464786   2.120102   0.000000
    16  C    4.192142   3.669225   2.384956   2.695551   1.292334
    17  H    6.260371   5.636104   4.141828   4.067178   4.268142
    18  H    4.894911   4.462499   3.365141   3.587791   4.113029
    19  H    2.840497   3.367876   2.784917   3.811817   2.634072
    20  H    3.493692   3.946795   3.504972   4.366266   3.995460
    21  H    2.180780   3.506011   3.988629   5.045277   4.275731
    22  H    2.168440   2.838825   3.449871   4.279881   4.332414
    23  H    1.113438   2.181065   2.830106   3.829129   2.642390
    24  H    1.111854   2.186210   3.521908   4.339419   3.971279
    25  H    2.179561   1.112088   2.187885   2.495305   2.682318
    26  H    2.181829   1.110143   2.190584   2.484978   3.409734
    27  H    4.852338   4.483642   3.376495   3.680755   2.048255
                   16         17         18         19         20
    16  C    0.000000
    17  H    3.530574   0.000000
    18  H    4.091624   2.389404   0.000000
    19  H    3.084234   4.330010   3.331135   0.000000
    20  H    4.441926   4.419021   2.592188   1.796780   0.000000
    21  H    5.201980   6.543984   4.875045   2.496542   2.531640
    22  H    5.328230   6.168322   4.149829   3.098221   2.471466
    23  H    3.805024   6.345642   5.318049   2.689649   3.849336
    24  H    5.232969   7.329814   5.843384   3.863186   4.330787
    25  H    3.892827   6.301853   5.412371   4.199036   5.002961
    26  H    4.533489   5.939049   4.477189   4.036519   4.153175
    27  H    1.100742   4.249131   5.086200   3.722890   5.265470
                   21         22         23         24         25
    21  H    0.000000
    22  H    1.799243   0.000000
    23  H    2.467724   3.084272   0.000000
    24  H    2.541591   2.467388   1.794388   0.000000
    25  H    4.337086   3.841725   2.487825   2.518572   0.000000
    26  H    3.852062   2.668536   3.097836   2.499191   1.794982
    27  H    5.818183   6.188238   4.245829   5.839136   4.537199
                   26         27
    26  H    0.000000
    27  H    5.438928   0.000000
 Symmetry turned off by external request.
 Stoichiometry    C9H13N3O2
 Framework group  C1[X(C9H13N3O2)]
 Deg. of freedom    75
 Full point group                 C1      NOp   1
 Rotational constants (GHZ):           1.6718188           0.4006193           0.3552289
 Standard basis: 6-31G(d) (6D, 7F)
   236 basis functions,   444 primitive gaussians,   236 cartesian basis functions
    52 alpha electrons       52 beta electrons
       nuclear repulsion energy       917.4264179034 Hartrees.
 NAtoms=   27 NActive=   27 NUniq=   27 SFac= 1.00D+00 NAtFMM=   60 NAOKFM=F Big=F
 Integral buffers will be    131072 words long.
 Raffenetti 1 integral format.
 Two-electron integral symmetry is turned off.
 One-electron integrals computed using PRISM.
 NBasis=   236 RedAO= T EigKep=  1.28D-03  NBF=   236
 NBsUse=   236 1.00D-06 EigRej= -1.00D+00 NBFU=   236
 ExpMin= 1.61D-01 ExpMax= 5.48D+03 ExpMxC= 8.25D+02 IAcc=3 IRadAn=         5 AccDes= 0.00D+00
 Harris functional with IExCor=  205 and IRadAn=       5 diagonalized for initial guess.
 HarFok:  IExCor=  205 AccDes= 0.00D+00 IRadAn=         5 IDoV= 1 UseB2=F ITyADJ=14
 ICtDFT=  3500011 ScaDFX=  1.000000  1.000000  1.000000  1.000000
 FoFCou: FMM=F IPFlag=           0 FMFlag=      100000 FMFlg1=           0
         NFxFlg=           0 DoJE=T BraDBF=F KetDBF=T FulRan=T
         wScrn=  0.000000 ICntrl=       500 IOpCl=  0 I1Cent=   200000004 NGrid=           0
         NMat0=    1 NMatS0=      1 NMatT0=    0 NMatD0=    1 NMtDS0=    0 NMtDT0=    0
 Symmetry not used in FoFCou.
 Keep R1 ints in memory in canonical form, NReq=397720213.
 Requested convergence on RMS density matrix=1.00D-08 within 128 cycles.
 Requested convergence on MAX density matrix=1.00D-06.
 Requested convergence on             energy=1.00D-06.
 No special actions if energy rises.
 SCF Done:  E(RHF) =  -661.281605953     A.U. after   16 cycles
            NFock= 16  Conv=0.62D-08     -V/T= 2.0037
 ExpMin= 1.61D-01 ExpMax= 5.48D+03 ExpMxC= 8.25D+02 IAcc=3 IRadAn=         5 AccDes= 0.00D+00
 HarFok:  IExCor=  205 AccDes= 0.00D+00 IRadAn=         5 IDoV=-2 UseB2=F ITyADJ=14
 ICtDFT= 12500011 ScaDFX=  1.000000  1.000000  1.000000  1.000000
 Range of M.O.s used for correlation:    15   236
 NBasis=   236 NAE=    52 NBE=    52 NFC=    14 NFV=     0
 NROrb=    222 NOA=    38 NOB=    38 NVA=   184 NVB=   184
 Fully direct method using O(ONN) memory.
 JobTyp=1 Pass  1:  I=  15 to  52 NPSUse=  4 ParTrn=T ParDer=T DoDerP=T.
 Spin components of T(2) and E(2):
     alpha-alpha T2 =       0.9201182369D-01 E2=     -0.2718266292D+00
     alpha-beta  T2 =       0.4994570912D+00 E2=     -0.1493615910D+01
     beta-beta   T2 =       0.9201182369D-01 E2=     -0.2718266292D+00
 ANorm=    0.1297490169D+01
 E2 =    -0.2037269168D+01 EUMP2 =    -0.66331887512161D+03
          IDoAtm=111111111111111111111111111
          Differentiating once with respect to electric field.
                with respect to dipole field.
          Differentiating once with respect to nuclear coordinates.
 Keep R1 ints in memory in canonical form, NReq=397723379.
          There are     1 degrees of freedom in the 1st order CPHF.  IDoFFX=0 NUNeed=     1.
 LinEq1:  Iter=  0 NonCon=     1 RMS=4.63D-03 Max=1.19D-01 NDo=     1
 AX will form     1 AO Fock derivatives at one time.
 LinEq1:  Iter=  1 NonCon=     1 RMS=1.57D-03 Max=3.06D-02 NDo=     1
 LinEq1:  Iter=  2 NonCon=     1 RMS=6.43D-04 Max=1.93D-02 NDo=     1
 LinEq1:  Iter=  3 NonCon=     1 RMS=2.94D-04 Max=9.58D-03 NDo=     1
 LinEq1:  Iter=  4 NonCon=     1 RMS=9.03D-05 Max=2.11D-03 NDo=     1
 LinEq1:  Iter=  5 NonCon=     1 RMS=3.73D-05 Max=1.88D-03 NDo=     1
 LinEq1:  Iter=  6 NonCon=     1 RMS=1.52D-05 Max=5.57D-04 NDo=     1
 LinEq1:  Iter=  7 NonCon=     1 RMS=5.83D-06 Max=9.62D-05 NDo=     1
 LinEq1:  Iter=  8 NonCon=     1 RMS=2.30D-06 Max=5.67D-05 NDo=     1
 LinEq1:  Iter=  9 NonCon=     1 RMS=8.38D-07 Max=2.37D-05 NDo=     1
 LinEq1:  Iter= 10 NonCon=     1 RMS=4.10D-07 Max=1.48D-05 NDo=     1
 LinEq1:  Iter= 11 NonCon=     1 RMS=1.49D-07 Max=5.67D-06 NDo=     1
 LinEq1:  Iter= 12 NonCon=     1 RMS=5.24D-08 Max=8.44D-07 NDo=     1
 LinEq1:  Iter= 13 NonCon=     1 RMS=1.61D-08 Max=2.92D-07 NDo=     1
 LinEq1:  Iter= 14 NonCon=     1 RMS=4.68D-09 Max=8.83D-08 NDo=     1
 LinEq1:  Iter= 15 NonCon=     1 RMS=1.58D-09 Max=3.31D-08 NDo=     1
 LinEq1:  Iter= 16 NonCon=     1 RMS=6.12D-10 Max=1.05D-08 NDo=     1
 LinEq1:  Iter= 17 NonCon=     1 RMS=2.07D-10 Max=3.25D-09 NDo=     1
 LinEq1:  Iter= 18 NonCon=     1 RMS=7.50D-11 Max=1.03D-09 NDo=     1
 LinEq1:  Iter= 19 NonCon=     0 RMS=2.58D-11 Max=4.00D-10 NDo=     1
 Linear equations converged to 1.000D-10 1.000D-09 after    19 iterations.
 End of Minotr F.D. properties file   721 does not exist.
 End of Minotr F.D. properties file   722 does not exist.
 End of Minotr F.D. properties file   788 does not exist.

 **********************************************************************

            Population analysis using the SCF Density.

 **********************************************************************

 Alpha  occ. eigenvalues --  -20.59657 -20.59252 -15.85155 -15.63873 -15.56517
 Alpha  occ. eigenvalues --  -11.36063 -11.30411 -11.30204 -11.29865 -11.27600
 Alpha  occ. eigenvalues --  -11.24721 -11.23935 -11.23359 -11.22850  -1.58340
 Alpha  occ. eigenvalues --   -1.37842  -1.28860  -1.22638  -1.13304  -1.08364
 Alpha  occ. eigenvalues --   -1.01807  -1.00711  -0.93662  -0.88910  -0.84978
 Alpha  occ. eigenvalues --   -0.81537  -0.77942  -0.77006  -0.74331  -0.71373
 Alpha  occ. eigenvalues --   -0.70142  -0.69690  -0.67313  -0.64373  -0.63246
 Alpha  occ. eigenvalues --   -0.62103  -0.59890  -0.57134  -0.56688  -0.54839
 Alpha  occ. eigenvalues --   -0.54089  -0.50644  -0.49602  -0.48378  -0.47908
 Alpha  occ. eigenvalues --   -0.47612  -0.46209  -0.45674  -0.43914  -0.41985
 Alpha  occ. eigenvalues --   -0.39709  -0.33633
 Alpha virt. eigenvalues --    0.07644   0.11979   0.17564   0.21142   0.23020
 Alpha virt. eigenvalues --    0.24213   0.26712   0.28045   0.28499   0.28866
 Alpha virt. eigenvalues --    0.29907   0.31123   0.31825   0.32328   0.33291
 Alpha virt. eigenvalues --    0.33830   0.34377   0.35554   0.37547   0.38655
 Alpha virt. eigenvalues --    0.40431   0.41585   0.44211   0.45193   0.45518
 Alpha virt. eigenvalues --    0.46612   0.49803   0.53102   0.57143   0.58804
 Alpha virt. eigenvalues --    0.63374   0.68854   0.69174   0.72304   0.74026
 Alpha virt. eigenvalues --    0.74949   0.75716   0.75872   0.78157   0.78672
 Alpha virt. eigenvalues --    0.80460   0.83949   0.84644   0.85540   0.87659
 Alpha virt. eigenvalues --    0.88797   0.90365   0.90673   0.91957   0.93942
 Alpha virt. eigenvalues --    0.94832   0.97369   0.98854   1.00429   1.02042
 Alpha virt. eigenvalues --    1.02796   1.05034   1.06203   1.06928   1.08616
 Alpha virt. eigenvalues --    1.09631   1.10475   1.11512   1.12251   1.13199
 Alpha virt. eigenvalues --    1.13783   1.13909   1.15487   1.16074   1.17192
 Alpha virt. eigenvalues --    1.17896   1.19869   1.21051   1.21699   1.22591
 Alpha virt. eigenvalues --    1.24064   1.24631   1.25409   1.26328   1.27744
 Alpha virt. eigenvalues --    1.29620   1.31573   1.33889   1.36563   1.39785
 Alpha virt. eigenvalues --    1.42819   1.44963   1.47789   1.49617   1.53331
 Alpha virt. eigenvalues --    1.55027   1.57229   1.59313   1.61618   1.67325
 Alpha virt. eigenvalues --    1.68319   1.70129   1.70968   1.74711   1.75499
 Alpha virt. eigenvalues --    1.78504   1.80885   1.85072   1.88893   1.91713
 Alpha virt. eigenvalues --    1.94054   1.95674   1.98144   1.99185   1.99853
 Alpha virt. eigenvalues --    2.03217   2.03333   2.06480   2.09155   2.11947
 Alpha virt. eigenvalues --    2.12431   2.13211   2.17579   2.18646   2.19474
 Alpha virt. eigenvalues --    2.20839   2.22518   2.24030   2.25512   2.26217
 Alpha virt. eigenvalues --    2.29903   2.31971   2.32972   2.35636   2.35753
 Alpha virt. eigenvalues --    2.39283   2.40175   2.42084   2.43609   2.46970
 Alpha virt. eigenvalues --    2.48514   2.49505   2.50561   2.56288   2.57846
 Alpha virt. eigenvalues --    2.60607   2.63043   2.66002   2.68315   2.69015
 Alpha virt. eigenvalues --    2.69733   2.70382   2.74600   2.77242   2.81280
 Alpha virt. eigenvalues --    2.84493   2.86333   2.90190   2.91253   2.94820
 Alpha virt. eigenvalues --    2.97290   2.98460   3.02048   3.04087   3.05672
 Alpha virt. eigenvalues --    3.07478   3.13627   3.18303   3.22909   3.27139
 Alpha virt. eigenvalues --    3.31846   3.34240   3.37554   3.43195   3.59627
 Alpha virt. eigenvalues --    4.10414   4.23744   4.31726   4.35947   4.43350
 Alpha virt. eigenvalues --    4.52516   4.59632   4.60841   4.70571   4.77993
 Alpha virt. eigenvalues --    4.96010   4.99247   5.02706   5.10221
          Condensed to atoms (all electrons):
               1          2          3          4          5          6
     1  O    8.301581   0.313046  -0.089648  -0.079467   0.003638  -0.000011
     2  N    0.313046   5.679069   0.309612   0.268212  -0.047030   0.000837
     3  O   -0.089648   0.309612   8.333100  -0.088101   0.008007   0.000439
     4  C   -0.079467   0.268212  -0.088101   5.253614   0.566890  -0.049088
     5  C    0.003638  -0.047030   0.008007   0.566890   4.671574   0.308406
     6  N   -0.000011   0.000837   0.000439  -0.049088   0.308406   7.171683
     7  C    0.000003  -0.000088   0.000003   0.004717  -0.028469   0.201483
     8  H   -0.000000   0.000001  -0.000000  -0.000262   0.003062  -0.047851
     9  C   -0.000000  -0.000002   0.000000   0.000625   0.000459  -0.057029
    10  C   -0.000000   0.000000  -0.000000  -0.000026  -0.000029   0.003345
    11  C   -0.000000  -0.000000  -0.000000  -0.000012   0.000015  -0.000156
    12  C   -0.000000   0.000001  -0.000000  -0.000130  -0.000188   0.003649
    13  C   -0.000019  -0.000021  -0.000003  -0.010051   0.000375  -0.046984
    14  H   -0.000002  -0.000070   0.000000   0.002824   0.003765  -0.005413
    15  N    0.000209   0.001675  -0.000012  -0.062506  -0.003517   0.001549
    16  C    0.003053  -0.026402   0.002059   0.317143  -0.041915  -0.000726
    17  H    0.000134  -0.004782   0.012401  -0.024966   0.374650  -0.033495
    18  H    0.000000  -0.000035   0.000006   0.001366  -0.024840   0.329012
    19  H    0.000000  -0.000001   0.000000  -0.000921   0.001036   0.000305
    20  H    0.000000  -0.000000   0.000000  -0.000024   0.000047  -0.001182
    21  H   -0.000000  -0.000000   0.000000   0.000000   0.000001  -0.000061
    22  H   -0.000000   0.000000  -0.000000  -0.000000  -0.000002  -0.000093
    23  H    0.000000  -0.000000   0.000000   0.000024  -0.000001  -0.000024
    24  H    0.000000   0.000000   0.000000   0.000000  -0.000000   0.000005
    25  H    0.000000  -0.000000   0.000000   0.000018   0.000001  -0.000072
    26  H    0.000000  -0.000000   0.000000   0.000005   0.000000  -0.000069
    27  H    0.005709  -0.000405   0.000021  -0.066946   0.001847   0.000034
               7          8          9         10         11         12
     1  O    0.000003  -0.000000  -0.000000  -0.000000  -0.000000  -0.000000
     2  N   -0.000088   0.000001  -0.000002   0.000000  -0.000000   0.000001
     3  O    0.000003  -0.000000   0.000000  -0.000000  -0.000000  -0.000000
     4  C    0.004717  -0.000262   0.000625  -0.000026  -0.000012  -0.000130
     5  C   -0.028469   0.003062   0.000459  -0.000029   0.000015  -0.000188
     6  N    0.201483  -0.047851  -0.057029   0.003345  -0.000156   0.003649
     7  C    5.019927   0.414855   0.342020  -0.049257  -0.007872  -0.064461
     8  H    0.414855   0.544135  -0.059227   0.001263  -0.000311  -0.002935
     9  C    0.342020  -0.059227   5.178956   0.318434  -0.053150  -0.005980
    10  C   -0.049257   0.001263   0.318434   5.126486   0.332645  -0.060335
    11  C   -0.007872  -0.000311  -0.053150   0.332645   5.124479   0.330413
    12  C   -0.064461  -0.002935  -0.005980  -0.060335   0.330413   5.138113
    13  C    0.327521  -0.039177  -0.053080  -0.001269  -0.047808   0.368411
    14  H   -0.040399  -0.001009   0.003852  -0.000391   0.003975  -0.040816
    15  N   -0.057980   0.003908  -0.012310   0.001334  -0.007697  -0.074445
    16  C   -0.002561   0.000042  -0.000868  -0.000028  -0.000003   0.002432
    17  H    0.001357  -0.000025  -0.000079   0.000001   0.000000   0.000001
    18  H   -0.029118  -0.003211   0.000772  -0.000107   0.000010  -0.000143
    19  H   -0.035387   0.004038   0.386712  -0.032618  -0.002219   0.000594
    20  H   -0.042061  -0.001847   0.397140  -0.037181   0.004131  -0.000371
    21  H    0.004061  -0.000078  -0.035814   0.400060  -0.035781   0.004220
    22  H   -0.004319   0.003518  -0.045768   0.395993  -0.045608  -0.001210
    23  H    0.000441   0.000034  -0.002010  -0.040076   0.396639  -0.036516
    24  H   -0.000145  -0.000102   0.004412  -0.038533   0.400271  -0.037885
    25  H    0.005038  -0.000007  -0.000375   0.004102  -0.033834   0.395258
    26  H   -0.004470   0.001554   0.001079  -0.002432  -0.042444   0.394612
    27  H   -0.000404   0.000009  -0.000062   0.000005   0.000005  -0.000021
              13         14         15         16         17         18
     1  O   -0.000019  -0.000002   0.000209   0.003053   0.000134   0.000000
     2  N   -0.000021  -0.000070   0.001675  -0.026402  -0.004782  -0.000035
     3  O   -0.000003   0.000000  -0.000012   0.002059   0.012401   0.000006
     4  C   -0.010051   0.002824  -0.062506   0.317143  -0.024966   0.001366
     5  C    0.000375   0.003765  -0.003517  -0.041915   0.374650  -0.024840
     6  N   -0.046984  -0.005413   0.001549  -0.000726  -0.033495   0.329012
     7  C    0.327521  -0.040399  -0.057980  -0.002561   0.001357  -0.029118
     8  H   -0.039177  -0.001009   0.003908   0.000042  -0.000025  -0.003211
     9  C   -0.053080   0.003852  -0.012310  -0.000868  -0.000079   0.000772
    10  C   -0.001269  -0.000391   0.001334  -0.000028   0.000001  -0.000107
    11  C   -0.047808   0.003975  -0.007697  -0.000003   0.000000   0.000010
    12  C    0.368411  -0.040816  -0.074445   0.002432   0.000001  -0.000143
    13  C    5.020472   0.403778   0.242494  -0.069558  -0.000018   0.003792
    14  H    0.403778   0.517304  -0.035700  -0.004592   0.000050  -0.000017
    15  N    0.242494  -0.035700   6.942708   0.587630  -0.000056  -0.000125
    16  C   -0.069558  -0.004592   0.587630   4.700355   0.001794  -0.000204
    17  H   -0.000018   0.000050  -0.000056   0.001794   0.385758  -0.001966
    18  H    0.003792  -0.000017  -0.000125  -0.000204  -0.001966   0.325550
    19  H   -0.005968   0.000065   0.006733   0.002601   0.000014  -0.000123
    20  H    0.003897  -0.000050   0.000078  -0.000033  -0.000002   0.002521
    21  H   -0.000397   0.000008  -0.000033   0.000002  -0.000000  -0.000000
    22  H    0.000321  -0.000044   0.000002  -0.000001   0.000000   0.000003
    23  H   -0.005909   0.000010   0.006889   0.000057   0.000000   0.000000
    24  H    0.004151  -0.000058   0.000044   0.000005   0.000000  -0.000000
    25  H   -0.034261  -0.002691   0.000875  -0.000056  -0.000000   0.000003
    26  H   -0.045003  -0.000886   0.004197  -0.000051   0.000000  -0.000001
    27  H    0.004889  -0.000174  -0.039720   0.402974  -0.000067   0.000002
              19         20         21         22         23         24
     1  O    0.000000   0.000000  -0.000000  -0.000000   0.000000   0.000000
     2  N   -0.000001  -0.000000  -0.000000   0.000000  -0.000000   0.000000
     3  O    0.000000   0.000000   0.000000  -0.000000   0.000000   0.000000
     4  C   -0.000921  -0.000024   0.000000  -0.000000   0.000024   0.000000
     5  C    0.001036   0.000047   0.000001  -0.000002  -0.000001  -0.000000
     6  N    0.000305  -0.001182  -0.000061  -0.000093  -0.000024   0.000005
     7  C   -0.035387  -0.042061   0.004061  -0.004319   0.000441  -0.000145
     8  H    0.004038  -0.001847  -0.000078   0.003518   0.000034  -0.000102
     9  C    0.386712   0.397140  -0.035814  -0.045768  -0.002010   0.004412
    10  C   -0.032618  -0.037181   0.400060   0.395993  -0.040076  -0.038533
    11  C   -0.002219   0.004131  -0.035781  -0.045608   0.396639   0.400271
    12  C    0.000594  -0.000371   0.004220  -0.001210  -0.036516  -0.037885
    13  C   -0.005968   0.003897  -0.000397   0.000321  -0.005909   0.004151
    14  H    0.000065  -0.000050   0.000008  -0.000044   0.000010  -0.000058
    15  N    0.006733   0.000078  -0.000033   0.000002   0.006889   0.000044
    16  C    0.002601  -0.000033   0.000002  -0.000001   0.000057   0.000005
    17  H    0.000014  -0.000002  -0.000000   0.000000   0.000000   0.000000
    18  H   -0.000123   0.002521  -0.000000   0.000003   0.000000  -0.000000
    19  H    0.506495  -0.024008  -0.002597   0.003757   0.001644  -0.000071
    20  H   -0.024008   0.549564  -0.002644  -0.002960  -0.000049  -0.000090
    21  H   -0.002597  -0.002644   0.525769  -0.024682  -0.002806  -0.002069
    22  H    0.003757  -0.002960  -0.024682   0.569042   0.004058  -0.003597
    23  H    0.001644  -0.000049  -0.002806   0.004058   0.509068  -0.024978
    24  H   -0.000071  -0.000090  -0.002069  -0.003597  -0.024978   0.541218
    25  H   -0.000028   0.000011  -0.000086  -0.000083  -0.002083  -0.002393
    26  H    0.000022  -0.000035  -0.000073   0.002466   0.003823  -0.002760
    27  H    0.000079   0.000000  -0.000000   0.000000  -0.000022  -0.000000
              25         26         27
     1  O    0.000000   0.000000   0.005709
     2  N   -0.000000  -0.000000  -0.000405
     3  O    0.000000   0.000000   0.000021
     4  C    0.000018   0.000005  -0.066946
     5  C    0.000001   0.000000   0.001847
     6  N   -0.000072  -0.000069   0.000034
     7  C    0.005038  -0.004470  -0.000404
     8  H   -0.000007   0.001554   0.000009
     9  C   -0.000375   0.001079  -0.000062
    10  C    0.004102  -0.002432   0.000005
    11  C   -0.033834  -0.042444   0.000005
    12  C    0.395258   0.394612  -0.000021
    13  C   -0.034261  -0.045003   0.004889
    14  H   -0.002691  -0.000886  -0.000174
    15  N    0.000875   0.004197  -0.039720
    16  C   -0.000056  -0.000051   0.402974
    17  H   -0.000000   0.000000  -0.000067
    18  H    0.000003  -0.000001   0.000002
    19  H   -0.000028   0.000022   0.000079
    20  H    0.000011  -0.000035   0.000000
    21  H   -0.000086  -0.000073  -0.000000
    22  H   -0.000083   0.002466   0.000000
    23  H   -0.002083   0.003823  -0.000022
    24  H   -0.002393  -0.002760  -0.000000
    25  H    0.509819  -0.023111  -0.000011
    26  H   -0.023111   0.562232   0.000001
    27  H   -0.000011   0.000001   0.450230
 Mulliken charges:
               1
     1  O   -0.458225
     2  N    0.506384
     3  O   -0.487884
     4  C   -0.032938
     5  C    0.202218
     6  N   -0.778492
     7  C    0.045566
     8  H    0.179626
     9  C   -0.308703
    10  C   -0.321386
    11  C   -0.315686
    12  C   -0.312267
    13  C   -0.020575
    14  H    0.196682
    15  N   -0.506222
    16  C    0.126851
    17  H    0.289296
    18  H    0.396852
    19  H    0.189845
    20  H    0.155151
    21  H    0.172998
    22  H    0.149207
    23  H    0.191789
    24  H    0.162576
    25  H    0.183965
    26  H    0.151344
    27  H    0.242028
 Sum of Mulliken charges =  -0.00000
 Mulliken charges with hydrogens summed into heavy atoms:
               1
     1  O   -0.458225
     2  N    0.506384
     3  O   -0.487884
     4  C   -0.032938
     5  C    0.491514
     6  N   -0.381640
     7  C    0.225192
     9  C    0.036292
    10  C    0.000819
    11  C    0.038679
    12  C    0.023042
    13  C    0.176107
    15  N   -0.506222
    16  C    0.368879
 Electronic spatial extent (au):  <R**2>=           3125.1004
 Charge=             -0.0000 electrons
 Dipole moment (field-independent basis, Debye):
    X=              5.4739    Y=              4.6786    Z=              0.3324  Tot=              7.2085
 Quadrupole moment (field-independent basis, Debye-Ang):
   XX=           -105.7751   YY=            -79.7681   ZZ=            -82.4758
   XY=             -1.8216   XZ=              1.7177   YZ=             -0.0840
 Traceless Quadrupole moment (field-independent basis, Debye-Ang):
   XX=            -16.4354   YY=              9.5716   ZZ=              6.8639
   XY=             -1.8216   XZ=              1.7177   YZ=             -0.0840
 Octapole moment (field-independent basis, Debye-Ang**2):
  XXX=            102.8954  YYY=             38.0430  ZZZ=             -6.6945  XYY=             -1.9076
  XXY=             11.8858  XXZ=             -2.4267  XZZ=             -7.4295  YZZ=             -2.7578
  YYZ=              0.8058  XYZ=              0.4126
 Hexadecapole moment (field-independent basis, Debye-Ang**3):
 XXXX=          -3561.8517 YYYY=           -619.2523 ZZZZ=           -298.0441 XXXY=            -38.7189
 XXXZ=             26.9471 YYYX=            -18.9587 YYYZ=             15.5261 ZZZX=             18.4721
 ZZZY=              9.2450 XXYY=           -656.0287 XXZZ=           -544.3007 YYZZ=           -164.8665
 XXYZ=             -0.6650 YYXZ=             12.7813 ZZXY=              4.0945
 N-N= 9.174264179034D+02 E-N=-3.380876225677D+03  KE= 6.588570076069D+02
 Calling FoFJK, ICntrl=  10002127 FMM=F ISym2X=0 I1Cent= 0 IOpClX= 0 NMat=1 NMatS=1 NMatT=0.
 -------------------------------------------------------------------
 Center     Atomic                   Forces (Hartrees/Bohr)
 Number     Number              X              Y              Z
 -------------------------------------------------------------------
      1        8           0.002270324   -0.019013699   -0.003017587
      2        7           0.040280586    0.013795715   -0.003943226
      3        8          -0.005109538    0.016398048    0.002765492
      4        6          -0.004879689    0.006819917    0.003580872
      5        6           0.004754428   -0.015061305   -0.003225568
      6        7           0.013939772   -0.006338345   -0.011175907
      7        6          -0.004752059    0.004238721    0.005344629
      8        1          -0.010898295   -0.001684253   -0.007606820
      9        6          -0.004303504    0.000916859   -0.002481779
     10        6           0.002738107   -0.001092022    0.001102630
     11        6          -0.000908155   -0.004629543   -0.002341593
     12        6           0.000683544   -0.008839302   -0.003094496
     13        6           0.008599116   -0.002893373    0.004497374
     14        1           0.001188722    0.004376759   -0.009925605
     15        7           0.000857697   -0.000567675    0.002469491
     16        6          -0.019674479    0.008152520    0.006235268
     17        1           0.007089844   -0.007846315    0.005312555
     18        1          -0.017833800   -0.002239794    0.000763430
     19        1           0.003139450    0.005740254    0.007712809
     20        1          -0.003178226   -0.007490336    0.002600102
     21        1          -0.004283556    0.002360690    0.009665289
     22        1          -0.004081515   -0.003892378   -0.007359866
     23        1           0.004031782    0.006069533    0.009330878
     24        1          -0.009392891    0.002618306   -0.002008825
     25        1          -0.000862050    0.010635044   -0.002356147
     26        1          -0.004755192   -0.004730732   -0.004307714
     27        1           0.005339576    0.004196707    0.001464313
 -------------------------------------------------------------------
 Cartesian Forces:  Max     0.040280586 RMS     0.008346750

 GradGradGradGradGradGradGradGradGradGradGradGradGradGradGradGradGradGrad
 Berny optimization.
 FormGI is forming the generalized inverse of G from B-inverse, IUseBI=4.
 Internal  Forces:  Max     0.038827173 RMS     0.006969078
 Search for a local minimum.
 Step number   1 out of a maximum of   20
 All quantities printed in internal units (Hartrees-Bohrs-Radians)
 Mixed Optimization -- RFO/linear search
 Second derivative matrix not updated -- first step.
 ITU=  0
     Eigenvalues ---    0.00231   0.00773   0.01142   0.01191   0.01246
     Eigenvalues ---    0.01495   0.01542   0.01609   0.01995   0.02038
     Eigenvalues ---    0.02688   0.03671   0.04507   0.04696   0.04835
     Eigenvalues ---    0.05068   0.05139   0.05303   0.05872   0.06251
     Eigenvalues ---    0.07199   0.07696   0.07714   0.07842   0.07993
     Eigenvalues ---    0.08044   0.08050   0.10452   0.11722   0.12255
     Eigenvalues ---    0.13214   0.14973   0.15317   0.16000   0.16000
     Eigenvalues ---    0.19913   0.22090   0.22879   0.24854   0.25000
     Eigenvalues ---    0.25000   0.25374   0.26188   0.26647   0.27979
     Eigenvalues ---    0.28083   0.28470   0.29587   0.31466   0.31794
     Eigenvalues ---    0.32046   0.32239   0.32291   0.32380   0.32389
     Eigenvalues ---    0.32404   0.32518   0.32526   0.32585   0.33356
     Eigenvalues ---    0.33392   0.33600   0.35277   0.43889   0.44239
     Eigenvalues ---    0.49451   0.67190   0.90397   0.911561000.00000
     Eigenvalues --- 1000.000001000.000001000.000001000.000001000.00000
     Eigenvalues --- 1000.000001000.000001000.000001000.000001000.00000
     Eigenvalues --- 1000.000001000.000001000.000001000.000001000.00000
     Eigenvalues --- 1000.000001000.000001000.000001000.000001000.00000
     Eigenvalues --- 1000.000001000.000001000.000001000.000001000.00000
     Eigenvalues --- 1000.000001000.000001000.000001000.000001000.00000
     Eigenvalues --- 1000.000001000.000001000.000001000.000001000.00000
     Eigenvalues --- 1000.000001000.000001000.000001000.000001000.00000
     Eigenvalues --- 1000.000001000.000001000.000001000.000001000.00000
     Eigenvalues --- 1000.000001000.000001000.000001000.000001000.00000
     Eigenvalues --- 1000.000001000.000001000.000001000.000001000.00000
     Eigenvalues --- 1000.000001000.000001000.000001000.000001000.00000
     Eigenvalues --- 1000.000001000.000001000.000001000.000001000.00000
     Eigenvalues --- 1000.000001000.000001000.000001000.000001000.00000
     Eigenvalues --- 1000.000001000.000001000.000001000.000001000.00000
     Eigenvalues --- 1000.000001000.000001000.000001000.000001000.00000
     Eigenvalues --- 1000.000001000.000001000.000001000.000001000.00000
     Eigenvalues --- 1000.000001000.000001000.000001000.000001000.00000
     Eigenvalues --- 1000.00000
 RFO step:  Lambda=-2.45157523D-02 EMin= 2.30781864D-03
 Linear search not attempted -- first point.
 Iteration  1 RMS(Cart)=  0.06288662 RMS(Int)=  0.00128775
 Iteration  2 RMS(Cart)=  0.00171657 RMS(Int)=  0.00030900
 Iteration  3 RMS(Cart)=  0.00000214 RMS(Int)=  0.00030900
 Iteration  4 RMS(Cart)=  0.00000000 RMS(Int)=  0.00030900
 Iteration  1 RMS(Cart)=  0.00005656 RMS(Int)=  0.00005782
 Iteration  2 RMS(Cart)=  0.00003096 RMS(Int)=  0.00006381
 Iteration  3 RMS(Cart)=  0.00001943 RMS(Int)=  0.00007208
 Iteration  4 RMS(Cart)=  0.00001362 RMS(Int)=  0.00007866
 Iteration  5 RMS(Cart)=  0.00001026 RMS(Int)=  0.00008353
 Iteration  6 RMS(Cart)=  0.00000807 RMS(Int)=  0.00008714
 Iteration  7 RMS(Cart)=  0.00000653 RMS(Int)=  0.00008985
 Iteration  8 RMS(Cart)=  0.00000537 RMS(Int)=  0.00009192
 Iteration  9 RMS(Cart)=  0.00000446 RMS(Int)=  0.00009354
 Iteration 10 RMS(Cart)=  0.00000373 RMS(Int)=  0.00009483
 Iteration 11 RMS(Cart)=  0.00000313 RMS(Int)=  0.00009586
 Iteration 12 RMS(Cart)=  0.00000264 RMS(Int)=  0.00009671
 Iteration 13 RMS(Cart)=  0.00000222 RMS(Int)=  0.00009740
 Iteration 14 RMS(Cart)=  0.00000188 RMS(Int)=  0.00009798
 Iteration 15 RMS(Cart)=  0.00000159 RMS(Int)=  0.00009846
 Iteration 16 RMS(Cart)=  0.00000134 RMS(Int)=  0.00009886
 Iteration 17 RMS(Cart)=  0.00000113 RMS(Int)=  0.00009920
 Iteration 18 RMS(Cart)=  0.00000096 RMS(Int)=  0.00009949
 Variable       Old X    -DE/DX   Delta X   Delta X   Delta X     New X
                                 (Linear)    (Quad)   (Total)
    R1        2.32405   0.01767   0.00000   0.01888   0.01888   2.34293
    R2        2.32751   0.01616   0.00000   0.01741   0.01741   2.34491
    R3        2.88795  -0.03883   0.00000  -0.12119  -0.12119   2.76676
    R4        2.64423  -0.03281   0.00000  -0.07086  -0.07058   2.57365
    R5        2.80916  -0.02217   0.00000  -0.06383  -0.06340   2.74576
    R6        2.58954  -0.02666   0.00000  -0.05129  -0.05129   2.53825
    R7        2.08369  -0.01063   0.00000  -0.02967  -0.02967   2.05402
    R8        2.82313  -0.01887   0.00000  -0.05187  -0.05217   2.77096
    R9        1.93288  -0.00643   0.00000  -0.01387  -0.01387   1.91901
   R10        2.11831  -0.01237   0.00000  -0.03646  -0.03646   2.08186
   R11        2.92758  -0.01304   0.00000  -0.04361  -0.04364   2.88394
   R12        2.90216  -0.00299   0.00000  -0.00433  -0.00436   2.89780
   R13        2.91145  -0.00441   0.00000  -0.01421  -0.01425   2.89720
   R14        2.09906  -0.00989   0.00000  -0.02828  -0.02828   2.07077
   R15        2.09891  -0.00813   0.00000  -0.02325  -0.02325   2.07567
   R16        2.90439  -0.00168   0.00000  -0.00718  -0.00723   2.89716
   R17        2.10138  -0.01057   0.00000  -0.03034  -0.03034   2.07104
   R18        2.10314  -0.00898   0.00000  -0.02584  -0.02584   2.07731
   R19        2.91760  -0.00911   0.00000  -0.02944  -0.02941   2.88819
   R20        2.10409  -0.01168   0.00000  -0.03366  -0.03366   2.07043
   R21        2.10110  -0.00993   0.00000  -0.02850  -0.02850   2.07260
   R22        2.93525  -0.01084   0.00000  -0.03653  -0.03650   2.89875
   R23        2.10154  -0.01077   0.00000  -0.03092  -0.03092   2.07062
   R24        2.09787  -0.00777   0.00000  -0.02218  -0.02218   2.07569
   R25        2.10760  -0.00945   0.00000  -0.02738  -0.02738   2.08022
   R26        2.76804  -0.00564   0.00000  -0.01126  -0.01167   2.75637
   R27        2.44216  -0.00542   0.00000  -0.00731  -0.00720   2.43496
   R28        2.08010  -0.00618   0.00000  -0.01715  -0.01715   2.06295
    A1        2.15782   0.01117   0.00000   0.04081   0.04070   2.19851
    A2        2.05380  -0.00734   0.00000  -0.02663  -0.02674   2.02706
    A3        2.07147  -0.00382   0.00000  -0.01381  -0.01392   2.05755
    A4        2.03192  -0.00838   0.00000  -0.03011  -0.03101   2.00091
    A5        2.03364  -0.00231   0.00000  -0.00791  -0.00882   2.02482
    A6        2.21161   0.01051   0.00000   0.03106   0.03088   2.24248
    A7        2.19867   0.00609   0.00000   0.01893   0.01943   2.21810
    A8        2.06315  -0.00251   0.00000  -0.00659  -0.00689   2.05626
    A9        2.02137  -0.00358   0.00000  -0.01230  -0.01259   2.00878
   A10        2.25545  -0.00564   0.00000  -0.01913  -0.01940   2.23604
   A11        2.10834  -0.01303   0.00000  -0.07324  -0.07368   2.03466
   A12        1.86784   0.01902   0.00000   0.10218   0.10250   1.97034
   A13        1.83915  -0.00216   0.00000  -0.01853  -0.01835   1.82081
   A14        2.00738  -0.00112   0.00000  -0.01861  -0.01872   1.98865
   A15        1.96614   0.00155   0.00000   0.00511   0.00461   1.97075
   A16        1.85242   0.00292   0.00000   0.02422   0.02408   1.87649
   A17        1.84945   0.00106   0.00000   0.02405   0.02374   1.87318
   A18        1.93556  -0.00193   0.00000  -0.01106  -0.01067   1.92489
   A19        1.90978  -0.00003   0.00000  -0.00563  -0.00577   1.90401
   A20        1.92254  -0.00065   0.00000  -0.01328  -0.01326   1.90928
   A21        1.92253  -0.00166   0.00000  -0.00637  -0.00635   1.91618
   A22        1.91936  -0.00041   0.00000   0.00508   0.00503   1.92439
   A23        1.90514   0.00317   0.00000   0.02526   0.02526   1.93040
   A24        1.88430  -0.00040   0.00000  -0.00462  -0.00487   1.87943
   A25        1.94042  -0.00069   0.00000   0.00628   0.00620   1.94662
   A26        1.91888  -0.00085   0.00000  -0.00765  -0.00768   1.91120
   A27        1.90503   0.00028   0.00000  -0.00306  -0.00315   1.90189
   A28        1.91613   0.00070   0.00000   0.00702   0.00706   1.92319
   A29        1.89856   0.00175   0.00000   0.01128   0.01129   1.90985
   A30        1.88378  -0.00119   0.00000  -0.01434  -0.01443   1.86935
   A31        1.94463   0.00101   0.00000   0.00643   0.00649   1.95113
   A32        1.90242   0.00037   0.00000   0.00531   0.00532   1.90774
   A33        1.91736   0.00042   0.00000   0.00506   0.00502   1.92238
   A34        1.90679  -0.00125   0.00000  -0.01494  -0.01497   1.89182
   A35        1.91532  -0.00058   0.00000   0.00023   0.00015   1.91547
   A36        1.87594   0.00001   0.00000  -0.00252  -0.00256   1.87339
   A37        1.94660  -0.00338   0.00000  -0.01992  -0.01989   1.92671
   A38        1.90612   0.00250   0.00000   0.01578   0.01563   1.92175
   A39        1.91112   0.00164   0.00000   0.01478   0.01471   1.92583
   A40        1.90630   0.00048   0.00000  -0.00278  -0.00267   1.90363
   A41        1.91188  -0.00024   0.00000  -0.00380  -0.00370   1.90817
   A42        1.88061  -0.00092   0.00000  -0.00351  -0.00369   1.87692
   A43        1.84624   0.00503   0.00000   0.02375   0.02372   1.86997
   A44        1.93636  -0.00435   0.00000  -0.02801  -0.02847   1.90790
   A45        1.98688  -0.00001   0.00000   0.00464   0.00497   1.99184
   A46        1.88218   0.00208   0.00000   0.02919   0.02948   1.91166
   A47        1.89175  -0.00408   0.00000  -0.02885  -0.02885   1.86290
   A48        1.91591   0.00155   0.00000   0.00156   0.00158   1.91750
   A49        2.08809  -0.00631   0.00000  -0.01527  -0.01581   2.07228
   A50        2.25339  -0.00436   0.00000  -0.02006  -0.01995   2.23343
   A51        1.97906   0.00449   0.00000   0.02243   0.02166   2.00072
   A52        2.05072  -0.00015   0.00000  -0.00268  -0.00344   2.04728
    D1       -3.10715  -0.00064   0.00000  -0.06097  -0.05942   3.11661
    D2        0.14415   0.00034   0.00000   0.00000  -0.00000   0.14415
    D3        0.01969  -0.00059   0.00000  -0.03420  -0.03343  -0.01374
    D4       -3.01219   0.00039   0.00000   0.02677   0.02599  -2.98620
    D5        2.95596   0.00324   0.00000   0.08617   0.08659   3.04255
    D6       -0.18204   0.00432   0.00000   0.07150   0.07195  -0.11009
    D7       -0.30815   0.00104   0.00000   0.01467   0.01464  -0.29351
    D8        2.83703   0.00212   0.00000   0.00000   0.00000   2.83703
    D9       -2.74468  -0.00364   0.00000  -0.07825  -0.07874  -2.82342
   D10        0.40328  -0.00043   0.00000  -0.01867  -0.01917   0.38411
   D11        0.51954  -0.00106   0.00000  -0.00534  -0.00465   0.51488
   D12       -2.61568   0.00214   0.00000   0.05424   0.05491  -2.56077
   D13        0.12765  -0.00299   0.00000  -0.03966  -0.03927   0.08838
   D14        2.88348   0.00198   0.00000   0.01546   0.01430   2.89778
   D15       -3.01746  -0.00404   0.00000  -0.02529  -0.02496  -3.04242
   D16       -0.26163   0.00093   0.00000   0.02983   0.02860  -0.23303
   D17       -2.62353  -0.00007   0.00000   0.01100   0.01126  -2.61227
   D18        1.62615  -0.00163   0.00000   0.00349   0.00358   1.62973
   D19       -0.61502   0.00070   0.00000   0.03132   0.03097  -0.58406
   D20        0.86285   0.00042   0.00000  -0.01083  -0.01140   0.85145
   D21       -1.17066  -0.00114   0.00000  -0.01834  -0.01907  -1.18973
   D22        2.87136   0.00119   0.00000   0.00949   0.00831   2.87967
   D23        2.94530   0.00213   0.00000   0.02684   0.02660   2.97191
   D24       -1.22587   0.00119   0.00000   0.02113   0.02094  -1.20494
   D25        0.85086  -0.00073   0.00000   0.00319   0.00306   0.85392
   D26        0.91937   0.00348   0.00000   0.04392   0.04390   0.96327
   D27        3.03138   0.00254   0.00000   0.03821   0.03823   3.06961
   D28       -1.17508   0.00062   0.00000   0.02027   0.02035  -1.15473
   D29       -1.08154   0.00157   0.00000   0.00763   0.00770  -1.07385
   D30        1.03047   0.00063   0.00000   0.00192   0.00203   1.03249
   D31        3.10720  -0.00129   0.00000  -0.01602  -0.01585   3.09135
   D32       -2.89860  -0.00071   0.00000  -0.01720  -0.01704  -2.91565
   D33       -0.86206   0.00241   0.00000   0.01670   0.01650  -0.84556
   D34        1.30937   0.00099   0.00000   0.00000  -0.00001   1.30936
   D35       -0.89631  -0.00188   0.00000  -0.02256  -0.02251  -0.91883
   D36        1.14022   0.00124   0.00000   0.01134   0.01104   1.15126
   D37       -2.97152  -0.00018   0.00000  -0.00536  -0.00548  -2.97700
   D38        1.10646   0.00119   0.00000   0.01383   0.01389   1.12034
   D39       -3.14019   0.00431   0.00000   0.04773   0.04744  -3.09275
   D40       -0.96875   0.00290   0.00000   0.03103   0.03092  -0.93783
   D41        0.95665   0.00082   0.00000   0.00000  -0.00000   0.95665
   D42        3.08224   0.00066   0.00000   0.00784   0.00780   3.09004
   D43       -1.13776  -0.00111   0.00000  -0.01593  -0.01590  -1.15366
   D44       -1.15729   0.00190   0.00000   0.01681   0.01687  -1.14042
   D45        0.96830   0.00174   0.00000   0.02466   0.02468   0.99298
   D46        3.03149  -0.00003   0.00000   0.00088   0.00097   3.03246
   D47        3.06172   0.00073   0.00000   0.00430   0.00425   3.06597
   D48       -1.09587   0.00057   0.00000   0.01214   0.01205  -1.08382
   D49        0.96731  -0.00121   0.00000  -0.01164  -0.01165   0.95566
   D50       -0.92192  -0.00085   0.00000   0.00000  -0.00000  -0.92192
   D51        1.18367  -0.00153   0.00000  -0.01105  -0.01105   1.17261
   D52       -3.04826  -0.00107   0.00000  -0.00806  -0.00808  -3.05634
   D53       -3.04911   0.00021   0.00000   0.00071   0.00072  -3.04839
   D54       -0.94352  -0.00047   0.00000  -0.01033  -0.01033  -0.95386
   D55        1.10773  -0.00001   0.00000  -0.00735  -0.00737   1.10037
   D56        1.17633   0.00022   0.00000   0.00738   0.00741   1.18374
   D57       -3.00128  -0.00047   0.00000  -0.00366  -0.00364  -3.00492
   D58       -0.95002  -0.00000   0.00000  -0.00068  -0.00067  -0.95069
   D59        0.98874  -0.00116   0.00000  -0.01177  -0.01177   0.97698
   D60        3.09743  -0.00105   0.00000  -0.01750  -0.01761   3.07981
   D61       -1.13030   0.00025   0.00000  -0.00396  -0.00389  -1.13420
   D62       -1.11427  -0.00143   0.00000  -0.01262  -0.01259  -1.12686
   D63        0.99441  -0.00133   0.00000  -0.01835  -0.01843   0.97598
   D64        3.04987  -0.00002   0.00000  -0.00481  -0.00472   3.04515
   D65        3.11627  -0.00036   0.00000  -0.00093  -0.00092   3.11536
   D66       -1.05823  -0.00026   0.00000  -0.00666  -0.00676  -1.06499
   D67        0.99723   0.00105   0.00000   0.00688   0.00696   1.00418
   D68       -1.05513   0.00020   0.00000  -0.00157  -0.00149  -1.05662
   D69       -3.12796   0.00160   0.00000   0.00404   0.00370  -3.12427
   D70        1.08204   0.00085   0.00000   0.00180   0.00184   1.08387
   D71        3.11948  -0.00108   0.00000  -0.00668  -0.00657   3.11291
   D72        1.04665   0.00032   0.00000  -0.00108  -0.00138   1.04526
   D73       -1.02654  -0.00044   0.00000  -0.00331  -0.00325  -1.02978
   D74        1.06348  -0.00011   0.00000   0.00140   0.00157   1.06505
   D75       -1.00935   0.00129   0.00000   0.00700   0.00676  -1.00260
   D76       -3.08254   0.00053   0.00000   0.00477   0.00489  -3.07764
   D77       -1.17215   0.00503   0.00000   0.00000  -0.00001  -1.17216
   D78        3.06196   0.00149   0.00000  -0.01313  -0.01316   3.04880
   D79        1.01023   0.00047   0.00000  -0.03240  -0.03267   0.97756
   D80        0.17452   0.00077   0.00000   0.00752   0.00700   0.18152
   D81       -2.97367  -0.00253   0.00000  -0.05406  -0.05386  -3.02753
         Item               Value     Threshold  Converged?
 Maximum Force            0.038827     0.000450     NO 
 RMS     Force            0.007036     0.000300     NO 
 Maximum Displacement     0.304562     0.001800     NO 
 RMS     Displacement     0.063156     0.001200     NO 
 Predicted change in Energy=-1.377786D-02
 GradGradGradGradGradGradGradGradGradGradGradGradGradGradGradGradGradGrad

                          Input orientation:                          
 ---------------------------------------------------------------------
 Center     Atomic      Atomic             Coordinates (Angstroms)
 Number     Number       Type             X           Y           Z
 ---------------------------------------------------------------------
      1          8           0       -3.488213   -1.400103   -0.293756
      2          7           0       -3.123762   -0.236938   -0.067078
      3          8           0       -3.868803    0.743615    0.085226
      4          6           0       -1.678285   -0.017283    0.010059
      5          6           0       -1.311295    1.275746    0.229632
      6          7           0       -0.069706    1.739463    0.447714
      7          6           0        1.194328    0.997591    0.403310
      8          1           0        1.839548    1.514628    1.131349
      9          6           0        1.896024    1.050155   -0.950900
     10          6           0        3.302394    0.456138   -0.810341
     11          6           0        3.259505   -0.957974   -0.219676
     12          6           0        2.467120   -1.003496    1.086447
     13          6           0        1.050585   -0.455502    0.871635
     14          1           0        0.498875   -0.478233    1.823931
     15          7           0        0.403254   -1.332858   -0.097258
     16          6           0       -0.841509   -1.142543   -0.370459
     17          1           0       -2.091413    2.032585    0.222461
     18          1           0        0.059194    2.744173    0.375799
     19          1           0        1.314818    0.479910   -1.684255
     20          1           0        1.948761    2.089483   -1.302310
     21          1           0        3.793264    0.442099   -1.790112
     22          1           0        3.901596    1.106913   -0.157786
     23          1           0        2.783260   -1.635747   -0.936761
     24          1           0        4.278093   -1.326756   -0.048232
     25          1           0        2.400600   -2.034674    1.450949
     26          1           0        2.972761   -0.410702    1.860670
     27          1           0       -1.330975   -1.876688   -1.013259
 ---------------------------------------------------------------------
                    Distance matrix (angstroms):
                    1          2          3          4          5
     1  O    0.000000
     2  N    1.239823   0.000000
     3  O    2.209978   1.240873   0.000000
     4  C    2.297898   1.464105   2.320126   0.000000
     5  C    3.488993   2.379346   2.616269   1.361916   0.000000
     6  N    4.700303   3.674022   3.944141   2.421822   1.343182
     7  C    5.306696   4.515665   5.079465   3.071891   2.526990
     8  H    6.237918   5.398024   5.854409   3.997398   3.286026
     9  C    5.951941   5.256996   5.865215   3.852083   3.425119
    10  C    7.058670   6.506018   7.232616   5.069945   4.799940
    11  C    6.762592   6.425673   7.334926   5.031843   5.107209
    12  C    6.126030   5.759878   6.648215   4.394953   4.495052
    13  C    4.780282   4.284172   5.124129   2.895009   2.997977
    14  H    4.607744   4.093609   4.857223   2.870998   2.982439
    15  N    3.897005   3.693480   4.753473   2.464763   3.138686
    16  C    2.660312   2.474033   3.595796   1.452996   2.535533
    17  H    3.741775   2.510042   2.199862   2.101843   1.086941
    18  H    5.496128   4.383420   4.417672   3.283022   2.013922
    19  H    5.342007   4.778088   5.483660   3.475135   3.345562
    20  H    6.538737   5.715639   6.130308   4.395024   3.692829
    21  H    7.658504   7.160669   7.893989   5.778364   5.552554
    22  H    7.804671   7.153308   7.782682   5.694476   5.229993
    23  H    6.308753   6.132368   7.138331   4.839554   5.157775
    24  H    7.770532   7.481679   8.406911   6.098898   6.171830
    25  H    6.174527   6.004568   6.992102   4.773189   5.121392
    26  H    6.882198   6.396406   7.161819   5.021132   4.884417
    27  H    2.323466   2.607322   3.809623   2.150627   3.388658
                    6          7          8          9         10
     6  N    0.000000
     7  C    1.466331   0.000000
     8  H    2.040381   1.101670   0.000000
     9  C    2.509055   1.526114   2.134170   0.000000
    10  C    3.821084   2.492000   2.651505   1.533130   0.000000
    11  C    4.336498   2.911580   3.155203   2.535024   1.533114
    12  C    3.790421   2.468000   2.595537   2.948629   2.534960
    13  C    2.500527   1.533450   2.138066   2.510658   2.954788
    14  H    2.671223   2.163301   2.499714   3.462323   3.958807
    15  N    3.155922   2.511445   3.417688   2.938676   3.480518
    16  C    3.093710   3.053444   4.062518   3.555126   4.463318
    17  H    2.055227   3.449639   4.067777   4.271018   5.713581
    18  H    1.015494   2.083227   2.291789   2.829094   4.142508
    19  H    2.837018   2.154168   3.045260   1.095805   2.171346
    20  H    2.694310   2.161143   2.503014   1.098396   2.177652
    21  H    4.649038   3.445888   3.674542   2.161835   1.095947
    22  H    4.066692   2.766963   2.465795   2.157445   1.099263
    23  H    4.631224   3.354842   3.884911   2.828685   2.159043
    24  H    5.343315   3.887941   3.925733   3.484074   2.170602
    25  H    4.620931   3.427429   3.607557   3.942035   3.482931
    26  H    3.984503   2.696296   2.350102   3.346400   2.827433
    27  H    4.098999   4.079865   5.113960   4.357043   5.191470
                   11         12         13         14         15
    11  C    0.000000
    12  C    1.528366   0.000000
    13  C    2.514510   1.533953   0.000000
    14  H    3.468077   2.166512   1.100803   0.000000
    15  N    2.883347   2.401912   1.458610   2.104874   0.000000
    16  C    4.107933   3.617863   2.365342   2.655802   1.288524
    17  H    6.145831   5.544771   4.060069   3.946961   4.201403
    18  H    4.929753   4.510893   3.386241   3.560099   4.118779
    19  H    2.827420   3.347399   2.734481   3.727086   2.575973
    20  H    3.489575   3.942255   3.465502   4.297525   3.943750
    21  H    2.170569   3.481808   3.925923   4.976074   4.184303
    22  H    2.163300   2.838955   3.410148   4.244809   4.265506
    23  H    1.095626   2.143141   2.768653   3.765591   2.541837
    24  H    1.096775   2.161392   3.467282   4.302032   3.875154
    25  H    2.165176   1.095725   2.156833   2.485595   2.622762
    26  H    2.170154   1.098408   2.162165   2.475080   3.359497
    27  H    4.748296   4.426822   3.353271   3.654268   2.035279
                   16         17         18         19         20
    16  C    0.000000
    17  H    3.463416   0.000000
    18  H    4.058907   2.270458   0.000000
    19  H    3.001359   4.201044   3.308670   0.000000
    20  H    4.370348   4.318700   2.610581   1.771579   0.000000
    21  H    5.099767   6.419464   4.892238   2.480993   2.520717
    22  H    5.253791   6.075986   4.210628   3.068331   2.467578
    23  H    3.701743   6.209903   5.322316   2.681618   3.835017
    24  H    5.133039   7.206182   5.878042   3.836875   4.320786
    25  H    3.824225   6.183038   5.429135   4.163119   4.979284
    26  H    4.479083   5.856555   4.543892   4.013535   4.159802
    27  H    1.091668   4.169854   5.021395   3.606108   5.154681
                   21         22         23         24         25
    21  H    0.000000
    22  H    1.765842   0.000000
    23  H    2.462876   3.062623   0.000000
    24  H    2.529437   2.465055   1.766206   0.000000
    25  H    4.310265   3.835438   2.450863   2.504730   0.000000
    26  H    3.837799   2.690736   3.059782   2.487359   1.769894
    27  H    5.677860   6.083873   4.121994   5.717984   4.474587
                   26         27
    26  H    0.000000
    27  H    5.378729   0.000000
 Symmetry turned off by external request.
 Stoichiometry    C9H13N3O2
 Framework group  C1[X(C9H13N3O2)]
 Deg. of freedom    75
 Full point group                 C1      NOp   1
 Rotational constants (GHZ):           1.6801395           0.4225464           0.3732650
 Standard basis: 6-31G(d) (6D, 7F)
   236 basis functions,   444 primitive gaussians,   236 cartesian basis functions
    52 alpha electrons       52 beta electrons
       nuclear repulsion energy       932.4747608418 Hartrees.
 NAtoms=   27 NActive=   27 NUniq=   27 SFac= 1.00D+00 NAtFMM=   60 NAOKFM=F Big=F
 Integral buffers will be    131072 words long.
 Raffenetti 1 integral format.
 Two-electron integral symmetry is turned off.
 One-electron integrals computed using PRISM.
 NBasis=   236 RedAO= T EigKep=  1.05D-03  NBF=   236
 NBsUse=   236 1.00D-06 EigRej= -1.00D+00 NBFU=   236
 Initial guess from the checkpoint file:  "/home/alexey/tmp/Gau-1588860.chk"
 B after Tr=     0.058171    0.008245   -0.008948
         Rot=    0.999992   -0.002040    0.003162    0.001578 Ang=  -0.47 deg.
 ExpMin= 1.61D-01 ExpMax= 5.48D+03 ExpMxC= 8.25D+02 IAcc=3 IRadAn=         5 AccDes= 0.00D+00
 Harris functional with IExCor=  205 and IRadAn=       5 diagonalized for initial guess.
 HarFok:  IExCor=  205 AccDes= 0.00D+00 IRadAn=         5 IDoV= 1 UseB2=F ITyADJ=14
 ICtDFT=  3500011 ScaDFX=  1.000000  1.000000  1.000000  1.000000
 FoFCou: FMM=F IPFlag=           0 FMFlag=      100000 FMFlg1=           0
         NFxFlg=           0 DoJE=T BraDBF=F KetDBF=T FulRan=T
         wScrn=  0.000000 ICntrl=       500 IOpCl=  0 I1Cent=   200000004 NGrid=           0
         NMat0=    1 NMatS0=      1 NMatT0=    0 NMatD0=    1 NMtDS0=    0 NMtDT0=    0
 Symmetry not used in FoFCou.
 Keep R1 ints in memory in canonical form, NReq=397720213.
 Requested convergence on RMS density matrix=1.00D-08 within 128 cycles.
 Requested convergence on MAX density matrix=1.00D-06.
 Requested convergence on             energy=1.00D-06.
 No special actions if energy rises.
 SCF Done:  E(RHF) =  -661.298821349     A.U. after   15 cycles
            NFock= 15  Conv=0.43D-08     -V/T= 2.0024
 ExpMin= 1.61D-01 ExpMax= 5.48D+03 ExpMxC= 8.25D+02 IAcc=3 IRadAn=         5 AccDes= 0.00D+00
 HarFok:  IExCor=  205 AccDes= 0.00D+00 IRadAn=         5 IDoV=-2 UseB2=F ITyADJ=14
 ICtDFT= 12500011 ScaDFX=  1.000000  1.000000  1.000000  1.000000
 Range of M.O.s used for correlation:    15   236
 NBasis=   236 NAE=    52 NBE=    52 NFC=    14 NFV=     0
 NROrb=    222 NOA=    38 NOB=    38 NVA=   184 NVB=   184
 Fully direct method using O(ONN) memory.
 JobTyp=1 Pass  1:  I=  15 to  52 NPSUse=  4 ParTrn=T ParDer=T DoDerP=T.
 Spin components of T(2) and E(2):
     alpha-alpha T2 =       0.9128699135D-01 E2=     -0.2724127205D+00
     alpha-beta  T2 =       0.4910626661D+00 E2=     -0.1487900137D+01
     beta-beta   T2 =       0.9128699135D-01 E2=     -0.2724127205D+00
 ANorm=    0.1293691095D+01
 E2 =    -0.2032725578D+01 EUMP2 =    -0.66333154692703D+03
          IDoAtm=111111111111111111111111111
          Differentiating once with respect to electric field.
                with respect to dipole field.
          Differentiating once with respect to nuclear coordinates.
 Keep R1 ints in memory in canonical form, NReq=397723379.
          There are     1 degrees of freedom in the 1st order CPHF.  IDoFFX=0 NUNeed=     1.
 LinEq1:  Iter=  0 NonCon=     1 RMS=4.58D-03 Max=1.11D-01 NDo=     1
 AX will form     1 AO Fock derivatives at one time.
 LinEq1:  Iter=  1 NonCon=     1 RMS=1.54D-03 Max=2.48D-02 NDo=     1
[...]
    27  H    4.730831   4.425477   3.355652   3.656434   2.031850
                   16         17         18         19         20
    16  C    0.000000
    17  H    3.451114   0.000000
    18  H    4.074828   2.239955   0.000000
    19  H    2.986863   4.253319   3.457718   0.000000
    20  H    4.366700   4.396066   2.810701   1.768722   0.000000
    21  H    5.095327   6.473095   5.039379   2.499056   2.520090
    22  H    5.243338   6.085650   4.289629   3.070268   2.460184
    23  H    3.700405   6.225305   5.405342   2.704737   3.842579
    24  H    5.136000   7.202263   5.930470   3.850013   4.316138
    25  H    3.822665   6.124399   5.398402   4.171406   4.984136
    26  H    4.491365   5.817520   4.518827   4.037065   4.182294
    27  H    1.089553   4.176904   5.048820   3.569931   5.130514
                   21         22         23         24         25
    21  H    0.000000
    22  H    1.758975   0.000000
    23  H    2.469378   3.062199   0.000000
    24  H    2.517533   2.459620   1.764705   0.000000
    25  H    4.311916   3.839447   2.443888   2.519866   0.000000
    26  H    3.847146   2.704735   3.060572   2.491108   1.767875
    27  H    5.650137   6.055617   4.101816   5.705154   4.468225
                   26         27
    26  H    0.000000
    27  H    5.382791   0.000000
 Symmetry turned off by external request.
 Stoichiometry    C9H13N3O2
 Framework group  C1[X(C9H13N3O2)]
 Deg. of freedom    75
 Full point group                 C1      NOp   1
 Rotational constants (GHZ):           1.6842292           0.4193739           0.3723792

 **********************************************************************

            Population analysis using the SCF Density.

 **********************************************************************

 Alpha  occ. eigenvalues --  -20.59172 -20.58842 -15.84660 -15.64233 -15.56091
 Alpha  occ. eigenvalues --  -11.35124 -11.29634 -11.29565 -11.28570 -11.27131
 Alpha  occ. eigenvalues --  -11.23797 -11.23241 -11.22705 -11.22102  -1.57053
 Alpha  occ. eigenvalues --   -1.36646  -1.31066  -1.23083  -1.14714  -1.09823
 Alpha  occ. eigenvalues --   -1.02826  -1.01326  -0.94451  -0.89637  -0.85644
 Alpha  occ. eigenvalues --   -0.82421  -0.78575  -0.77399  -0.75233  -0.72027
 Alpha  occ. eigenvalues --   -0.69659  -0.69467  -0.67833  -0.64896  -0.63732
 Alpha  occ. eigenvalues --   -0.62645  -0.60220  -0.57569  -0.57051  -0.55098
 Alpha  occ. eigenvalues --   -0.54643  -0.50807  -0.50062  -0.48616  -0.48081
 Alpha  occ. eigenvalues --   -0.47334  -0.46179  -0.46060  -0.43635  -0.41666
 Alpha  occ. eigenvalues --   -0.39978  -0.33784
 Alpha virt. eigenvalues --    0.07519   0.11918   0.17336   0.21794   0.23799
 Alpha virt. eigenvalues --    0.25224   0.27288   0.28564   0.29016   0.29700
 Alpha virt. eigenvalues --    0.30701   0.31787   0.32116   0.32739   0.33865
 Alpha virt. eigenvalues --    0.34360   0.35798   0.37320   0.38551   0.40249
 Alpha virt. eigenvalues --    0.41502   0.42539   0.45072   0.46113   0.46695
 Alpha virt. eigenvalues --    0.47082   0.48984   0.54034   0.57275   0.59244
 Alpha virt. eigenvalues --    0.64028   0.69306   0.69998   0.72845   0.74149
 Alpha virt. eigenvalues --    0.75028   0.75800   0.76794   0.78679   0.79239
 Alpha virt. eigenvalues --    0.81318   0.85159   0.85567   0.85975   0.88431
 Alpha virt. eigenvalues --    0.89344   0.90912   0.91980   0.92776   0.94537
 Alpha virt. eigenvalues --    0.95745   0.98131   0.99062   1.01353   1.02413
 Alpha virt. eigenvalues --    1.03128   1.05874   1.06748   1.07615   1.08871
 Alpha virt. eigenvalues --    1.10152   1.11700   1.11779   1.12485   1.13915
 Alpha virt. eigenvalues --    1.14732   1.14924   1.16152   1.16783   1.18611
 Alpha virt. eigenvalues --    1.19116   1.21284   1.21797   1.23267   1.23930
 Alpha virt. eigenvalues --    1.25210   1.26215   1.26917   1.27717   1.29558
 Alpha virt. eigenvalues --    1.30144   1.32729   1.36294   1.37201   1.40805
 Alpha virt. eigenvalues --    1.41212   1.43694   1.48564   1.52436   1.54013
 Alpha virt. eigenvalues --    1.56344   1.58327   1.59705   1.62499   1.66552
 Alpha virt. eigenvalues --    1.68568   1.68694   1.73636   1.74750   1.77556
 Alpha virt. eigenvalues --    1.81478   1.84746   1.87610   1.90743   1.93922
 Alpha virt. eigenvalues --    1.96081   1.97054   1.99535   2.01752   2.01901
 Alpha virt. eigenvalues --    2.04730   2.05729   2.08679   2.09450   2.12692
 Alpha virt. eigenvalues --    2.13622   2.15083   2.19318   2.20170   2.22201
 Alpha virt. eigenvalues --    2.23455   2.24710   2.25792   2.28177   2.29732
 Alpha virt. eigenvalues --    2.31780   2.33592   2.34393   2.36080   2.38662
 Alpha virt. eigenvalues --    2.40367   2.41909   2.43404   2.44349   2.47913
 Alpha virt. eigenvalues --    2.50573   2.51624   2.53039   2.55740   2.61864
 Alpha virt. eigenvalues --    2.62147   2.65073   2.67461   2.70415   2.70854
 Alpha virt. eigenvalues --    2.72056   2.73188   2.76644   2.78632   2.84467
 Alpha virt. eigenvalues --    2.88282   2.89029   2.92730   2.93146   2.96072
 Alpha virt. eigenvalues --    2.99233   3.01423   3.04316   3.05415   3.07738
 Alpha virt. eigenvalues --    3.09379   3.15007   3.21087   3.25305   3.27386
 Alpha virt. eigenvalues --    3.33975   3.37929   3.39390   3.51748   3.64782
 Alpha virt. eigenvalues --    4.13826   4.28007   4.33505   4.38226   4.46652
 Alpha virt. eigenvalues --    4.56477   4.62114   4.62641   4.73358   4.79965
 Alpha virt. eigenvalues --    4.98968   5.00805   5.04294   5.11644
          Condensed to atoms (all electrons):
               1          2          3          4          5          6
     1  O    8.316057   0.306487  -0.081655  -0.084743   0.004571  -0.000017
     2  N    0.306487   5.728050   0.298589   0.262311  -0.051108   0.001063
     3  O   -0.081655   0.298589   8.353585  -0.091541   0.003074   0.000782
     4  C   -0.084743   0.262311  -0.091541   5.234747   0.553595  -0.048721
     5  C    0.004571  -0.051108   0.003074   0.553595   4.709988   0.316740
     6  N   -0.000017   0.001063   0.000782  -0.048721   0.316740   7.197201
     7  C    0.000004  -0.000129   0.000003   0.004836  -0.029111   0.169767
     8  H   -0.000000   0.000002  -0.000000  -0.000302   0.003283  -0.051366
     9  C   -0.000000  -0.000003  -0.000000   0.000997   0.000175  -0.062407
    10  C    0.000000   0.000000   0.000000  -0.000044  -0.000037   0.003791
    11  C   -0.000000  -0.000000  -0.000000  -0.000024   0.000023  -0.000179
    12  C   -0.000000   0.000002  -0.000000  -0.000089  -0.000208   0.003718
    13  C   -0.000026  -0.000049  -0.000005  -0.012277  -0.000596  -0.045917
    14  H   -0.000003  -0.000124   0.000001   0.002788   0.005512  -0.006684
    15  N    0.000391   0.002313  -0.000017  -0.064271  -0.005745   0.001585
    16  C    0.000350  -0.028490   0.002691   0.329470  -0.050955  -0.002255
    17  H    0.000222  -0.007511   0.017372  -0.024170   0.375224  -0.034687
    18  H    0.000001  -0.000052   0.000012   0.001475  -0.031173   0.337912
    19  H    0.000001  -0.000005   0.000000  -0.001270   0.001285  -0.000189
    20  H    0.000000  -0.000000   0.000000  -0.000070   0.000150  -0.000623
    21  H   -0.000000   0.000000   0.000000   0.000001   0.000001  -0.000078
    22  H   -0.000000   0.000000  -0.000000  -0.000000  -0.000003  -0.000116
    23  H    0.000000  -0.000000   0.000000   0.000038  -0.000000  -0.000030
    24  H    0.000000   0.000000   0.000000   0.000000  -0.000000   0.000006
    25  H    0.000000  -0.000000   0.000000   0.000019   0.000003  -0.000088
    26  H    0.000000  -0.000000   0.000000   0.000007  -0.000002  -0.000059
    27  H    0.006551  -0.000877   0.000032  -0.062782   0.002000   0.000047
               7          8          9         10         11         12
     1  O    0.000004  -0.000000  -0.000000   0.000000  -0.000000  -0.000000
     2  N   -0.000129   0.000002  -0.000003   0.000000  -0.000000   0.000002
     3  O    0.000003  -0.000000  -0.000000   0.000000  -0.000000  -0.000000
     4  C    0.004836  -0.000302   0.000997  -0.000044  -0.000024  -0.000089
     5  C   -0.029111   0.003283   0.000175  -0.000037   0.000023  -0.000208
     6  N    0.169767  -0.051366  -0.062407   0.003791  -0.000179   0.003718
     7  C    5.015507   0.418944   0.350656  -0.054464  -0.009127  -0.060553
     8  H    0.418944   0.538610  -0.056194   0.000958  -0.000354  -0.002277
     9  C    0.350656  -0.056194   5.161988   0.324509  -0.050380  -0.005580
    10  C   -0.054464   0.000958   0.324509   5.118392   0.337194  -0.060858
    11  C   -0.009127  -0.000354  -0.050380   0.337194   5.119479   0.335970
    12  C   -0.060553  -0.002277  -0.005580  -0.060858   0.335970   5.117064
    13  C    0.338694  -0.038130  -0.059462  -0.000467  -0.050744   0.371629
    14  H   -0.046503  -0.000849   0.004453  -0.000410   0.004189  -0.035926
    15  N   -0.057650   0.003886  -0.014685   0.001536  -0.012933  -0.081183
    16  C   -0.002664   0.000077  -0.001552  -0.000010   0.000009   0.002764
    17  H    0.001592  -0.000037  -0.000089   0.000001   0.000000   0.000000
    18  H   -0.021107  -0.004126   0.001070  -0.000082   0.000004  -0.000110
    19  H   -0.036932   0.004374   0.389721  -0.031689  -0.002225   0.000699
    20  H   -0.042934  -0.002115   0.399550  -0.035382   0.003949  -0.000412
    21  H    0.004591  -0.000080  -0.036358   0.402382  -0.034898   0.004348
    22  H   -0.004814   0.003565  -0.047028   0.397916  -0.045363  -0.001019
    23  H    0.000552   0.000033  -0.001947  -0.039007   0.399213  -0.037775
    24  H   -0.000131  -0.000103   0.004407  -0.038505   0.402339  -0.038719
    25  H    0.005170  -0.000023  -0.000416   0.004190  -0.033462   0.398560
    26  H   -0.003949   0.001708   0.000974  -0.002228  -0.041456   0.396914
    27  H   -0.000417   0.000010  -0.000066   0.000008   0.000010  -0.000037
              13         14         15         16         17         18
     1  O   -0.000026  -0.000003   0.000391   0.000350   0.000222   0.000001
     2  N   -0.000049  -0.000124   0.002313  -0.028490  -0.007511  -0.000052
     3  O   -0.000005   0.000001  -0.000017   0.002691   0.017372   0.000012
     4  C   -0.012277   0.002788  -0.064271   0.329470  -0.024170   0.001475
     5  C   -0.000596   0.005512  -0.005745  -0.050955   0.375224  -0.031173
     6  N   -0.045917  -0.006684   0.001585  -0.002255  -0.034687   0.337912
     7  C    0.338694  -0.046503  -0.057650  -0.002664   0.001592  -0.021107
     8  H   -0.038130  -0.000849   0.003886   0.000077  -0.000037  -0.004126
     9  C   -0.059462   0.004453  -0.014685  -0.001552  -0.000089   0.001070
    10  C   -0.000467  -0.000410   0.001536  -0.000010   0.000001  -0.000082
    11  C   -0.050744   0.004189  -0.012933   0.000009   0.000000   0.000004
    12  C    0.371629  -0.035926  -0.081183   0.002764   0.000000  -0.000110
    13  C    5.040637   0.402811   0.245341  -0.072126   0.000015   0.003021
    14  H    0.402811   0.524819  -0.037569  -0.004115   0.000102  -0.000113
    15  N    0.245341  -0.037569   6.965071   0.582597  -0.000085  -0.000138
    16  C   -0.072126  -0.004115   0.582597   4.722303   0.002137  -0.000215
    17  H    0.000015   0.000102  -0.000085   0.002137   0.377833  -0.002748
    18  H    0.003021  -0.000113  -0.000138  -0.000215  -0.002748   0.310409
    19  H   -0.007434   0.000104   0.007675   0.003202   0.000020  -0.000152
    20  H    0.004340  -0.000065   0.000121  -0.000035   0.000004   0.001101
    21  H   -0.000433   0.000010  -0.000042   0.000003  -0.000000   0.000001
    22  H    0.000058  -0.000055   0.000017  -0.000002   0.000000   0.000002
    23  H   -0.007394   0.000003   0.008505   0.000074   0.000000   0.000000
    24  H    0.004699  -0.000056   0.000140   0.000007   0.000000  -0.000000
    25  H   -0.035712  -0.002851   0.000309  -0.000015  -0.000000   0.000002
    26  H   -0.047285  -0.001051   0.004841  -0.000071   0.000000  -0.000000
    27  H    0.005076  -0.000184  -0.039653   0.402975  -0.000086   0.000001
              19         20         21         22         23         24
     1  O    0.000001   0.000000  -0.000000  -0.000000   0.000000   0.000000
     2  N   -0.000005  -0.000000   0.000000   0.000000  -0.000000   0.000000
     3  O    0.000000   0.000000   0.000000  -0.000000   0.000000   0.000000
     4  C   -0.001270  -0.000070   0.000001  -0.000000   0.000038   0.000000
     5  C    0.001285   0.000150   0.000001  -0.000003  -0.000000  -0.000000
     6  N   -0.000189  -0.000623  -0.000078  -0.000116  -0.000030   0.000006
     7  C   -0.036932  -0.042934   0.004591  -0.004814   0.000552  -0.000131
     8  H    0.004374  -0.002115  -0.000080   0.003565   0.000033  -0.000103
     9  C    0.389721   0.399550  -0.036358  -0.047028  -0.001947   0.004407
    10  C   -0.031689  -0.035382   0.402382   0.397916  -0.039007  -0.038505
    11  C   -0.002225   0.003949  -0.034898  -0.045363   0.399213   0.402339
    12  C    0.000699  -0.000412   0.004348  -0.001019  -0.037775  -0.038719
    13  C   -0.007434   0.004340  -0.000433   0.000058  -0.007394   0.004699
    14  H    0.000104  -0.000065   0.000010  -0.000055   0.000003  -0.000056
    15  N    0.007675   0.000121  -0.000042   0.000017   0.008505   0.000140
    16  C    0.003202  -0.000035   0.000003  -0.000002   0.000074   0.000007
    17  H    0.000020   0.000004  -0.000000   0.000000   0.000000   0.000000
    18  H   -0.000152   0.001101   0.000001   0.000002   0.000000  -0.000000
    19  H    0.504584  -0.024969  -0.002797   0.003950   0.001501  -0.000065
    20  H   -0.024969   0.543905  -0.002702  -0.003006  -0.000045  -0.000084
    21  H   -0.002797  -0.002702   0.524127  -0.027395  -0.002891  -0.002241
    22  H    0.003950  -0.003006  -0.027395   0.570887   0.004132  -0.003665
    23  H    0.001501  -0.000045  -0.002891   0.004132   0.498728  -0.025454
    24  H   -0.000065  -0.000084  -0.002241  -0.003665  -0.025454   0.538244
    25  H   -0.000029   0.000012  -0.000086  -0.000080  -0.002331  -0.002292
    26  H    0.000019  -0.000030  -0.000081   0.002375   0.004055  -0.003046
    27  H    0.000092   0.000000  -0.000000   0.000000  -0.000034  -0.000000
              25         26         27
     1  O    0.000000   0.000000   0.006551
     2  N   -0.000000  -0.000000  -0.000877
     3  O    0.000000   0.000000   0.000032
     4  C    0.000019   0.000007  -0.062782
     5  C    0.000003  -0.000002   0.002000
     6  N   -0.000088  -0.000059   0.000047
     7  C    0.005170  -0.003949  -0.000417
     8  H   -0.000023   0.001708   0.000010
     9  C   -0.000416   0.000974  -0.000066
    10  C    0.004190  -0.002228   0.000008
    11  C   -0.033462  -0.041456   0.000010
    12  C    0.398560   0.396914  -0.000037
    13  C   -0.035712  -0.047285   0.005076
    14  H   -0.002851  -0.001051  -0.000184
    15  N    0.000309   0.004841  -0.039653
    16  C   -0.000015  -0.000071   0.402975
    17  H   -0.000000   0.000000  -0.000086
    18  H    0.000002  -0.000000   0.000001
    19  H   -0.000029   0.000019   0.000092
    20  H    0.000012  -0.000030   0.000000
    21  H   -0.000086  -0.000081  -0.000000
    22  H   -0.000080   0.002375   0.000000
    23  H   -0.002331   0.004055  -0.000034
    24  H   -0.002292  -0.003046  -0.000000
    25  H    0.506073  -0.024058  -0.000011
    26  H   -0.024058   0.561480   0.000001
    27  H   -0.000011   0.000001   0.436065
 Mulliken charges:
               1
     1  O   -0.468190
     2  N    0.489529
     3  O   -0.502924
     4  C    0.000022
     5  C    0.193315
     6  N   -0.779196
     7  C    0.060168
     8  H    0.180507
     9  C   -0.302334
    10  C   -0.327691
    11  C   -0.321236
    12  C   -0.306921
    13  C   -0.038264
    14  H    0.191767
    15  N   -0.510357
    16  C    0.113844
    17  H    0.294889
    18  H    0.405007
    19  H    0.190529
    20  H    0.159341
    21  H    0.174619
    22  H    0.149642
    23  H    0.200073
    24  H    0.164520
    25  H    0.187115
    26  H    0.150942
    27  H    0.251281
 Sum of Mulliken charges =  -0.00000
 Mulliken charges with hydrogens summed into heavy atoms:
               1
     1  O   -0.468190
     2  N    0.489529
     3  O   -0.502924
     4  C    0.000022
     5  C    0.488204
     6  N   -0.374189
     7  C    0.240675
     9  C    0.047537
    10  C   -0.003431
    11  C    0.043358
    12  C    0.031136
    13  C    0.153503
    15  N   -0.510357
    16  C    0.365126
 Electronic spatial extent (au):  <R**2>=           3003.8404
 Charge=              0.0000 electrons
 Dipole moment (field-independent basis, Debye):
    X=              5.4524    Y=              4.8736    Z=              0.9881  Tot=              7.3795
 Quadrupole moment (field-independent basis, Debye-Ang):
   XX=           -106.2680   YY=            -78.8869   ZZ=            -81.8527
   XY=             -1.9096   XZ=              0.5091   YZ=              0.9525
 Traceless Quadrupole moment (field-independent basis, Debye-Ang):
   XX=            -17.2655   YY=             10.1156   ZZ=              7.1498
   XY=             -1.9096   XZ=              0.5091   YZ=              0.9525
 Octapole moment (field-independent basis, Debye-Ang**2):
  XXX=             93.0880  YYY=             37.8983  ZZZ=             -4.2261  XYY=             -5.0499
  XXY=             10.0092  XXZ=              2.2317  XZZ=             -9.1912  YZZ=             -0.8570
  YYZ=              5.7086  XYZ=              1.5559
 Hexadecapole moment (field-independent basis, Debye-Ang**3):
 XXXX=          -3383.4496 YYYY=           -596.4726 ZZZZ=           -303.7303 XXXY=            -23.1653
 XXXZ=              0.3748 YYYX=            -10.6237 YYYZ=             19.6027 ZZZX=              8.7981
 ZZZY=              5.5845 XXYY=           -625.8862 XXZZ=           -525.3848 YYZZ=           -158.8226
 XXYZ=             -8.7614 YYXZ=              5.1354 ZZXY=              4.7176
 N-N= 9.314925885624D+02 E-N=-3.409696608943D+03  KE= 6.596285991884D+02
 Unable to Open any file for archive entry.
 1\1\GINC-LOTUS\FOpt\RMP2-FC\6-31G(d)\C9H13N3O2\ALEXEY\02-Jul-2023\0\\#
 MP2/6-31G* SCF=Tight Opt=(ModRedun, MaxCycle=20 ) NoSymm\\MolName:\\0,
 1\O,-3.5059126772,-1.3830155078,-0.3945893696\N,-3.120383293,-0.240008
 4549,-0.0803325535\O,-3.8954833091,0.7086425239,0.1503939427\C,-1.6866
 697323,-0.0353835595,0.0431808164\C,-1.3038307043,1.2617885328,0.27333
 3225\N,-0.0591593973,1.7464431798,0.3909148884\C,1.2013609937,1.016753
 656,0.3659008489\H,1.8485590696,1.5415790299,1.0853648569\C,1.90841976
 45,1.0369113694,-0.9884294245\C,3.3080299337,0.4332973157,-0.824059404
 5\C,3.261879651,-0.9661440372,-0.2049355\C,2.4634406686,-0.9853090109,
 1.1003182609\C,1.0531259738,-0.4335544945,0.8646347037\H,0.4753450139,
 -0.4196599021,1.8026909462\N,0.4092240198,-1.3207709524,-0.1014515695\
 C,-0.8376908199,-1.129926648,-0.3907674267\H,-2.092891135,2.0080595466
 ,0.3075877602\H,0.0095487709,2.7477517122,0.5311962364\H,1.3176742203,
 0.4624962605,-1.7098368293\H,1.9740604106,2.0672851931,-1.3602844476\H
 ,3.8145206549,0.401716338,-1.7955290442\H,3.9042962793,1.0978163713,-0
 .1826499492\H,2.7880855754,-1.6604782837,-0.905801896\H,4.2815658913,-
 1.3276842819,-0.0266264521\H,2.3788417356,-2.0096083257,1.4781481676\H
 ,2.9703482408,-0.3911322735,1.8731625334\H,-1.3062857997,-1.864865297,
 -1.0445333201\\Version=ES64L-G16RevC.02\HF=-661.2994626\MP2=-663.33387
 12\RMSD=4.538e-09\RMSF=1.134e-03\Dipole=1.9938509,1.7172611,0.3710135\
 PG=C01 [X(C9H13N3O2)]\\@
 The archive entry for this job was punched.


 IF YOU GET CONFUSED, LOGIC OUT YOUR DILEMMA

           --  PICKER X-RAY CORP.    DIGITAL PRINTER MANUAL CA. 1964
 Job cpu time:       0 days  1 hours 15 minutes 30.1 seconds.
 Elapsed time:       0 days  0 hours 22 minutes 28.0 seconds.
 File lengths (MBytes):  RWF=     36 Int=      0 D2E=      0 Chk=      7 Scr=      1
 Normal termination of Gaussian 16 at Sun Jul  2 22:37:04 2023.
