 Entering Gaussian System, Link 0=g16
 Initial command:
 /home/alexey/programs//g16/l1.exe "/home/alexey/tmp/Gau-1580376.inp" -scrdir="/home/alexey/tmp/"
 Entering Link 1 = /home/alexey/programs//g16/l1.exe PID=   1580378.
  
 Copyright (c) 1988-2021, Gaussian, Inc.  All Rights Reserved.
  
 This is part of the Gaussian(R) 16 program.  It is based on
 the Gaussian(R) 09 system (copyright 2009, Gaussian, Inc.),
 the Gaussian(R) 03 system (copyright 2003, Gaussian, Inc.),
 the Gaussian(R) 98 system (copyright 1998, Gaussian, Inc.),
 the Gaussian(R) 94 system (copyright 1995, Gaussian, Inc.),
 the Gaussian 92(TM) system (copyright 1992, Gaussian, Inc.),
 the Gaussian 90(TM) system (copyright 1990, Gaussian, Inc.),
 the Gaussian 88(TM) system (copyright 1988, Gaussian, Inc.),
 the Gaussian 86(TM) system (copyright 1986, Carnegie Mellon
 University), and the Gaussian 82(TM) system (copyright 1983,
 Carnegie Mellon University). Gaussian is a federally registered
 trademark of Gaussian, Inc.
  
 This software contains proprietary and confidential information,
 including trade secrets, belonging to Gaussian, Inc.
  
 This software is provided under written license and may be
 used, copied, transmitted, or stored only in accord with that
 written license.
  
 The following legend is applicable only to US Government
 contracts under FAR:
  
                    RESTRICTED RIGHTS LEGEND
  
 Use, reproduction and disclosure by the US Government is
 subject to restrictions as set forth in subparagraphs (a)
 and (c) of the Commercial Computer Software - Restricted
 Rights clause in FAR 52.227-19.
  
 Gaussian, Inc.
 340 Quinnipiac St., Bldg. 40, Wallingford CT 06492
  
  
 ---------------------------------------------------------------
 Warning -- This program may not be used in any manner that
 competes with the business of Gaussian, Inc. or will provide
 assistance to any competitor of Gaussian, Inc.  The licensee
 of this program is prohibited from giving any competitor of
 Gaussian, Inc. access to this program.  By using this program,
 the user acknowledges that Gaussian, Inc. is engaged in the
 business of creating and licensing software in the field of
 computational chemistry and represents and warrants to the
 licensee that it is not a competitor of Gaussian, Inc. and that
 it will not use this program in any manner prohibited above.
 ---------------------------------------------------------------
  

 Cite this work as:
 Gaussian 16, Revision C.02,
 M. J. Frisch, G. W. Trucks, H. B. Schlegel, G. E. Scuseria, 
 M. A. Robb, J. R. Cheeseman, G. Scalmani, V. Barone, 
 G. A. Petersson, H. Nakatsuji, X. Li, M. Caricato, A. V. Marenich, 
 J. Bloino, B. G. Janesko, R. Gomperts, B. Mennucci, H. P. Hratchian, 
 J. V. Ortiz, A. F. Izmaylov, J. L. Sonnenberg, D. Williams-Young, 
 F. Ding, F. Lipparini, F. Egidi, J. Goings, B. Peng, A. Petrone, 
 T. Henderson, D. Ranasinghe, V. G. Zakrzewski, J. Gao, N. Rega, 
 G. Zheng, W. Liang, M. Hada, M. Ehara, K. Toyota, R. Fukuda, 
 J. Hasegawa, M. Ishida, T. Nakajima, Y. Honda, O. Kitao, H. Nakai, 
 T. Vreven, K. Throssell, J. A. Montgomery, Jr., J. E. Peralta, 
 F. Ogliaro, M. J. Bearpark, J. J. Heyd, E. N. Brothers, K. N. Kudin, 
 V. N. Staroverov, T. A. Keith, R. Kobayashi, J. Normand, 
 K. Raghavachari, A. P. Rendell, J. C. Burant, S. S. Iyengar, 
 J. Tomasi, M. Cossi, J. M. Millam, M. Klene, C. Adamo, R. Cammi, 
 J. W. Ochterski, R. L. Martin, K. Morokuma, O. Farkas, 
 J. B. Foresman, and D. J. Fox, Gaussian, Inc., Wallingford CT, 2019.
 
 ******************************************
 Gaussian 16:  ES64L-G16RevC.02  7-Dec-2021
                 2-Jul-2023 
 ******************************************
 %mem=8GB
 %NPROCS=4
 Will use up to    4 processors via shared memory.
 %NoSave
 ---------------------------------------------------------
 #MP2/6-31G* SCF=Tight Opt=(ModRedun, MaxCycle=20 ) NoSymm
 ---------------------------------------------------------
 1/6=20,18=120,19=15,38=1/1,3;
 2/9=110,12=2,15=1,17=6,18=5,40=1/2;
 3/5=1,6=6,7=1,11=9,25=1,30=1,71=1/1,2,3;
 4//1;
 5/5=2,32=2,38=5/2;
 8/6=4,10=2/1;
 9/15=2,16=-3/6;
 10/5=1,31=1/2;
 6/7=2,8=2,9=2,10=2/1;
 7/12=2,30=1/1,2,3,16;
 1/6=20,18=20,19=15/3(2);
 2/9=110,15=1/2;
 99//99;
 2/9=110,15=1/2;
 3/5=1,6=6,7=1,11=9,25=1,30=1,71=1/1,2,3;
 4/5=5,16=3,69=1/1;
 5/5=2,32=2,38=5/2;
 8/6=4,10=2/1;
 9/15=2,16=-3/6;
 10/5=1,31=1/2;
 7/12=2,30=1/1,2,3,16;
 1/6=20,18=20,19=15/3(-8);
 2/9=110,15=1/2;
 6/7=2,8=2,9=2,10=2/1;
 99/9=10/99;
 --------
 MolName:
 --------
 Symbolic Z-matrix:
 Charge =  0 Multiplicity = 1
 8                    0    -3.62024  -1.44428  -0.18409 
 7                    0    -3.25815  -0.28003  -0.02322 
 8                    0    -4.03648   0.66052   0.13929 
 6                    0    -1.7569    0.00448  -0.03664 
 6                    0    -1.36831   1.31739   0.25369 
 7                    0    -0.08139   1.76526   0.4035 
 6                    0     1.19802   0.99364   0.36822 
 1                    0     1.86367   1.48897   1.12202 
 6                    0     1.95884   1.04978  -0.98008 
 6                    0     3.37149   0.46299  -0.79646 
 6                    0     3.3114   -0.95508  -0.20693 
 6                    0     2.46648  -0.9934    1.08475 
 6                    0     1.02887  -0.45713   0.84312 
 1                    0     0.48186  -0.49937   1.81414 
 7                    0     0.37076  -1.32384  -0.13722 
 6                    0    -0.87144  -1.12238  -0.43183 
 1                    0    -2.15663   2.07176   0.41271 
 1                    0     0.15435   2.75062   0.263 
 1                    0     1.40745   0.47584  -1.75494 
 1                    0     2.04389   2.10107  -1.32825 
 1                    0     3.90364   0.44257  -1.77266 
 1                    0     3.95027   1.11449  -0.10421 
 1                    0     2.86243  -1.64184  -0.95963 
 1                    0     4.34     -1.31947   0.00619 
 1                    0     2.40919  -2.04101   1.45348 
 1                    0     2.96237  -0.3849    1.86979 
 1                    0    -1.37445  -1.87363  -1.05973 
 
 The following ModRedundant input section has been read:
 D      16       4       5      17 F                                           
 D       1       2       4      16 F                                           
 D       7      13      15      16 F                                           
 D       7       9      10      11 F                                           
 D       9      10      11      12 F                                           
 D       6       7      13      15 F                                           
 

 GradGradGradGradGradGradGradGradGradGradGradGradGradGradGradGradGradGrad
 Berny optimization.
 Initialization pass.
                           ----------------------------
                           !    Initial Parameters    !
                           ! (Angstroms and Degrees)  !
 --------------------------                            --------------------------
 ! Name  Definition              Value          Derivative Info.                !
 --------------------------------------------------------------------------------
 ! R1    R(1,2)                  1.2298         estimate D2E/DX2                !
 ! R2    R(2,3)                  1.2316         estimate D2E/DX2                !
 ! R3    R(2,4)                  1.528          estimate D2E/DX2                !
 ! R4    R(4,5)                  1.3997         estimate D2E/DX2                !
 ! R5    R(4,16)                 1.4866         estimate D2E/DX2                !
 ! R6    R(5,6)                  1.3708         estimate D2E/DX2                !
 ! R7    R(5,17)                 1.1026         estimate D2E/DX2                !
 ! R8    R(6,7)                  1.4945         estimate D2E/DX2                !
 ! R9    R(6,18)                 1.0229         estimate D2E/DX2                !
 ! R10   R(7,8)                  1.121          estimate D2E/DX2                !
 ! R11   R(7,9)                  1.5492         estimate D2E/DX2                !
 ! R12   R(7,13)                 1.5359         estimate D2E/DX2                !
 ! R13   R(9,10)                 1.5407         estimate D2E/DX2                !
 ! R14   R(9,19)                 1.1108         estimate D2E/DX2                !
 ! R15   R(9,20)                 1.1107         estimate D2E/DX2                !
 ! R16   R(10,11)                1.5369         estimate D2E/DX2                !
 ! R17   R(10,21)                1.112          estimate D2E/DX2                !
 ! R18   R(10,22)                1.1129         estimate D2E/DX2                !
 ! R19   R(11,12)                1.544          estimate D2E/DX2                !
 ! R20   R(11,23)                1.1134         estimate D2E/DX2                !
 ! R21   R(11,24)                1.1119         estimate D2E/DX2                !
 ! R22   R(12,13)                1.5533         estimate D2E/DX2                !
 ! R23   R(12,25)                1.1121         estimate D2E/DX2                !
 ! R24   R(12,26)                1.1102         estimate D2E/DX2                !
 ! R25   R(13,14)                1.1153         estimate D2E/DX2                !
 ! R26   R(13,15)                1.4647         estimate D2E/DX2                !
 ! R27   R(15,16)                1.2925         estimate D2E/DX2                !
 ! R28   R(16,27)                1.1008         estimate D2E/DX2                !
 ! A1    A(1,2,3)              123.6526         estimate D2E/DX2                !
 ! A2    A(1,2,4)              117.6702         estimate D2E/DX2                !
 ! A3    A(3,2,4)              118.676          estimate D2E/DX2                !
 ! A4    A(2,4,5)              116.4618         estimate D2E/DX2                !
 ! A5    A(2,4,16)             116.5117         estimate D2E/DX2                !
 ! A6    A(5,4,16)             126.9275         estimate D2E/DX2                !
 ! A7    A(4,5,6)              126.1408         estimate D2E/DX2                !
 ! A8    A(4,5,17)             118.2406         estimate D2E/DX2                !
 ! A9    A(6,5,17)             115.5878         estimate D2E/DX2                !
 ! A10   A(5,6,7)              129.2281         estimate D2E/DX2                !
 ! A11   A(5,6,18)             121.07           estimate D2E/DX2                !
 ! A12   A(7,6,18)             107.2675         estimate D2E/DX2                !
 ! A13   A(6,7,8)              105.327          estimate D2E/DX2                !
 ! A14   A(6,7,9)              114.978          estimate D2E/DX2                !
 ! A15   A(6,7,13)             112.7132         estimate D2E/DX2                !
 ! A16   A(8,7,9)              106.1175         estimate D2E/DX2                !
 ! A17   A(8,7,13)             105.9535         estimate D2E/DX2                !
 ! A18   A(9,7,13)             110.9427         estimate D2E/DX2                !
 ! A19   A(7,9,10)             109.4376         estimate D2E/DX2                !
 ! A20   A(7,9,19)             110.1584         estimate D2E/DX2                !
 ! A21   A(7,9,20)             110.1653         estimate D2E/DX2                !
 ! A22   A(10,9,19)            109.9682         estimate D2E/DX2                !
 ! A23   A(10,9,20)            109.1259         estimate D2E/DX2                !
 ! A24   A(19,9,20)            107.9628         estimate D2E/DX2                !
 ! A25   A(9,10,11)            111.1793         estimate D2E/DX2                !
 ! A26   A(9,10,21)            109.9472         estimate D2E/DX2                !
 ! A27   A(9,10,22)            109.1481         estimate D2E/DX2                !
 ! A28   A(11,10,21)           109.7857         estimate D2E/DX2                !
 ! A29   A(11,10,22)           108.7758         estimate D2E/DX2                !
 ! A30   A(21,10,22)           107.9337         estimate D2E/DX2                !
 ! A31   A(10,11,12)           111.4201         estimate D2E/DX2                !
 ! A32   A(10,11,23)           108.9993         estimate D2E/DX2                !
 ! A33   A(10,11,24)           109.8614         estimate D2E/DX2                !
 ! A34   A(12,11,23)           109.2433         estimate D2E/DX2                !
 ! A35   A(12,11,24)           109.7413         estimate D2E/DX2                !
 ! A36   A(23,11,24)           107.4857         estimate D2E/DX2                !
 ! A37   A(11,12,13)           111.5787         estimate D2E/DX2                !
 ! A38   A(11,12,25)           109.2058         estimate D2E/DX2                !
 ! A39   A(11,12,26)           109.4842         estimate D2E/DX2                !
 ! A40   A(13,12,25)           109.2161         estimate D2E/DX2                !
 ! A41   A(13,12,26)           109.5228         estimate D2E/DX2                !
 ! A42   A(25,12,26)           107.7514         estimate D2E/DX2                !
 ! A43   A(7,13,12)            105.8006         estimate D2E/DX2                !
 ! A44   A(7,13,14)            111.0388         estimate D2E/DX2                !
 ! A45   A(7,13,15)            113.6704         estimate D2E/DX2                !
 ! A46   A(12,13,14)           107.7837         estimate D2E/DX2                !
 ! A47   A(12,13,15)           108.4016         estimate D2E/DX2                !
 ! A48   A(14,13,15)           109.8735         estimate D2E/DX2                !
 ! A49   A(13,15,16)           119.4835         estimate D2E/DX2                !
 ! A50   A(4,16,15)            129.0515         estimate D2E/DX2                !
 ! A51   A(4,16,27)            113.3774         estimate D2E/DX2                !
 ! A52   A(15,16,27)           117.5709         estimate D2E/DX2                !
 ! D1    D(1,2,4,5)           -175.1052         estimate D2E/DX2                !
 ! D2    D(1,2,4,16)             8.2589         Frozen                          !
 ! D3    D(3,2,4,5)              5.2837         estimate D2E/DX2                !
 ! D4    D(3,2,4,16)          -171.3522         estimate D2E/DX2                !
 ! D5    D(2,4,5,6)            174.3101         estimate D2E/DX2                !
 ! D6    D(2,4,5,17)            -3.5725         estimate D2E/DX2                !
 ! D7    D(16,4,5,6)            -9.4562         estimate D2E/DX2                !
 ! D8    D(16,4,5,17)          172.6612         Frozen                          !
 ! D9    D(2,4,16,15)         -155.4346         estimate D2E/DX2                !
 ! D10   D(2,4,16,27)           24.3797         estimate D2E/DX2                !
 ! D11   D(5,4,16,15)           28.3334         estimate D2E/DX2                !
 ! D12   D(5,4,16,27)         -151.8524         estimate D2E/DX2                !
 ! D13   D(4,5,6,7)             -3.3439         estimate D2E/DX2                !
 ! D14   D(4,5,6,18)           156.5857         estimate D2E/DX2                !
 ! D15   D(17,5,6,7)           174.5879         estimate D2E/DX2                !
 ! D16   D(17,5,6,18)          -25.4825         estimate D2E/DX2                !
 ! D17   D(5,6,7,8)           -144.4894         estimate D2E/DX2                !
 ! D18   D(5,6,7,9)             99.0731         estimate D2E/DX2                !
 ! D19   D(5,6,7,13)           -29.4226         estimate D2E/DX2                !
 ! D20   D(18,6,7,8)            53.4382         estimate D2E/DX2                !
 ! D21   D(18,6,7,9)           -62.9993         estimate D2E/DX2                !
 ! D22   D(18,6,7,13)          168.505          estimate D2E/DX2                !
 ! D23   D(6,7,9,10)           168.7089         estimate D2E/DX2                !
 ! D24   D(6,7,9,19)           -70.2724         estimate D2E/DX2                !
 ! D25   D(6,7,9,20)            48.7265         estimate D2E/DX2                !
 ! D26   D(8,7,9,10)            52.7234         estimate D2E/DX2                !
 ! D27   D(8,7,9,19)           173.7421         estimate D2E/DX2                !
 ! D28   D(8,7,9,20)           -67.2589         estimate D2E/DX2                !
 ! D29   D(13,7,9,10)          -61.9176         estimate D2E/DX2                !
 ! D30   D(13,7,9,19)           59.1011         estimate D2E/DX2                !
 ! D31   D(13,7,9,20)          178.1            estimate D2E/DX2                !
 ! D32   D(6,7,13,12)         -166.1454         estimate D2E/DX2                !
 ! D33   D(6,7,13,14)          -49.4701         estimate D2E/DX2                !
 ! D34   D(6,7,13,15)           75.0219         Frozen                          !
 ! D35   D(8,7,13,12)          -51.4568         estimate D2E/DX2                !
 ! D36   D(8,7,13,14)           65.2185         estimate D2E/DX2                !
 ! D37   D(8,7,13,15)         -170.2895         estimate D2E/DX2                !
 ! D38   D(9,7,13,12)           63.2867         estimate D2E/DX2                !
 ! D39   D(9,7,13,14)          179.9621         estimate D2E/DX2                !
 ! D40   D(9,7,13,15)          -55.5459         estimate D2E/DX2                !
 ! D41   D(7,9,10,11)           54.8117         Frozen                          !
 ! D42   D(7,9,10,21)          176.602          estimate D2E/DX2                !
 ! D43   D(7,9,10,22)          -65.1838         estimate D2E/DX2                !
 ! D44   D(19,9,10,11)         -66.3223         estimate D2E/DX2                !
 ! D45   D(19,9,10,21)          55.468          estimate D2E/DX2                !
 ! D46   D(19,9,10,22)         173.6822         estimate D2E/DX2                !
 ! D47   D(20,9,10,11)         175.4291         estimate D2E/DX2                !
 ! D48   D(20,9,10,21)         -62.7807         estimate D2E/DX2                !
 ! D49   D(20,9,10,22)          55.4336         estimate D2E/DX2                !
 ! D50   D(9,10,11,12)         -52.8218         Frozen                          !
 ! D51   D(9,10,11,23)          67.8092         estimate D2E/DX2                !
 ! D52   D(9,10,11,24)        -174.6581         estimate D2E/DX2                !
 ! D53   D(21,10,11,12)       -174.7061         estimate D2E/DX2                !
 ! D54   D(21,10,11,23)        -54.0751         estimate D2E/DX2                !
 ! D55   D(21,10,11,24)         63.4576         estimate D2E/DX2                !
 ! D56   D(22,10,11,12)         67.3944         estimate D2E/DX2                !
 ! D57   D(22,10,11,23)       -171.9747         estimate D2E/DX2                !
 ! D58   D(22,10,11,24)        -54.4419         estimate D2E/DX2                !
 ! D59   D(10,11,12,13)         56.615          estimate D2E/DX2                !
 ! D60   D(10,11,12,25)        177.4502         estimate D2E/DX2                !
 ! D61   D(10,11,12,26)        -64.7931         estimate D2E/DX2                !
 ! D62   D(23,11,12,13)        -63.8727         estimate D2E/DX2                !
 ! D63   D(23,11,12,25)         56.9626         estimate D2E/DX2                !
 ! D64   D(23,11,12,26)        174.7192         estimate D2E/DX2                !
 ! D65   D(24,11,12,13)        178.5209         estimate D2E/DX2                !
 ! D66   D(24,11,12,25)        -60.6439         estimate D2E/DX2                !
 ! D67   D(24,11,12,26)         57.1128         estimate D2E/DX2                !
 ! D68   D(11,12,13,7)         -60.3578         estimate D2E/DX2                !
 ! D69   D(11,12,13,14)       -179.2122         estimate D2E/DX2                !
 ! D70   D(11,12,13,15)         61.9094         estimate D2E/DX2                !
 ! D71   D(25,12,13,7)         178.813          estimate D2E/DX2                !
 ! D72   D(25,12,13,14)         59.9586         estimate D2E/DX2                !
 ! D73   D(25,12,13,15)        -58.9198         estimate D2E/DX2                !
 ! D74   D(26,12,13,7)          61.0279         estimate D2E/DX2                !
 ! D75   D(26,12,13,14)        -57.8265         estimate D2E/DX2                !
 ! D76   D(26,12,13,15)       -176.7049         estimate D2E/DX2                !
 ! D77   D(7,13,15,16)         -67.1601         Frozen                          !
 ! D78   D(12,13,15,16)        175.5072         estimate D2E/DX2                !
 ! D79   D(14,13,15,16)         57.9572         estimate D2E/DX2                !
 ! D80   D(13,15,16,4)           8.3094         estimate D2E/DX2                !
 ! D81   D(13,15,16,27)       -171.4982         estimate D2E/DX2                !
 --------------------------------------------------------------------------------
 Trust Radius=3.00D-01 FncErr=1.00D-07 GrdErr=1.00D-07 EigMax=2.50D+02 EigMin=1.00D-04
 Number of steps in this run=     20 maximum allowed number of steps=    162.
 GradGradGradGradGradGradGradGradGradGradGradGradGradGradGradGradGradGrad

                          Input orientation:                          
 ---------------------------------------------------------------------
 Center     Atomic      Atomic             Coordinates (Angstroms)
 Number     Number       Type             X           Y           Z
 ---------------------------------------------------------------------
      1          8           0       -3.620240   -1.444280   -0.184090
      2          7           0       -3.258150   -0.280030   -0.023220
      3          8           0       -4.036480    0.660520    0.139290
      4          6           0       -1.756900    0.004480   -0.036640
      5          6           0       -1.368310    1.317390    0.253690
      6          7           0       -0.081390    1.765260    0.403500
      7          6           0        1.198020    0.993640    0.368220
      8          1           0        1.863670    1.488970    1.122020
      9          6           0        1.958840    1.049780   -0.980080
     10          6           0        3.371490    0.462990   -0.796460
     11          6           0        3.311400   -0.955080   -0.206930
     12          6           0        2.466480   -0.993400    1.084750
     13          6           0        1.028870   -0.457130    0.843120
     14          1           0        0.481860   -0.499370    1.814140
     15          7           0        0.370760   -1.323840   -0.137220
     16          6           0       -0.871440   -1.122380   -0.431830
     17          1           0       -2.156630    2.071760    0.412710
     18          1           0        0.154350    2.750620    0.263000
     19          1           0        1.407450    0.475840   -1.754940
     20          1           0        2.043890    2.101070   -1.328250
     21          1           0        3.903640    0.442570   -1.772660
     22          1           0        3.950270    1.114490   -0.104210
     23          1           0        2.862430   -1.641840   -0.959630
     24          1           0        4.340000   -1.319470    0.006190
     25          1           0        2.409190   -2.041010    1.453480
     26          1           0        2.962370   -0.384900    1.869790
     27          1           0       -1.374450   -1.873630   -1.059730
 ---------------------------------------------------------------------
                    Distance matrix (angstroms):
                    1          2          3          4          5
     1  O    0.000000
     2  N    1.229824   0.000000
     3  O    2.169796   1.231601   0.000000
     4  C    2.364885   1.528031   2.378618   0.000000
     5  C    3.590217   2.489965   2.750218   1.399652   0.000000
     6  N    4.813509   3.802250   4.114972   2.470102   1.370837
     7  C    5.428087   4.651119   5.250083   3.142276   2.589205
     8  H    6.354774   5.538409   6.038531   4.081021   3.350990
     9  C    6.162797   5.468177   6.111332   3.973595   3.558614
    10  C    7.273030   6.715810   7.469449   5.204608   4.929353
    11  C    6.948919   6.606696   7.531359   5.161145   5.222641
    12  C    6.233892   5.874341   6.776270   4.482211   4.553683
    13  C    4.862494   4.377265   5.234720   2.957630   3.040201
    14  H    4.659721   4.172730   4.956396   2.948101   3.026343
    15  N    3.993092   3.777767   4.841271   2.510276   3.186420
    16  C    2.778650   2.563767   3.677280   1.486616   2.582498
    17  H    3.854979   2.633305   2.366473   2.152985   1.102638
    18  H    5.660795   4.572955   4.684750   3.359158   2.091107
    19  H    5.606434   5.033688   5.767026   3.631507   3.528122
    20  H    6.779453   5.956876   6.418704   4.528791   3.841848
    21  H    7.917861   7.407694   8.169979   5.936952   5.715318
    22  H    7.991640   7.342518   8.003347   5.814506   5.334468
    23  H    6.531884   6.339786   7.355504   4.990039   5.303617
    24  H    7.963492   7.668975   8.608339   6.239140   6.292781
    25  H    6.276285   6.115590   7.111401   4.874504   5.194983
    26  H    6.976494   6.503026   7.285014   5.104665   4.925887
    27  H    2.448399   2.676236   3.866002   2.172620   3.450756
                    6          7          8          9         10
     6  N    0.000000
     7  C    1.494501   0.000000
     8  H    2.091857   1.121007   0.000000
     9  C    2.566855   1.549165   2.149598   0.000000
    10  C    3.880489   2.522309   2.647021   1.540655   0.000000
    11  C    4.391344   2.931669   3.136146   2.539024   1.536906
    12  C    3.816536   2.463886   2.554786   2.948865   2.545401
    13  C    2.522887   1.535863   2.135880   2.541590   3.003783
    14  H    2.726849   2.198329   2.518318   3.519801   4.011400
    15  N    3.168494   2.512079   3.424378   2.977664   3.554116
    16  C    3.108122   3.065988   4.088328   3.609618   4.544096
    17  H    2.097772   3.523918   4.123782   4.463340   5.883056
    18  H    1.022863   2.046289   2.291604   2.773858   4.087260
    19  H    2.922005   2.195401   3.084067   1.110786   2.185475
    20  H    2.761981   2.195429   2.531989   1.110705   2.174541
    21  H    4.729233   3.493913   3.692642   2.186123   1.112010
    22  H    4.115283   2.795116   2.449035   2.176495   1.112946
    23  H    4.704522   3.388097   3.890085   2.839315   2.171653
    24  H    5.405747   3.918365   3.906997   3.500857   2.181610
    25  H    4.668312   3.442938   3.587230   3.959547   3.501181
    26  H    4.004706   2.695926   2.297322   3.344718   2.827576
    27  H    4.129717   4.108270   5.152915   4.434354   5.296513
                   11         12         13         14         15
    11  C    0.000000
    12  C    1.543954   0.000000
    13  C    2.561348   1.553285   0.000000
    14  H    3.506949   2.171357   1.115295   0.000000
    15  N    2.964491   2.448355   1.464705   2.121297   0.000000
    16  C    4.192221   3.668564   2.383114   2.695170   1.292456
    17  H    6.280531   5.587485   4.089981   3.941617   4.268515
    18  H    4.890809   4.476483   3.375053   3.616038   4.099785
    19  H    2.840580   3.368093   2.786337   3.813933   2.632602
    20  H    3.493421   3.946758   3.505638   4.367704   3.993485
    21  H    2.180753   3.506028   3.989495   5.045886   4.275057
    22  H    2.168369   2.838742   3.449928   4.279542   4.331216
    23  H    1.113450   2.180995   2.831146   3.829641   2.643086
    24  H    1.111853   2.186250   3.522451   4.338951   3.971832
    25  H    2.179493   1.112084   2.187807   2.494260   2.683255
    26  H    2.181672   1.110165   2.190363   2.483773   3.409713
    27  H    4.850587   4.486239   3.376871   3.686951   2.049159
                   16         17         18         19         20
    16  C    0.000000
    17  H    3.545066   0.000000
    18  H    4.066345   2.413274   0.000000
    19  H    3.081926   4.466356   3.288916   0.000000
    20  H    4.437719   4.547106   2.554281   1.796801   0.000000
    21  H    5.200796   6.645071   4.850586   2.496475   2.531164
    22  H    5.325393   6.203048   4.149792   3.098180   2.471012
    23  H    3.806599   6.392582   5.303039   2.689620   3.849060
    24  H    5.233528   7.339748   5.843907   3.863233   4.330467
    25  H    3.893688   6.232559   5.427823   4.199045   5.002828
    26  H    4.532045   5.861947   4.505356   4.036994   4.153446
    27  H    1.100752   4.283222   5.046834   3.707060   5.249323
                   21         22         23         24         25
    21  H    0.000000
    22  H    1.799271   0.000000
    23  H    2.467772   3.084233   0.000000
    24  H    2.541555   2.467436   1.794420   0.000000
    25  H    4.336995   3.841680   2.487542   2.518590   0.000000
    26  H    3.852030   2.668481   3.097661   2.498858   1.794999
    27  H    5.807864   6.180172   4.244396   5.839368   4.545346
                   26         27
    26  H    0.000000
    27  H    5.441177   0.000000
 Symmetry turned off by external request.
 Stoichiometry    C9H13N3O2
 Framework group  C1[X(C9H13N3O2)]
 Deg. of freedom    75
 Full point group                 C1      NOp   1
 Rotational constants (GHZ):           1.6745568           0.4001855           0.3550695
 Standard basis: 6-31G(d) (6D, 7F)
   236 basis functions,   444 primitive gaussians,   236 cartesian basis functions
    52 alpha electrons       52 beta electrons
       nuclear repulsion energy       917.3931849002 Hartrees.
 NAtoms=   27 NActive=   27 NUniq=   27 SFac= 1.00D+00 NAtFMM=   60 NAOKFM=F Big=F
 Integral buffers will be    131072 words long.
 Raffenetti 1 integral format.
 Two-electron integral symmetry is turned off.
 One-electron integrals computed using PRISM.
 NBasis=   236 RedAO= T EigKep=  1.27D-03  NBF=   236
 NBsUse=   236 1.00D-06 EigRej= -1.00D+00 NBFU=   236
 ExpMin= 1.61D-01 ExpMax= 5.48D+03 ExpMxC= 8.25D+02 IAcc=3 IRadAn=         5 AccDes= 0.00D+00
 Harris functional with IExCor=  205 and IRadAn=       5 diagonalized for initial guess.
 HarFok:  IExCor=  205 AccDes= 0.00D+00 IRadAn=         5 IDoV= 1 UseB2=F ITyADJ=14
 ICtDFT=  3500011 ScaDFX=  1.000000  1.000000  1.000000  1.000000
 FoFCou: FMM=F IPFlag=           0 FMFlag=      100000 FMFlg1=           0
         NFxFlg=           0 DoJE=T BraDBF=F KetDBF=T FulRan=T
         wScrn=  0.000000 ICntrl=       500 IOpCl=  0 I1Cent=   200000004 NGrid=           0
         NMat0=    1 NMatS0=      1 NMatT0=    0 NMatD0=    1 NMtDS0=    0 NMtDT0=    0
 Symmetry not used in FoFCou.
 Keep R1 ints in memory in canonical form, NReq=397720213.
 Requested convergence on RMS density matrix=1.00D-08 within 128 cycles.
 Requested convergence on MAX density matrix=1.00D-06.
 Requested convergence on             energy=1.00D-06.
 No special actions if energy rises.
 SCF Done:  E(RHF) =  -661.281874296     A.U. after   16 cycles
            NFock= 16  Conv=0.76D-08     -V/T= 2.0037
 ExpMin= 1.61D-01 ExpMax= 5.48D+03 ExpMxC= 8.25D+02 IAcc=3 IRadAn=         5 AccDes= 0.00D+00
 HarFok:  IExCor=  205 AccDes= 0.00D+00 IRadAn=         5 IDoV=-2 UseB2=F ITyADJ=14
 ICtDFT= 12500011 ScaDFX=  1.000000  1.000000  1.000000  1.000000
 Range of M.O.s used for correlation:    15   236
 NBasis=   236 NAE=    52 NBE=    52 NFC=    14 NFV=     0
 NROrb=    222 NOA=    38 NOB=    38 NVA=   184 NVB=   184
 Fully direct method using O(ONN) memory.
 JobTyp=1 Pass  1:  I=  15 to  52 NPSUse=  4 ParTrn=T ParDer=T DoDerP=T.
 Spin components of T(2) and E(2):
     alpha-alpha T2 =       0.9197725265D-01 E2=     -0.2717700076D+00
     alpha-beta  T2 =       0.4995739945D+00 E2=     -0.1493669974D+01
     beta-beta   T2 =       0.9197725265D-01 E2=     -0.2717700076D+00
 ANorm=    0.1297508574D+01
 E2 =    -0.2037209989D+01 EUMP2 =    -0.66331908428545D+03
          IDoAtm=111111111111111111111111111
          Differentiating once with respect to electric field.
                with respect to dipole field.
          Differentiating once with respect to nuclear coordinates.
 Keep R1 ints in memory in canonical form, NReq=397723379.
          There are     1 degrees of freedom in the 1st order CPHF.  IDoFFX=0 NUNeed=     1.
 LinEq1:  Iter=  0 NonCon=     1 RMS=4.61D-03 Max=1.15D-01 NDo=     1
 AX will form     1 AO Fock derivatives at one time.
 LinEq1:  Iter=  1 NonCon=     1 RMS=1.57D-03 Max=3.01D-02 NDo=     1
 LinEq1:  Iter=  2 NonCon=     1 RMS=6.41D-04 Max=1.85D-02 NDo=     1
 LinEq1:  Iter=  3 NonCon=     1 RMS=2.93D-04 Max=9.16D-03 NDo=     1
 LinEq1:  Iter=  4 NonCon=     1 RMS=9.01D-05 Max=2.07D-03 NDo=     1
 LinEq1:  Iter=  5 NonCon=     1 RMS=3.73D-05 Max=1.87D-03 NDo=     1
 LinEq1:  Iter=  6 NonCon=     1 RMS=1.53D-05 Max=5.77D-04 NDo=     1
 LinEq1:  Iter=  7 NonCon=     1 RMS=5.87D-06 Max=1.00D-04 NDo=     1
 LinEq1:  Iter=  8 NonCon=     1 RMS=2.34D-06 Max=5.93D-05 NDo=     1
 LinEq1:  Iter=  9 NonCon=     1 RMS=8.65D-07 Max=2.48D-05 NDo=     1
 LinEq1:  Iter= 10 NonCon=     1 RMS=4.25D-07 Max=1.50D-05 NDo=     1
 LinEq1:  Iter= 11 NonCon=     1 RMS=1.52D-07 Max=5.72D-06 NDo=     1
 LinEq1:  Iter= 12 NonCon=     1 RMS=5.32D-08 Max=7.89D-07 NDo=     1
 LinEq1:  Iter= 13 NonCon=     1 RMS=1.66D-08 Max=2.78D-07 NDo=     1
 LinEq1:  Iter= 14 NonCon=     1 RMS=5.09D-09 Max=1.16D-07 NDo=     1
 LinEq1:  Iter= 15 NonCon=     1 RMS=1.85D-09 Max=4.15D-08 NDo=     1
 LinEq1:  Iter= 16 NonCon=     1 RMS=7.13D-10 Max=1.32D-08 NDo=     1
 LinEq1:  Iter= 17 NonCon=     1 RMS=2.40D-10 Max=3.93D-09 NDo=     1
 LinEq1:  Iter= 18 NonCon=     1 RMS=8.43D-11 Max=1.07D-09 NDo=     1
 LinEq1:  Iter= 19 NonCon=     0 RMS=2.84D-11 Max=4.33D-10 NDo=     1
 Linear equations converged to 1.000D-10 1.000D-09 after    19 iterations.
 End of Minotr F.D. properties file   721 does not exist.
 End of Minotr F.D. properties file   722 does not exist.
 End of Minotr F.D. properties file   788 does not exist.

 **********************************************************************

            Population analysis using the SCF Density.

 **********************************************************************

 Alpha  occ. eigenvalues --  -20.59784 -20.59355 -15.85251 -15.63529 -15.56741
 Alpha  occ. eigenvalues --  -11.35926 -11.30446 -11.30119 -11.30018 -11.27667
 Alpha  occ. eigenvalues --  -11.24657 -11.23896 -11.23391 -11.22853  -1.58446
 Alpha  occ. eigenvalues --   -1.37948  -1.28669  -1.22707  -1.13284  -1.08367
 Alpha  occ. eigenvalues --   -1.01813  -1.00687  -0.93614  -0.88948  -0.84951
 Alpha  occ. eigenvalues --   -0.81539  -0.78003  -0.76975  -0.74331  -0.71197
 Alpha  occ. eigenvalues --   -0.70277  -0.69756  -0.67377  -0.64370  -0.63247
 Alpha  occ. eigenvalues --   -0.61749  -0.60224  -0.57367  -0.56532  -0.54879
 Alpha  occ. eigenvalues --   -0.53734  -0.50716  -0.49441  -0.48452  -0.47838
 Alpha  occ. eigenvalues --   -0.47673  -0.46165  -0.45697  -0.43987  -0.42072
 Alpha  occ. eigenvalues --   -0.39882  -0.33735
 Alpha virt. eigenvalues --    0.07492   0.11851   0.17989   0.21323   0.23307
 Alpha virt. eigenvalues --    0.24234   0.26426   0.27880   0.28544   0.28874
 Alpha virt. eigenvalues --    0.29920   0.31096   0.31848   0.32291   0.33329
 Alpha virt. eigenvalues --    0.33796   0.34259   0.35462   0.37580   0.38592
 Alpha virt. eigenvalues --    0.40577   0.41692   0.44355   0.45241   0.45614
 Alpha virt. eigenvalues --    0.46209   0.49752   0.53186   0.57498   0.58921
 Alpha virt. eigenvalues --    0.63306   0.69063   0.69197   0.72236   0.74021
 Alpha virt. eigenvalues --    0.74928   0.75700   0.75857   0.77870   0.79116
 Alpha virt. eigenvalues --    0.80525   0.83727   0.84912   0.85404   0.87908
 Alpha virt. eigenvalues --    0.89027   0.90201   0.90730   0.91876   0.93913
 Alpha virt. eigenvalues --    0.95051   0.97244   0.98871   1.00394   1.01985
 Alpha virt. eigenvalues --    1.02766   1.05074   1.06473   1.06986   1.08709
 Alpha virt. eigenvalues --    1.09624   1.10462   1.11386   1.12053   1.13246
 Alpha virt. eigenvalues --    1.13833   1.14094   1.15459   1.16334   1.17251
 Alpha virt. eigenvalues --    1.18003   1.20008   1.21296   1.22304   1.22911
 Alpha virt. eigenvalues --    1.23816   1.24190   1.25569   1.26815   1.27634
 Alpha virt. eigenvalues --    1.29443   1.31472   1.33152   1.36170   1.39726
 Alpha virt. eigenvalues --    1.43024   1.46252   1.47071   1.49438   1.52958
 Alpha virt. eigenvalues --    1.54946   1.55956   1.59829   1.61494   1.66320
 Alpha virt. eigenvalues --    1.68547   1.70391   1.72508   1.73619   1.76308
 Alpha virt. eigenvalues --    1.77960   1.80181   1.84482   1.89227   1.92423
 Alpha virt. eigenvalues --    1.93866   1.95973   1.97691   1.99069   2.00702
 Alpha virt. eigenvalues --    2.02998   2.03633   2.06099   2.08960   2.11870
 Alpha virt. eigenvalues --    2.12941   2.13447   2.17715   2.18851   2.19475
 Alpha virt. eigenvalues --    2.20751   2.22212   2.24101   2.25242   2.26314
 Alpha virt. eigenvalues --    2.29395   2.32179   2.33269   2.35560   2.35919
 Alpha virt. eigenvalues --    2.38744   2.39925   2.41757   2.43290   2.46590
 Alpha virt. eigenvalues --    2.48726   2.50105   2.50472   2.56673   2.57311
 Alpha virt. eigenvalues --    2.60694   2.62881   2.65912   2.68551   2.68852
 Alpha virt. eigenvalues --    2.69653   2.70208   2.74674   2.77196   2.81036
 Alpha virt. eigenvalues --    2.84732   2.86697   2.89947   2.91340   2.95109
 Alpha virt. eigenvalues --    2.97494   2.98469   3.02167   3.03713   3.05663
 Alpha virt. eigenvalues --    3.07145   3.12951   3.18979   3.22812   3.27191
 Alpha virt. eigenvalues --    3.31100   3.33933   3.37337   3.43359   3.59904
 Alpha virt. eigenvalues --    4.10161   4.23431   4.32008   4.36448   4.43217
 Alpha virt. eigenvalues --    4.52626   4.59646   4.60346   4.70777   4.77705
 Alpha virt. eigenvalues --    4.96390   4.99237   5.02827   5.09996
          Condensed to atoms (all electrons):
               1          2          3          4          5          6
     1  O    8.300161   0.313343  -0.089745  -0.079335   0.003556  -0.000012
     2  N    0.313343   5.680686   0.309255   0.266737  -0.046597   0.000826
     3  O   -0.089745   0.309255   8.331788  -0.087748   0.007996   0.000464
     4  C   -0.079335   0.266737  -0.087748   5.247422   0.567166  -0.047585
     5  C    0.003556  -0.046597   0.007996   0.567166   4.671019   0.307580
     6  N   -0.000012   0.000826   0.000464  -0.047585   0.307580   7.184744
     7  C    0.000003  -0.000092   0.000002   0.004399  -0.028980   0.198915
     8  H   -0.000000   0.000002  -0.000000  -0.000206   0.002526  -0.049383
     9  C   -0.000000  -0.000003   0.000000   0.000512   0.001357  -0.056445
    10  C   -0.000000   0.000000  -0.000000  -0.000021  -0.000054   0.003338
    11  C   -0.000000  -0.000000  -0.000000  -0.000014   0.000015  -0.000155
    12  C   -0.000000   0.000002  -0.000000  -0.000111  -0.000145   0.003611
    13  C   -0.000019  -0.000023  -0.000003  -0.010371   0.000442  -0.044942
    14  H   -0.000002  -0.000060   0.000000   0.002935   0.004508  -0.005547
    15  N    0.000187   0.001651  -0.000013  -0.061647  -0.003608   0.001786
    16  C    0.003336  -0.026569   0.001972   0.317851  -0.041287  -0.001071
    17  H    0.000131  -0.004357   0.012332  -0.026314   0.376385  -0.033711
    18  H    0.000000  -0.000035   0.000007   0.001049  -0.024530   0.328563
    19  H    0.000000  -0.000000   0.000000  -0.000817   0.000760   0.000549
    20  H    0.000000  -0.000000   0.000000  -0.000026   0.000033  -0.001570
    21  H   -0.000000  -0.000000   0.000000   0.000000   0.000001  -0.000059
    22  H   -0.000000   0.000000  -0.000000  -0.000000  -0.000002  -0.000097
    23  H    0.000000  -0.000000   0.000000   0.000025  -0.000000  -0.000024
    24  H    0.000000   0.000000   0.000000   0.000000  -0.000000   0.000004
    25  H    0.000000  -0.000000   0.000000   0.000019  -0.000000  -0.000071
    26  H    0.000000  -0.000000   0.000000   0.000006  -0.000000  -0.000067
    27  H    0.005425  -0.000289   0.000007  -0.066406   0.002065   0.000042
               7          8          9         10         11         12
     1  O    0.000003  -0.000000  -0.000000  -0.000000  -0.000000  -0.000000
     2  N   -0.000092   0.000002  -0.000003   0.000000  -0.000000   0.000002
     3  O    0.000002  -0.000000   0.000000  -0.000000  -0.000000  -0.000000
     4  C    0.004399  -0.000206   0.000512  -0.000021  -0.000014  -0.000111
     5  C   -0.028980   0.002526   0.001357  -0.000054   0.000015  -0.000145
     6  N    0.198915  -0.049383  -0.056445   0.003338  -0.000155   0.003611
     7  C    5.007950   0.416229   0.341116  -0.049314  -0.007759  -0.064221
     8  H    0.416229   0.546376  -0.060183   0.001415  -0.000325  -0.002868
     9  C    0.341116  -0.060183   5.180603   0.318079  -0.053070  -0.006156
    10  C   -0.049314   0.001415   0.318079   5.126666   0.332727  -0.060212
    11  C   -0.007759  -0.000325  -0.053070   0.332727   5.124131   0.330584
    12  C   -0.064221  -0.002868  -0.006156  -0.060212   0.330584   5.137287
    13  C    0.331002  -0.040006  -0.051164  -0.001598  -0.047881   0.368346
    14  H   -0.040295  -0.000958   0.003862  -0.000391   0.003961  -0.040754
    15  N   -0.058191   0.004009  -0.012754   0.001428  -0.007737  -0.074270
    16  C   -0.002371   0.000028  -0.000886  -0.000027   0.000002   0.002479
    17  H    0.001388  -0.000020  -0.000068   0.000001   0.000000   0.000001
    18  H   -0.028622  -0.002831   0.000828  -0.000118   0.000011  -0.000138
    19  H   -0.035087   0.004078   0.386177  -0.032573  -0.002250   0.000619
    20  H   -0.041773  -0.001848   0.397208  -0.037326   0.004137  -0.000364
    21  H    0.004048  -0.000080  -0.035829   0.400125  -0.035823   0.004213
    22  H   -0.004247   0.003511  -0.045713   0.395977  -0.045623  -0.001221
    23  H    0.000432   0.000033  -0.002004  -0.040081   0.396680  -0.036583
    24  H   -0.000142  -0.000099   0.004400  -0.038496   0.400289  -0.037879
    25  H    0.004996  -0.000005  -0.000371   0.004098  -0.033896   0.395389
    26  H   -0.004457   0.001588   0.001052  -0.002410  -0.042352   0.394661
    27  H   -0.000403   0.000009  -0.000060   0.000005   0.000005  -0.000019
              13         14         15         16         17         18
     1  O   -0.000019  -0.000002   0.000187   0.003336   0.000131   0.000000
     2  N   -0.000023  -0.000060   0.001651  -0.026569  -0.004357  -0.000035
     3  O   -0.000003   0.000000  -0.000013   0.001972   0.012332   0.000007
     4  C   -0.010371   0.002935  -0.061647   0.317851  -0.026314   0.001049
     5  C    0.000442   0.004508  -0.003608  -0.041287   0.376385  -0.024530
     6  N   -0.044942  -0.005547   0.001786  -0.001071  -0.033711   0.328563
     7  C    0.331002  -0.040295  -0.058191  -0.002371   0.001388  -0.028622
     8  H   -0.040006  -0.000958   0.004009   0.000028  -0.000020  -0.002831
     9  C   -0.051164   0.003862  -0.012754  -0.000886  -0.000068   0.000828
    10  C   -0.001598  -0.000391   0.001428  -0.000027   0.000001  -0.000118
    11  C   -0.047881   0.003961  -0.007737   0.000002   0.000000   0.000011
    12  C    0.368346  -0.040754  -0.074270   0.002479   0.000001  -0.000138
    13  C    5.022725   0.402733   0.240629  -0.069729  -0.000033   0.003710
    14  H    0.402733   0.518729  -0.035796  -0.004757   0.000059   0.000003
    15  N    0.240629  -0.035796   6.938236   0.587745  -0.000058  -0.000121
    16  C   -0.069729  -0.004757   0.587745   4.699170   0.001687  -0.000210
    17  H   -0.000033   0.000059  -0.000058   0.001687   0.385267  -0.001892
    18  H    0.003710   0.000003  -0.000121  -0.000210  -0.001892   0.324778
    19  H   -0.006188   0.000065   0.006906   0.002555   0.000012  -0.000127
    20  H    0.003872  -0.000049   0.000079  -0.000031  -0.000002   0.002780
    21  H   -0.000382   0.000009  -0.000031   0.000002  -0.000000  -0.000000
    22  H    0.000319  -0.000044   0.000002  -0.000001   0.000000   0.000002
    23  H   -0.005879   0.000008   0.006805   0.000061   0.000000   0.000000
    24  H    0.004145  -0.000058   0.000044   0.000005   0.000000  -0.000000
    25  H   -0.034402  -0.002667   0.000797  -0.000060  -0.000000   0.000002
    26  H   -0.044870  -0.000899   0.004191  -0.000054   0.000000  -0.000001
    27  H    0.004885  -0.000174  -0.039797   0.402580  -0.000060   0.000002
              19         20         21         22         23         24
     1  O    0.000000   0.000000  -0.000000  -0.000000   0.000000   0.000000
     2  N   -0.000000  -0.000000  -0.000000   0.000000  -0.000000   0.000000
     3  O    0.000000   0.000000   0.000000  -0.000000   0.000000   0.000000
     4  C   -0.000817  -0.000026   0.000000  -0.000000   0.000025   0.000000
     5  C    0.000760   0.000033   0.000001  -0.000002  -0.000000  -0.000000
     6  N    0.000549  -0.001570  -0.000059  -0.000097  -0.000024   0.000004
     7  C   -0.035087  -0.041773   0.004048  -0.004247   0.000432  -0.000142
     8  H    0.004078  -0.001848  -0.000080   0.003511   0.000033  -0.000099
     9  C    0.386177   0.397208  -0.035829  -0.045713  -0.002004   0.004400
    10  C   -0.032573  -0.037326   0.400125   0.395977  -0.040081  -0.038496
    11  C   -0.002250   0.004137  -0.035823  -0.045623   0.396680   0.400289
    12  C    0.000619  -0.000364   0.004213  -0.001221  -0.036583  -0.037879
    13  C   -0.006188   0.003872  -0.000382   0.000319  -0.005879   0.004145
    14  H    0.000065  -0.000049   0.000009  -0.000044   0.000008  -0.000058
    15  N    0.006906   0.000079  -0.000031   0.000002   0.006805   0.000044
    16  C    0.002555  -0.000031   0.000002  -0.000001   0.000061   0.000005
    17  H    0.000012  -0.000002  -0.000000   0.000000   0.000000   0.000000
    18  H   -0.000127   0.002780  -0.000000   0.000002   0.000000  -0.000000
    19  H    0.506587  -0.024012  -0.002593   0.003756   0.001640  -0.000070
    20  H   -0.024012   0.550042  -0.002623  -0.002964  -0.000049  -0.000090
    21  H   -0.002593  -0.002623   0.525969  -0.024689  -0.002810  -0.002063
    22  H    0.003756  -0.002964  -0.024689   0.568922   0.004060  -0.003597
    23  H    0.001640  -0.000049  -0.002810   0.004060   0.509411  -0.024988
    24  H   -0.000070  -0.000090  -0.002063  -0.003597  -0.024988   0.541092
    25  H   -0.000027   0.000011  -0.000086  -0.000082  -0.002089  -0.002383
    26  H    0.000022  -0.000035  -0.000074   0.002465   0.003821  -0.002765
    27  H    0.000077   0.000000  -0.000000   0.000000  -0.000022  -0.000000
              25         26         27
     1  O    0.000000   0.000000   0.005425
     2  N   -0.000000  -0.000000  -0.000289
     3  O    0.000000   0.000000   0.000007
     4  C    0.000019   0.000006  -0.066406
     5  C   -0.000000  -0.000000   0.002065
     6  N   -0.000071  -0.000067   0.000042
     7  C    0.004996  -0.004457  -0.000403
     8  H   -0.000005   0.001588   0.000009
     9  C   -0.000371   0.001052  -0.000060
    10  C    0.004098  -0.002410   0.000005
    11  C   -0.033896  -0.042352   0.000005
    12  C    0.395389   0.394661  -0.000019
    13  C   -0.034402  -0.044870   0.004885
    14  H   -0.002667  -0.000899  -0.000174
    15  N    0.000797   0.004191  -0.039797
    16  C   -0.000060  -0.000054   0.402580
    17  H   -0.000000   0.000000  -0.000060
    18  H    0.000002  -0.000001   0.000002
    19  H   -0.000027   0.000022   0.000077
    20  H    0.000011  -0.000035   0.000000
    21  H   -0.000086  -0.000074  -0.000000
    22  H   -0.000082   0.002465   0.000000
    23  H   -0.002089   0.003821  -0.000022
    24  H   -0.002383  -0.002765  -0.000000
    25  H    0.510167  -0.023098  -0.000010
    26  H   -0.023098   0.561316   0.000001
    27  H   -0.000010   0.000001   0.451771
 Mulliken charges:
               1
     1  O   -0.457029
     2  N    0.505524
     3  O   -0.486317
     4  C   -0.027520
     5  C    0.199794
     6  N   -0.789682
     7  C    0.055472
     8  H    0.179009
     9  C   -0.310488
    10  C   -0.321240
    11  C   -0.315658
    12  C   -0.312249
    13  C   -0.025319
    14  H    0.195577
    15  N   -0.500473
    16  C    0.127578
    17  H    0.289249
    18  H    0.396887
    19  H    0.189942
    20  H    0.154602
    21  H    0.172774
    22  H    0.149266
    23  H    0.191554
    24  H    0.162649
    25  H    0.183770
    26  H    0.151959
    27  H    0.240368
 Sum of Mulliken charges =  -0.00000
 Mulliken charges with hydrogens summed into heavy atoms:
               1
     1  O   -0.457029
     2  N    0.505524
     3  O   -0.486317
     4  C   -0.027520
     5  C    0.489043
     6  N   -0.392795
     7  C    0.234480
     9  C    0.034056
    10  C    0.000800
    11  C    0.038545
    12  C    0.023481
    13  C    0.170259
    15  N   -0.500473
    16  C    0.367946
 Electronic spatial extent (au):  <R**2>=           3126.4853
 Charge=             -0.0000 electrons
 Dipole moment (field-independent basis, Debye):
    X=              5.3924    Y=              4.5617    Z=              0.4575  Tot=              7.0779
 Quadrupole moment (field-independent basis, Debye-Ang):
   XX=           -105.5332   YY=            -80.0868   ZZ=            -82.3494
   XY=             -1.8803   XZ=              1.1368   YZ=              0.0197
 Traceless Quadrupole moment (field-independent basis, Debye-Ang):
   XX=            -16.2101   YY=              9.2364   ZZ=              6.9737
   XY=             -1.8803   XZ=              1.1368   YZ=              0.0197
 Octapole moment (field-independent basis, Debye-Ang**2):
  XXX=            101.8279  YYY=             37.3078  ZZZ=             -5.7342  XYY=             -1.5825
  XXY=             11.9183  XXZ=             -1.0189  XZZ=             -8.0048  YZZ=             -2.8910
  YYZ=              0.7936  XYZ=             -0.9467
 Hexadecapole moment (field-independent basis, Debye-Ang**3):
 XXXX=          -3562.0283 YYYY=           -619.5049 ZZZZ=           -298.6611 XXXY=            -41.1209
 XXXZ=             27.1243 YYYX=            -20.7051 YYYZ=             12.5438 ZZZX=             20.9298
 ZZZY=              8.7791 XXYY=           -656.6368 XXZZ=           -544.0051 YYZZ=           -164.7991
 XXYZ=              1.5626 YYXZ=             10.9620 ZZXY=              2.8620
 N-N= 9.173931849002D+02 E-N=-3.380798247343D+03  KE= 6.588537988246D+02
 Calling FoFJK, ICntrl=  10002127 FMM=F ISym2X=0 I1Cent= 0 IOpClX= 0 NMat=1 NMatS=1 NMatT=0.
 -------------------------------------------------------------------
 Center     Atomic                   Forces (Hartrees/Bohr)
 Number     Number              X              Y              Z
 -------------------------------------------------------------------
      1        8           0.002393267   -0.019154337   -0.003098745
      2        7           0.039631860    0.013905079   -0.002349019
      3        8          -0.005241961    0.015998041    0.003409783
      4        6          -0.003568194    0.008248048    0.007913834
      5        6           0.003769843   -0.016013177   -0.004675778
      6        7           0.014126048   -0.009252114   -0.007767717
      7        6          -0.004691573    0.004964924    0.003471217
      8        1          -0.010342724   -0.001676079   -0.007650287
      9        6          -0.004027116    0.000398557   -0.002233333
     10        6           0.002813336   -0.000939890    0.001016970
     11        6          -0.000994976   -0.004622760   -0.002393224
     12        6           0.000772320   -0.008768655   -0.002946224
     13        6           0.008677257   -0.002220305    0.004679360
     14        1           0.000989509    0.004434633   -0.009859855
     15        7           0.000450570    0.000497844    0.001650768
     16        6          -0.020774185    0.007684235    0.004333883
     17        1           0.007485156   -0.006809814   -0.003208703
     18        1          -0.017749213   -0.001875846    0.004809041
     19        1           0.003116999    0.005844404    0.007710537
     20        1          -0.003226441   -0.007383429    0.002601421
     21        1          -0.004340653    0.002396152    0.009632342
     22        1          -0.004015453   -0.003952447   -0.007391251
     23        1           0.003996367    0.006119902    0.009313526
     24        1          -0.009382730    0.002625124   -0.002096450
     25        1          -0.000804155    0.010608886   -0.002396087
     26        1          -0.004768276   -0.004783768   -0.004349525
     27        1           0.005705116    0.003726791    0.001873516
 -------------------------------------------------------------------
 Cartesian Forces:  Max     0.039631860 RMS     0.008343887

 GradGradGradGradGradGradGradGradGradGradGradGradGradGradGradGradGradGrad
 Berny optimization.
 FormGI is forming the generalized inverse of G from B-inverse, IUseBI=4.
 Internal  Forces:  Max     0.038157752 RMS     0.006922932
 Search for a local minimum.
 Step number   1 out of a maximum of   20
 All quantities printed in internal units (Hartrees-Bohrs-Radians)
 Mixed Optimization -- RFO/linear search
 Second derivative matrix not updated -- first step.
 ITU=  0
     Eigenvalues ---    0.00230   0.00771   0.01141   0.01182   0.01233
     Eigenvalues ---    0.01505   0.01543   0.01598   0.01979   0.02019
     Eigenvalues ---    0.02688   0.03661   0.04506   0.04693   0.04836
     Eigenvalues ---    0.05071   0.05138   0.05303   0.05882   0.06257
     Eigenvalues ---    0.07212   0.07699   0.07720   0.07858   0.07993
     Eigenvalues ---    0.08049   0.08052   0.10456   0.11732   0.12265
     Eigenvalues ---    0.13360   0.15194   0.15548   0.15993   0.16000
     Eigenvalues ---    0.19978   0.22006   0.23058   0.24956   0.25000
     Eigenvalues ---    0.25000   0.25370   0.26205   0.26648   0.27979
     Eigenvalues ---    0.28083   0.28463   0.29606   0.31462   0.31700
     Eigenvalues ---    0.32046   0.32237   0.32290   0.32380   0.32388
     Eigenvalues ---    0.32405   0.32517   0.32525   0.32583   0.33329
     Eigenvalues ---    0.33392   0.33599   0.35265   0.43884   0.44220
     Eigenvalues ---    0.49226   0.67028   0.90422   0.911601000.00000
     Eigenvalues --- 1000.000001000.000001000.000001000.000001000.00000
     Eigenvalues --- 1000.000001000.000001000.000001000.000001000.00000
     Eigenvalues --- 1000.000001000.000001000.000001000.000001000.00000
     Eigenvalues --- 1000.000001000.000001000.000001000.000001000.00000
     Eigenvalues --- 1000.000001000.000001000.000001000.000001000.00000
     Eigenvalues --- 1000.000001000.000001000.000001000.000001000.00000
     Eigenvalues --- 1000.000001000.000001000.000001000.000001000.00000
     Eigenvalues --- 1000.000001000.000001000.000001000.000001000.00000
     Eigenvalues --- 1000.000001000.000001000.000001000.000001000.00000
     Eigenvalues --- 1000.000001000.000001000.000001000.000001000.00000
     Eigenvalues --- 1000.000001000.000001000.000001000.000001000.00000
     Eigenvalues --- 1000.000001000.000001000.000001000.000001000.00000
     Eigenvalues --- 1000.000001000.000001000.000001000.000001000.00000
     Eigenvalues --- 1000.000001000.000001000.000001000.000001000.00000
     Eigenvalues --- 1000.000001000.000001000.000001000.000001000.00000
     Eigenvalues --- 1000.000001000.000001000.000001000.000001000.00000
     Eigenvalues --- 1000.000001000.000001000.000001000.000001000.00000
     Eigenvalues --- 1000.000001000.000001000.000001000.000001000.00000
     Eigenvalues --- 1000.00000
 RFO step:  Lambda=-2.37417312D-02 EMin= 2.30165681D-03
 Linear search not attempted -- first point.
 Iteration  1 RMS(Cart)=  0.05667504 RMS(Int)=  0.00107807
 Iteration  2 RMS(Cart)=  0.00120801 RMS(Int)=  0.00024848
 Iteration  3 RMS(Cart)=  0.00000072 RMS(Int)=  0.00024848
 Iteration  1 RMS(Cart)=  0.00003289 RMS(Int)=  0.00003574
 Iteration  2 RMS(Cart)=  0.00002010 RMS(Int)=  0.00003950
 Iteration  3 RMS(Cart)=  0.00001299 RMS(Int)=  0.00004511
 Iteration  4 RMS(Cart)=  0.00000879 RMS(Int)=  0.00004970
 Iteration  5 RMS(Cart)=  0.00000620 RMS(Int)=  0.00005304
 Iteration  6 RMS(Cart)=  0.00000455 RMS(Int)=  0.00005542
 Iteration  7 RMS(Cart)=  0.00000347 RMS(Int)=  0.00005711
 Iteration  8 RMS(Cart)=  0.00000273 RMS(Int)=  0.00005832
 Iteration  9 RMS(Cart)=  0.00000220 RMS(Int)=  0.00005919
 Iteration 10 RMS(Cart)=  0.00000180 RMS(Int)=  0.00005984
 Iteration 11 RMS(Cart)=  0.00000149 RMS(Int)=  0.00006033
 Iteration 12 RMS(Cart)=  0.00000124 RMS(Int)=  0.00006071
 Iteration 13 RMS(Cart)=  0.00000104 RMS(Int)=  0.00006100
 Iteration 14 RMS(Cart)=  0.00000088 RMS(Int)=  0.00006124
 Variable       Old X    -DE/DX   Delta X   Delta X   Delta X     New X
                                 (Linear)    (Quad)   (Total)
    R1        2.32403   0.01783   0.00000   0.01907   0.01907   2.34310
    R2        2.32739   0.01598   0.00000   0.01722   0.01722   2.34461
    R3        2.88756  -0.03816   0.00000  -0.11932  -0.11932   2.76824
    R4        2.64496  -0.03444   0.00000  -0.07433  -0.07408   2.57088
    R5        2.80930  -0.02197   0.00000  -0.06284  -0.06256   2.74674
    R6        2.59051  -0.02551   0.00000  -0.04932  -0.04925   2.54126
    R7        2.08368  -0.01047   0.00000  -0.02928  -0.02928   2.05440
    R8        2.82420  -0.01931   0.00000  -0.05361  -0.05375   2.77045
    R9        1.93293  -0.00656   0.00000  -0.01418  -0.01418   1.91875
   R10        2.11840  -0.01203   0.00000  -0.03554  -0.03554   2.08285
   R11        2.92750  -0.01300   0.00000  -0.04427  -0.04430   2.88320
   R12        2.90236  -0.00401   0.00000  -0.00739  -0.00739   2.89497
   R13        2.91142  -0.00457   0.00000  -0.01435  -0.01437   2.89704
   R14        2.09908  -0.00995   0.00000  -0.02851  -0.02851   2.07058
   R15        2.09893  -0.00805   0.00000  -0.02307  -0.02307   2.07586
   R16        2.90433  -0.00179   0.00000  -0.00707  -0.00711   2.89722
   R17        2.10140  -0.01058   0.00000  -0.03043  -0.03043   2.07097
   R18        2.10316  -0.00900   0.00000  -0.02596  -0.02596   2.07720
   R19        2.91765  -0.00909   0.00000  -0.02879  -0.02877   2.88889
   R20        2.10412  -0.01168   0.00000  -0.03375  -0.03375   2.07036
   R21        2.10110  -0.00994   0.00000  -0.02859  -0.02859   2.07251
   R22        2.93528  -0.01065   0.00000  -0.03645  -0.03643   2.89885
   R23        2.10153  -0.01075   0.00000  -0.03092  -0.03092   2.07061
   R24        2.09791  -0.00783   0.00000  -0.02239  -0.02239   2.07552
   R25        2.10760  -0.00924   0.00000  -0.02684  -0.02684   2.08076
   R26        2.76789  -0.00537   0.00000  -0.01143  -0.01180   2.75610
   R27        2.44239  -0.00559   0.00000  -0.00761  -0.00763   2.43475
   R28        2.08012  -0.00622   0.00000  -0.01729  -0.01729   2.06283
    A1        2.15814   0.01104   0.00000   0.04037   0.04030   2.19845
    A2        2.05373  -0.00757   0.00000  -0.02763  -0.02770   2.02603
    A3        2.07129  -0.00346   0.00000  -0.01261  -0.01268   2.05861
    A4        2.03264  -0.00783   0.00000  -0.02646  -0.02683   2.00581
    A5        2.03351  -0.00275   0.00000  -0.00776  -0.00814   2.02538
    A6        2.21530   0.01050   0.00000   0.03246   0.03277   2.24808
    A7        2.20157   0.00619   0.00000   0.01937   0.01979   2.22136
    A8        2.06369  -0.00317   0.00000  -0.01012  -0.01031   2.05338
    A9        2.01739  -0.00301   0.00000  -0.00932  -0.00955   2.00784
   A10        2.25546  -0.00563   0.00000  -0.01919  -0.01929   2.23617
   A11        2.11307  -0.01264   0.00000  -0.07223  -0.07272   2.04035
   A12        1.87217   0.01851   0.00000   0.10071   0.10088   1.97305
   A13        1.83830  -0.00179   0.00000  -0.01825  -0.01806   1.82024
   A14        2.00674  -0.00109   0.00000  -0.01338  -0.01344   1.99330
   A15        1.96722   0.00117   0.00000   0.00153   0.00111   1.96832
   A16        1.85210   0.00274   0.00000   0.02448   0.02434   1.87644
   A17        1.84924   0.00090   0.00000   0.01919   0.01892   1.86816
   A18        1.93632  -0.00161   0.00000  -0.00915  -0.00882   1.92750
   A19        1.91005   0.00009   0.00000  -0.00517  -0.00531   1.90474
   A20        1.92263  -0.00072   0.00000  -0.01310  -0.01307   1.90955
   A21        1.92275  -0.00165   0.00000  -0.00680  -0.00679   1.91596
   A22        1.91931  -0.00040   0.00000   0.00562   0.00558   1.92489
   A23        1.90461   0.00308   0.00000   0.02473   0.02473   1.92934
   A24        1.88431  -0.00039   0.00000  -0.00484  -0.00510   1.87921
   A25        1.94045  -0.00081   0.00000   0.00584   0.00576   1.94620
   A26        1.91894  -0.00075   0.00000  -0.00711  -0.00713   1.91181
   A27        1.90499   0.00030   0.00000  -0.00300  -0.00308   1.90192
   A28        1.91612   0.00077   0.00000   0.00711   0.00715   1.92327
   A29        1.89850   0.00172   0.00000   0.01121   0.01122   1.90972
   A30        1.88380  -0.00121   0.00000  -0.01453  -0.01461   1.86919
   A31        1.94465   0.00074   0.00000   0.00533   0.00542   1.95007
   A32        1.90240   0.00055   0.00000   0.00581   0.00579   1.90819
   A33        1.91744   0.00039   0.00000   0.00521   0.00518   1.92262
   A34        1.90666  -0.00117   0.00000  -0.01439  -0.01443   1.89223
   A35        1.91535  -0.00050   0.00000   0.00021   0.00013   1.91548
   A36        1.87598  -0.00004   0.00000  -0.00255  -0.00259   1.87339
   A37        1.94742  -0.00307   0.00000  -0.01809  -0.01810   1.92932
   A38        1.90600   0.00253   0.00000   0.01680   0.01667   1.92267
   A39        1.91086   0.00145   0.00000   0.01325   0.01320   1.92406
   A40        1.90618   0.00026   0.00000  -0.00299  -0.00286   1.90332
   A41        1.91153  -0.00021   0.00000  -0.00467  -0.00460   1.90693
   A42        1.88062  -0.00088   0.00000  -0.00381  -0.00399   1.87663
   A43        1.84657   0.00467   0.00000   0.02323   0.02324   1.86981
   A44        1.93799  -0.00433   0.00000  -0.03042  -0.03084   1.90715
   A45        1.98392   0.00061   0.00000   0.01050   0.01080   1.99472
   A46        1.88118   0.00218   0.00000   0.02977   0.03008   1.91126
   A47        1.89196  -0.00395   0.00000  -0.02847  -0.02853   1.86343
   A48        1.91765   0.00103   0.00000  -0.00235  -0.00227   1.91539
   A49        2.08538  -0.00639   0.00000  -0.01422  -0.01468   2.07070
   A50        2.25237  -0.00485   0.00000  -0.01961  -0.01972   2.23265
   A51        1.97881   0.00531   0.00000   0.02554   0.02489   2.00370
   A52        2.05200  -0.00045   0.00000  -0.00578  -0.00642   2.04558
    D1       -3.05616  -0.00072   0.00000  -0.02863  -0.02789  -3.08405
    D2        0.14415   0.00037   0.00000   0.00000  -0.00000   0.14415
    D3        0.09222  -0.00146   0.00000  -0.04919  -0.04882   0.04340
    D4       -2.99066  -0.00036   0.00000  -0.02056  -0.02093  -3.01159
    D5        3.04228   0.00129   0.00000   0.03140   0.03153   3.07382
    D6       -0.06235   0.00088   0.00000   0.03392   0.03415  -0.02820
    D7       -0.16504  -0.00054   0.00000  -0.00252  -0.00262  -0.16766
    D8        3.01351  -0.00095   0.00000   0.00000   0.00000   3.01351
    D9       -2.71284  -0.00244   0.00000  -0.05449  -0.05489  -2.76774
   D10        0.42551   0.00020   0.00000   0.00430   0.00415   0.42966
   D11        0.49451  -0.00044   0.00000  -0.01994  -0.01983   0.47468
   D12       -2.65032   0.00220   0.00000   0.03885   0.03921  -2.61111
   D13       -0.05836  -0.00087   0.00000   0.00568   0.00608  -0.05229
   D14        2.73294   0.00337   0.00000   0.06052   0.05941   2.79234
   D15        3.04713  -0.00048   0.00000   0.00319   0.00348   3.05061
   D16       -0.44475   0.00376   0.00000   0.05803   0.05681  -0.38794
   D17       -2.52182  -0.00053   0.00000  -0.01217  -0.01180  -2.53361
   D18        1.72915  -0.00214   0.00000  -0.02304  -0.02273   1.70642
   D19       -0.51352   0.00007   0.00000   0.00071   0.00063  -0.51289
   D20        0.93267   0.00004   0.00000  -0.03652  -0.03716   0.89551
   D21       -1.09954  -0.00156   0.00000  -0.04739  -0.04810  -1.14764
   D22        2.94097   0.00064   0.00000  -0.02364  -0.02474   2.91623
   D23        2.94452   0.00226   0.00000   0.02601   0.02586   2.97038
   D24       -1.22649   0.00138   0.00000   0.02138   0.02126  -1.20523
   D25        0.85044  -0.00057   0.00000   0.00300   0.00295   0.85338
   D26        0.92020   0.00326   0.00000   0.03970   0.03968   0.95988
   D27        3.03237   0.00237   0.00000   0.03507   0.03508   3.06745
   D28       -1.17389   0.00042   0.00000   0.01669   0.01676  -1.15713
   D29       -1.08067   0.00148   0.00000   0.00805   0.00806  -1.07261
   D30        1.03151   0.00059   0.00000   0.00342   0.00346   1.03497
   D31        3.10843  -0.00136   0.00000  -0.01497  -0.01485   3.09358
   D32       -2.89978  -0.00090   0.00000  -0.01383  -0.01361  -2.91339
   D33       -0.86342   0.00215   0.00000   0.01929   0.01914  -0.84428
   D34        1.30938   0.00055   0.00000   0.00000  -0.00001   1.30937
   D35       -0.89809  -0.00192   0.00000  -0.02353  -0.02346  -0.92155
   D36        1.13828   0.00113   0.00000   0.00958   0.00928   1.14756
   D37       -2.97211  -0.00047   0.00000  -0.00971  -0.00986  -2.98198
   D38        1.10456   0.00101   0.00000   0.01142   0.01151   1.11607
   D39        3.14093   0.00407   0.00000   0.04454   0.04425  -3.09800
   D40       -0.96946   0.00246   0.00000   0.02525   0.02510  -0.94436
   D41        0.95665   0.00070   0.00000   0.00000   0.00000   0.95665
   D42        3.08229   0.00061   0.00000   0.00804   0.00800   3.09028
   D43       -1.13767  -0.00112   0.00000  -0.01561  -0.01558  -1.15325
   D44       -1.15754   0.00178   0.00000   0.01595   0.01602  -1.14152
   D45        0.96810   0.00169   0.00000   0.02399   0.02402   0.99211
   D46        3.03133  -0.00005   0.00000   0.00034   0.00044   3.03176
   D47        3.06182   0.00064   0.00000   0.00372   0.00368   3.06549
   D48       -1.09573   0.00055   0.00000   0.01176   0.01168  -1.08405
   D49        0.96750  -0.00119   0.00000  -0.01188  -0.01190   0.95560
   D50       -0.92191  -0.00081   0.00000   0.00000   0.00000  -0.92191
   D51        1.18349  -0.00144   0.00000  -0.01073  -0.01074   1.17275
   D52       -3.04836  -0.00094   0.00000  -0.00740  -0.00743  -3.05579
   D53       -3.04920   0.00015   0.00000   0.00025   0.00026  -3.04894
   D54       -0.94379  -0.00047   0.00000  -0.01048  -0.01048  -0.95427
   D55        1.10754   0.00002   0.00000  -0.00715  -0.00717   1.10037
   D56        1.17625   0.00017   0.00000   0.00714   0.00717   1.18342
   D57       -3.00152  -0.00046   0.00000  -0.00359  -0.00357  -3.00510
   D58       -0.95019   0.00004   0.00000  -0.00026  -0.00026  -0.95045
   D59        0.98812  -0.00091   0.00000  -0.01186  -0.01188   0.97624
   D60        3.09709  -0.00087   0.00000  -0.01599  -0.01612   3.08097
   D61       -1.13085   0.00038   0.00000  -0.00312  -0.00307  -1.13392
   D62       -1.11479  -0.00130   0.00000  -0.01300  -0.01298  -1.12777
   D63        0.99418  -0.00126   0.00000  -0.01713  -0.01722   0.97696
   D64        3.04943  -0.00000   0.00000  -0.00425  -0.00417   3.04526
   D65        3.11578  -0.00027   0.00000  -0.00158  -0.00157   3.11421
   D66       -1.05844  -0.00022   0.00000  -0.00571  -0.00581  -1.06425
   D67        0.99681   0.00103   0.00000   0.00717   0.00724   1.00405
   D68       -1.05344   0.00009   0.00000   0.00005   0.00012  -1.05332
   D69       -3.12784   0.00160   0.00000   0.00841   0.00807  -3.11977
   D70        1.08052   0.00133   0.00000   0.01029   0.01027   1.09079
   D71        3.12088  -0.00128   0.00000  -0.00738  -0.00725   3.11363
   D72        1.04647   0.00023   0.00000   0.00099   0.00070   1.04718
   D73       -1.02834  -0.00004   0.00000   0.00286   0.00290  -1.02544
   D74        1.06514  -0.00025   0.00000   0.00169   0.00186   1.06699
   D75       -1.00926   0.00126   0.00000   0.01006   0.00981  -0.99945
   D76       -3.08408   0.00099   0.00000   0.01193   0.01201  -3.07207
   D77       -1.17216   0.00412   0.00000   0.00000  -0.00001  -1.17217
   D78        3.06318   0.00057   0.00000  -0.01632  -0.01622   3.04695
   D79        1.01154  -0.00034   0.00000  -0.03427  -0.03452   0.97702
   D80        0.14503   0.00158   0.00000   0.02238   0.02200   0.16703
   D81       -2.99321  -0.00117   0.00000  -0.03855  -0.03831  -3.03152
         Item               Value     Threshold  Converged?
 Maximum Force            0.038158     0.000450     NO 
 RMS     Force            0.007013     0.000300     NO 
 Maximum Displacement     0.296060     0.001800     NO 
 RMS     Displacement     0.056760     0.001200     NO 
 Predicted change in Energy=-1.318353D-02
 GradGradGradGradGradGradGradGradGradGradGradGradGradGradGradGradGradGrad

                          Input orientation:                          
 ---------------------------------------------------------------------
 Center     Atomic      Atomic             Coordinates (Angstroms)
 Number     Number       Type             X           Y           Z
 ---------------------------------------------------------------------
      1          8           0       -3.484328   -1.418043   -0.238439
      2          7           0       -3.127787   -0.245206   -0.052111
      3          8           0       -3.879812    0.725188    0.127238
      4          6           0       -1.682503   -0.007681   -0.026815
      5          6           0       -1.316763    1.273371    0.248796
      6          7           0       -0.068338    1.748396    0.404372
      7          6           0        1.193734    1.002934    0.376288
      8          1           0        1.829906    1.517024    1.115097
      9          6           0        1.918470    1.050096   -0.965489
     10          6           0        3.320579    0.452498   -0.800543
     11          6           0        3.263341   -0.960183   -0.207598
     12          6           0        2.448751   -0.998712    1.085453
     13          6           0        1.037493   -0.445778    0.849248
     14          1           0        0.473766   -0.460523    1.794977
     15          7           0        0.396921   -1.327503   -0.119949
     16          6           0       -0.844088   -1.132743   -0.406275
     17          1           0       -2.108631    2.003387    0.396787
     18          1           0        0.059023    2.749870    0.295810
     19          1           0        1.347807    0.480944   -1.707764
     20          1           0        1.981105    2.088683   -1.317784
     21          1           0        3.828076    0.434903   -1.771704
     22          1           0        3.910665    1.102748   -0.139307
     23          1           0        2.797098   -1.638412   -0.930743
     24          1           0        4.277588   -1.331804   -0.017843
     25          1           0        2.372678   -2.028021    1.453336
     26          1           0        2.944784   -0.404779    1.864871
     27          1           0       -1.328544   -1.867638   -1.051897
 ---------------------------------------------------------------------
                    Distance matrix (angstroms):
                    1          2          3          4          5
     1  O    0.000000
     2  N    1.239913   0.000000
     3  O    2.209878   1.240714   0.000000
     4  C    2.297930   1.464891   2.321421   0.000000
     5  C    3.489906   2.382526   2.623833   1.360449   0.000000
     6  N    4.701971   3.680089   3.956146   2.423893   1.344774
     7  C    5.303139   4.518509   5.087242   3.075154   2.528238
     8  H    6.219948   5.389485   5.848396   3.995710   3.272823
     9  C    5.984191   5.289308   5.909288   3.868722   3.462813
    10  C    7.079665   6.529041   7.265038   5.083429   4.824924
    11  C    6.763255   6.432875   7.346919   5.039971   5.116093
    12  C    6.093435   5.741045   6.628779   4.391644   4.476768
    13  C    4.751339   4.266408   5.106108   2.890984   2.976330
    14  H    4.551718   4.053305   4.810499   2.858931   2.933097
    15  N    3.884113   3.687755   4.750272   2.464672   3.136437
    16  C    2.660909   2.475568   3.598911   1.453511   2.538095
    17  H    3.741956   2.509255   2.200803   2.098909   1.087142
    18  H    5.496568   4.387174   4.431950   3.277360   2.018675
    19  H    5.395794   4.826948   5.545709   3.499589   3.399413
    20  H    6.582786   5.757582   6.188502   4.413997   3.740969
    21  H    7.697764   7.197471   7.943663   5.797155   5.590602
    22  H    7.813458   7.166895   7.804173   5.703440   5.244592
    23  H    6.323303   6.149576   7.161498   4.852133   5.176258
    24  H    7.765529   7.484748   8.414002   6.105413   6.176957
    25  H    6.126884   5.974942   6.959334   4.766248   5.095301
    26  H    6.839891   6.369962   7.132412   5.014773   4.856817
    27  H    2.347607   2.620903   3.823882   2.153026   3.399689
                    6          7          8          9         10
     6  N    0.000000
     7  C    1.466058   0.000000
     8  H    2.040096   1.102198   0.000000
     9  C    2.512280   1.525724   2.134175   0.000000
    10  C    3.823079   2.492265   2.650472   1.533050   0.000000
    11  C    4.337164   2.911705   3.152905   2.534620   1.533143
    12  C    3.787639   2.466692   2.590902   2.947063   2.534379
    13  C    2.497034   1.531950   2.133351   2.511381   2.956552
    14  H    2.665892   2.161651   2.492396   3.462558   3.959126
    15  N    3.154764   2.512389   3.416155   2.946698   3.489898
    16  C    3.091909   3.053889   4.060305   3.565001   4.473577
    17  H    2.056179   3.450643   4.032938   4.356845   5.771930
    18  H    1.015360   2.084665   2.308065   2.817383   4.137349
    19  H    2.841306   2.153947   3.045394   1.095702   2.171564
    20  H    2.698488   2.160714   2.503711   1.098498   2.176885
    21  H    4.652163   3.446200   3.673866   2.162185   1.095909
    22  H    4.067544   2.767222   2.464693   2.157357   1.099208
    23  H    4.632896   3.354969   3.883001   2.828652   2.159373
    24  H    5.343498   3.887995   3.923076   3.483808   2.170765
    25  H    4.617382   3.425878   3.602271   3.941045   3.483026
    26  H    3.980971   2.695128   2.344875   3.343788   2.824992
    27  H    4.096895   4.079434   5.111517   4.366204   5.201977
                   11         12         13         14         15
    11  C    0.000000
    12  C    1.528732   0.000000
    13  C    2.517128   1.534007   0.000000
    14  H    3.470114   2.166480   1.101093   0.000000
    15  N    2.891188   2.402312   1.458463   2.103450   0.000000
    16  C    4.115850   3.617458   2.364023   2.652193   1.288417
    17  H    6.164909   5.500599   4.012633   3.833349   4.199956
    18  H    4.928038   4.515108   3.387605   3.567371   4.112420
    19  H    2.827829   3.347166   2.737412   3.730885   2.587628
    20  H    3.488872   3.940336   3.465535   4.296487   3.951554
    21  H    2.170627   3.481543   3.928403   4.977388   4.196093
    22  H    2.163186   2.837845   3.410321   4.242351   4.272340
    23  H    1.095589   2.143737   2.772536   3.770257   2.552430
    24  H    1.096726   2.161680   3.469165   4.302849   3.882012
    25  H    2.166163   1.095721   2.156649   2.485888   2.620986
    26  H    2.169119   1.098316   2.161234   2.472635   3.358949
    27  H    4.756230   4.426201   3.351742   3.651437   2.034086
                   16         17         18         19         20
    16  C    0.000000
    17  H    3.475527   0.000000
    18  H    4.047619   2.294811   0.000000
    19  H    3.016995   4.323648   3.289878   0.000000
    20  H    4.380657   4.435422   2.595237   1.771434   0.000000
    21  H    5.113808   6.512065   4.882566   2.481521   2.520384
    22  H    5.260833   6.109866   4.211589   3.068377   2.466592
    23  H    3.713355   6.252297   5.315873   2.682513   3.834956
    24  H    5.140240   7.216593   5.878327   3.837383   4.320117
    25  H    3.821945   6.119697   5.433334   4.163872   4.977921
    26  H    4.477007   5.787188   4.554270   4.012301   4.156359
    27  H    1.091603   4.206193   5.006300   3.620615   5.164974
                   21         22         23         24         25
    21  H    0.000000
    22  H    1.765661   0.000000
    23  H    2.463487   3.062737   0.000000
    24  H    2.529692   2.465041   1.766138   0.000000
    25  H    4.311040   3.834531   2.452705   2.505548   0.000000
    26  H    3.835355   2.687432   3.059267   2.486032   1.769628
    27  H    5.693027   6.091414   4.133781   5.725828   4.472244
                   26         27
    26  H    0.000000
    27  H    5.376693   0.000000
 Symmetry turned off by external request.
 Stoichiometry    C9H13N3O2
 Framework group  C1[X(C9H13N3O2)]
 Deg. of freedom    75
 Full point group                 C1      NOp   1
 Rotational constants (GHZ):           1.6855961           0.4217297           0.3723322
 Standard basis: 6-31G(d) (6D, 7F)
   236 basis functions,   444 primitive gaussians,   236 cartesian basis functions
    52 alpha electrons       52 beta electrons
       nuclear repulsion energy       932.1510613724 Hartrees.
 NAtoms=   27 NActive=   27 NUniq=   27 SFac= 1.00D+00 NAtFMM=   60 NAOKFM=F Big=F
 Integral buffers will be    131072 words long.
 Raffenetti 1 integral format.
 Two-electron integral symmetry is turned off.
 One-electron integrals computed using PRISM.
 NBasis=   236 RedAO= T EigKep=  1.01D-03  NBF=   236
 NBsUse=   236 1.00D-06 EigRej= -1.00D+00 NBFU=   236
 Initial guess from the checkpoint file:  "/home/alexey/tmp/Gau-1580378.chk"
 B after Tr=     0.055889    0.006979   -0.004408
         Rot=    0.999997   -0.000882    0.001493    0.001416 Ang=  -0.26 deg.
 ExpMin= 1.61D-01 ExpMax= 5.48D+03 ExpMxC= 8.25D+02 IAcc=3 IRadAn=         5 AccDes= 0.00D+00
 Harris functional with IExCor=  205 and IRadAn=       5 diagonalized for initial guess.
 HarFok:  IExCor=  205 AccDes= 0.00D+00 IRadAn=         5 IDoV= 1 UseB2=F ITyADJ=14
 ICtDFT=  3500011 ScaDFX=  1.000000  1.000000  1.000000  1.000000
 FoFCou: FMM=F IPFlag=           0 FMFlag=      100000 FMFlg1=           0
         NFxFlg=           0 DoJE=T BraDBF=F KetDBF=T FulRan=T
         wScrn=  0.000000 ICntrl=       500 IOpCl=  0 I1Cent=   200000004 NGrid=           0
         NMat0=    1 NMatS0=      1 NMatT0=    0 NMatD0=    1 NMtDS0=    0 NMtDT0=    0
 Symmetry not used in FoFCou.
 Keep R1 ints in memory in canonical form, NReq=397720213.
 Requested convergence on RMS density matrix=1.00D-08 within 128 cycles.
 Requested convergence on MAX density matrix=1.00D-06.
 Requested convergence on             energy=1.00D-06.
 No special actions if energy rises.
 SCF Done:  E(RHF) =  -661.298873713     A.U. after   14 cycles
            NFock= 14  Conv=0.92D-08     -V/T= 2.0024
 ExpMin= 1.61D-01 ExpMax= 5.48D+03 ExpMxC= 8.25D+02 IAcc=3 IRadAn=         5 AccDes= 0.00D+00
 HarFok:  IExCor=  205 AccDes= 0.00D+00 IRadAn=         5 IDoV=-2 UseB2=F ITyADJ=14
 ICtDFT= 12500011 ScaDFX=  1.000000  1.000000  1.000000  1.000000
 Range of M.O.s used for correlation:    15   236
 NBasis=   236 NAE=    52 NBE=    52 NFC=    14 NFV=     0
 NROrb=    222 NOA=    38 NOB=    38 NVA=   184 NVB=   184
 Fully direct method using O(ONN) memory.
 JobTyp=1 Pass  1:  I=  15 to  52 NPSUse=  4 ParTrn=T ParDer=T DoDerP=T.
 Spin components of T(2) and E(2):
     alpha-alpha T2 =       0.9124773169D-01 E2=     -0.2723388215D+00
     alpha-beta  T2 =       0.4911549224D+00 E2=     -0.1487926436D+01
     beta-beta   T2 =       0.9124773169D-01 E2=     -0.2723388215D+00
 ANorm=    0.1293696404D+01
 E2 =    -0.2032604079D+01 EUMP2 =    -0.66333147779243D+03
          IDoAtm=111111111111111111111111111
          Differentiating once with respect to electric field.
                with respect to dipole field.
          Differentiating once with respect to nuclear coordinates.
 Keep R1 ints in memory in canonical form, NReq=397723379.
          There are     1 degrees of freedom in the 1st order CPHF.  IDoFFX=0 NUNeed=     1.
 LinEq1:  Iter=  0 NonCon=     1 RMS=4.57D-03 Max=1.06D-01 NDo=     1
 AX will form     1 AO Fock derivatives at one time.
 LinEq1:  Iter=  1 NonCon=     1 RMS=1.54D-03 Max=2.73D-02 NDo=     1
 LinEq1:  Iter=  2 NonCon=     1 RMS=6.42D-04 Max=1.79D-02 NDo=     1
 LinEq1:  Iter=  3 NonCon=     1 RMS=2.80D-04 Max=8.25D-03 NDo=     1
 LinEq1:  Iter=  4 NonCon=     1 RMS=8.71D-05 Max=1.94D-03 NDo=     1
 LinEq1:  Iter=  5 NonCon=     1 RMS=3.64D-05 Max=1.78D-03 NDo=     1
[...]
    27  H    4.724254   4.418541   3.356581   3.656270   2.029427
                   16         17         18         19         20
    16  C    0.000000
    17  H    3.463880   0.000000
    18  H    4.088277   2.235882   0.000000
    19  H    2.990751   4.303419   3.511803   0.000000
    20  H    4.375149   4.449321   2.881907   1.768504   0.000000
    21  H    5.096465   6.511215   5.086407   2.499094   2.520978
    22  H    5.248646   6.100603   4.313261   3.070174   2.461413
    23  H    3.694932   6.235045   5.421182   2.704287   3.842954
    24  H    5.133711   7.200882   5.936651   3.849617   4.317071
    25  H    3.821453   6.088336   5.369719   4.171628   4.985070
    26  H    4.495052   5.781211   4.485196   4.035973   4.182197
    27  H    1.089704   4.215407   5.079622   3.584256   5.148719
                   21         22         23         24         25
    21  H    0.000000
    22  H    1.758822   0.000000
    23  H    2.469445   3.062246   0.000000
    24  H    2.517333   2.459841   1.764537   0.000000
    25  H    4.312019   3.839500   2.444140   2.519692   0.000000
    26  H    3.846687   2.704361   3.060408   2.491759   1.767950
    27  H    5.653588   6.060877   4.090761   5.694910   4.454171
                   26         27
    26  H    0.000000
    27  H    5.378330   0.000000
 Symmetry turned off by external request.
 Stoichiometry    C9H13N3O2
 Framework group  C1[X(C9H13N3O2)]
 Deg. of freedom    75
 Full point group                 C1      NOp   1
 Rotational constants (GHZ):           1.6800047           0.4193775           0.3721618

 **********************************************************************

            Population analysis using the SCF Density.

 **********************************************************************

 Alpha  occ. eigenvalues --  -20.59237 -20.58905 -15.84722 -15.64136 -15.56108
 Alpha  occ. eigenvalues --  -11.35017 -11.29622 -11.29556 -11.28625 -11.27133
 Alpha  occ. eigenvalues --  -11.23727 -11.23207 -11.22690 -11.22088  -1.57119
 Alpha  occ. eigenvalues --   -1.36713  -1.30978  -1.23066  -1.14703  -1.09818
 Alpha  occ. eigenvalues --   -1.02805  -1.01307  -0.94482  -0.89685  -0.85565
 Alpha  occ. eigenvalues --   -0.82448  -0.78609  -0.77412  -0.75202  -0.72021
 Alpha  occ. eigenvalues --   -0.69773  -0.69440  -0.67820  -0.64891  -0.63779
 Alpha  occ. eigenvalues --   -0.62368  -0.60281  -0.57700  -0.57000  -0.55077
 Alpha  occ. eigenvalues --   -0.54582  -0.50761  -0.50109  -0.48656  -0.48102
 Alpha  occ. eigenvalues --   -0.47373  -0.46146  -0.46044  -0.43679  -0.41696
 Alpha  occ. eigenvalues --   -0.39845  -0.33828
 Alpha virt. eigenvalues --    0.07465   0.11800   0.17308   0.21849   0.24115
 Alpha virt. eigenvalues --    0.25668   0.27134   0.28694   0.29046   0.29635
 Alpha virt. eigenvalues --    0.30684   0.31799   0.32037   0.32768   0.33951
 Alpha virt. eigenvalues --    0.34387   0.35853   0.37314   0.38582   0.40295
 Alpha virt. eigenvalues --    0.41389   0.42444   0.45028   0.46118   0.46731
 Alpha virt. eigenvalues --    0.47078   0.49000   0.53997   0.57581   0.59408
 Alpha virt. eigenvalues --    0.63916   0.69543   0.69908   0.72862   0.74243
 Alpha virt. eigenvalues --    0.74868   0.75781   0.76679   0.78660   0.79443
 Alpha virt. eigenvalues --    0.81389   0.84693   0.85721   0.85806   0.88531
 Alpha virt. eigenvalues --    0.89424   0.91053   0.92110   0.92852   0.94528
 Alpha virt. eigenvalues --    0.95644   0.98042   0.99642   1.01677   1.02472
 Alpha virt. eigenvalues --    1.03152   1.05873   1.06969   1.07903   1.09014
 Alpha virt. eigenvalues --    1.10284   1.11427   1.11857   1.12444   1.13918
 Alpha virt. eigenvalues --    1.14766   1.14992   1.15834   1.16906   1.18728
 Alpha virt. eigenvalues --    1.19137   1.21342   1.22580   1.23916   1.24545
 Alpha virt. eigenvalues --    1.24825   1.26044   1.26912   1.27485   1.29558
 Alpha virt. eigenvalues --    1.30007   1.33131   1.36072   1.37186   1.40864
 Alpha virt. eigenvalues --    1.41860   1.46502   1.48741   1.51691   1.54291
 Alpha virt. eigenvalues --    1.56374   1.58782   1.59561   1.63467   1.65630
 Alpha virt. eigenvalues --    1.68031   1.68631   1.72992   1.75234   1.77363
 Alpha virt. eigenvalues --    1.81581   1.84600   1.87684   1.90658   1.93498
 Alpha virt. eigenvalues --    1.95813   1.96957   1.99717   2.01575   2.02520
 Alpha virt. eigenvalues --    2.05107   2.05609   2.08497   2.09566   2.12393
 Alpha virt. eigenvalues --    2.13268   2.15299   2.18822   2.20015   2.22453
 Alpha virt. eigenvalues --    2.22636   2.24493   2.25496   2.28218   2.29549
 Alpha virt. eigenvalues --    2.31999   2.33729   2.34703   2.36401   2.38475
 Alpha virt. eigenvalues --    2.40486   2.41930   2.43862   2.45137   2.47369
 Alpha virt. eigenvalues --    2.50722   2.51953   2.53117   2.55572   2.61512
 Alpha virt. eigenvalues --    2.62313   2.65197   2.67628   2.70328   2.70500
 Alpha virt. eigenvalues --    2.72274   2.72649   2.76992   2.78445   2.83804
 Alpha virt. eigenvalues --    2.88568   2.88954   2.92945   2.93140   2.96063
 Alpha virt. eigenvalues --    2.99442   3.01345   3.04317   3.05733   3.07679
 Alpha virt. eigenvalues --    3.09417   3.15050   3.21216   3.25219   3.27457
 Alpha virt. eigenvalues --    3.33454   3.37790   3.38792   3.52175   3.65810
 Alpha virt. eigenvalues --    4.13685   4.28075   4.34726   4.38926   4.46301
 Alpha virt. eigenvalues --    4.56313   4.61874   4.62355   4.73467   4.79740
 Alpha virt. eigenvalues --    4.99417   5.00900   5.05026   5.11168
          Condensed to atoms (all electrons):
               1          2          3          4          5          6
     1  O    8.316180   0.306944  -0.082521  -0.085484   0.004642  -0.000016
     2  N    0.306944   5.722288   0.301272   0.264176  -0.053648   0.000970
     3  O   -0.082521   0.301272   8.353607  -0.092667   0.003658   0.000784
     4  C   -0.085484   0.264176  -0.092667   5.225625   0.560319  -0.047270
     5  C    0.004642  -0.053648   0.003658   0.560319   4.709934   0.317423
     6  N   -0.000016   0.000970   0.000784  -0.047270   0.317423   7.195576
     7  C    0.000004  -0.000140   0.000002   0.004629  -0.030205   0.169272
     8  H   -0.000000   0.000002  -0.000000  -0.000261   0.003096  -0.050673
     9  C   -0.000000  -0.000004  -0.000000   0.000856   0.000625  -0.061659
    10  C    0.000000   0.000000   0.000000  -0.000038  -0.000052   0.003748
    11  C   -0.000000  -0.000000  -0.000000  -0.000028   0.000025  -0.000190
    12  C   -0.000000   0.000002  -0.000000  -0.000127  -0.000176   0.003873
    13  C   -0.000025  -0.000039  -0.000004  -0.011556  -0.000582  -0.047697
    14  H   -0.000004  -0.000105   0.000001   0.002646   0.006080  -0.006961
    15  N    0.000383   0.002364  -0.000016  -0.063545  -0.006395   0.001598
    16  C    0.000794  -0.027272   0.002547   0.328512  -0.050326  -0.001858
    17  H    0.000220  -0.007229   0.017383  -0.023146   0.374521  -0.034187
    18  H    0.000001  -0.000050   0.000012   0.001506  -0.031444   0.338679
    19  H    0.000001  -0.000004   0.000000  -0.001226   0.001233  -0.000353
    20  H    0.000000  -0.000000   0.000000  -0.000079   0.000153  -0.000428
    21  H   -0.000000   0.000000   0.000000   0.000001   0.000001  -0.000077
    22  H   -0.000000   0.000000  -0.000000  -0.000000  -0.000003  -0.000117
    23  H    0.000000  -0.000000   0.000000   0.000041  -0.000000  -0.000030
    24  H    0.000000   0.000000   0.000000   0.000000  -0.000000   0.000006
    25  H    0.000000  -0.000000   0.000000   0.000024   0.000000  -0.000090
    26  H    0.000000  -0.000000   0.000000   0.000006  -0.000002  -0.000060
    27  H    0.006139  -0.000888   0.000018  -0.063395   0.002216   0.000016
               7          8          9         10         11         12
     1  O    0.000004  -0.000000  -0.000000   0.000000  -0.000000  -0.000000
     2  N   -0.000140   0.000002  -0.000004   0.000000  -0.000000   0.000002
     3  O    0.000002  -0.000000  -0.000000   0.000000  -0.000000  -0.000000
     4  C    0.004629  -0.000261   0.000856  -0.000038  -0.000028  -0.000127
     5  C   -0.030205   0.003096   0.000625  -0.000052   0.000025  -0.000176
     6  N    0.169272  -0.050673  -0.061659   0.003748  -0.000190   0.003873
     7  C    5.017606   0.418401   0.350543  -0.054676  -0.009031  -0.061069
     8  H    0.418401   0.538082  -0.055041   0.000776  -0.000325  -0.002229
     9  C    0.350543  -0.055041   5.158213   0.324783  -0.050412  -0.005342
    10  C   -0.054676   0.000776   0.324783   5.119300   0.337008  -0.060991
    11  C   -0.009031  -0.000325  -0.050412   0.337008   5.119904   0.335984
    12  C   -0.061069  -0.002229  -0.005342  -0.060991   0.335984   5.118617
    13  C    0.338607  -0.037920  -0.060243  -0.000283  -0.050688   0.372004
    14  H   -0.046598  -0.000744   0.004422  -0.000405   0.004196  -0.036329
    15  N   -0.057972   0.003901  -0.014617   0.001561  -0.013060  -0.082082
    16  C   -0.001775   0.000009  -0.001271  -0.000029   0.000029   0.002609
    17  H    0.001616  -0.000045  -0.000070   0.000001   0.000000   0.000000
    18  H   -0.021217  -0.004473   0.001328  -0.000083   0.000004  -0.000114
    19  H   -0.036852   0.004362   0.390225  -0.032072  -0.002211   0.000689
    20  H   -0.042416  -0.002078   0.399487  -0.035302   0.003931  -0.000415
    21  H    0.004599  -0.000076  -0.036360   0.402435  -0.034893   0.004349
    22  H   -0.004847   0.003558  -0.046955   0.397754  -0.045403  -0.001021
    23  H    0.000578   0.000035  -0.001958  -0.039017   0.399177  -0.037862
    24  H   -0.000130  -0.000102   0.004388  -0.038438   0.402341  -0.038689
    25  H    0.005152  -0.000025  -0.000423   0.004190  -0.033396   0.398272
    26  H   -0.003906   0.001686   0.000969  -0.002232  -0.041481   0.396731
    27  H   -0.000407   0.000009  -0.000058   0.000007   0.000012  -0.000036
              13         14         15         16         17         18
     1  O   -0.000025  -0.000004   0.000383   0.000794   0.000220   0.000001
     2  N   -0.000039  -0.000105   0.002364  -0.027272  -0.007229  -0.000050
     3  O   -0.000004   0.000001  -0.000016   0.002547   0.017383   0.000012
     4  C   -0.011556   0.002646  -0.063545   0.328512  -0.023146   0.001506
     5  C   -0.000582   0.006080  -0.006395  -0.050326   0.374521  -0.031444
     6  N   -0.047697  -0.006961   0.001598  -0.001858  -0.034187   0.338679
     7  C    0.338607  -0.046598  -0.057972  -0.001775   0.001616  -0.021217
     8  H   -0.037920  -0.000744   0.003901   0.000009  -0.000045  -0.004473
     9  C   -0.060243   0.004422  -0.014617  -0.001271  -0.000070   0.001328
    10  C   -0.000283  -0.000405   0.001561  -0.000029   0.000001  -0.000083
    11  C   -0.050688   0.004196  -0.013060   0.000029   0.000000   0.000004
    12  C    0.372004  -0.036329  -0.082082   0.002609   0.000000  -0.000114
    13  C    5.040174   0.403086   0.244804  -0.071098  -0.000009   0.002971
    14  H    0.403086   0.526788  -0.037366  -0.004548   0.000093  -0.000109
    15  N    0.244804  -0.037366   6.965134   0.585198  -0.000080  -0.000132
    16  C   -0.071098  -0.004548   0.585198   4.710084   0.002013  -0.000197
    17  H   -0.000009   0.000093  -0.000080   0.002013   0.376521  -0.002818
    18  H    0.002971  -0.000109  -0.000132  -0.000197  -0.002818   0.310604
    19  H   -0.007545   0.000106   0.007696   0.003003   0.000016  -0.000149
    20  H    0.004340  -0.000066   0.000126  -0.000036   0.000002   0.000807
    21  H   -0.000433   0.000010  -0.000041   0.000004  -0.000000   0.000001
    22  H    0.000045  -0.000055   0.000019  -0.000002   0.000000   0.000001
    23  H   -0.007525   0.000003   0.008592   0.000106   0.000000   0.000000
    24  H    0.004700  -0.000057   0.000136   0.000007   0.000000  -0.000000
    25  H   -0.035558  -0.002817   0.000410  -0.000022  -0.000000   0.000002
    26  H   -0.047423  -0.001046   0.004902  -0.000061   0.000000  -0.000000
    27  H    0.005057  -0.000174  -0.040305   0.403656  -0.000079   0.000001
              19         20         21         22         23         24
     1  O    0.000001   0.000000  -0.000000  -0.000000   0.000000   0.000000
     2  N   -0.000004  -0.000000   0.000000   0.000000  -0.000000   0.000000
     3  O    0.000000   0.000000   0.000000  -0.000000   0.000000   0.000000
     4  C   -0.001226  -0.000079   0.000001  -0.000000   0.000041   0.000000
     5  C    0.001233   0.000153   0.000001  -0.000003  -0.000000  -0.000000
     6  N   -0.000353  -0.000428  -0.000077  -0.000117  -0.000030   0.000006
     7  C   -0.036852  -0.042416   0.004599  -0.004847   0.000578  -0.000130
     8  H    0.004362  -0.002078  -0.000076   0.003558   0.000035  -0.000102
     9  C    0.390225   0.399487  -0.036360  -0.046955  -0.001958   0.004388
    10  C   -0.032072  -0.035302   0.402435   0.397754  -0.039017  -0.038438
    11  C   -0.002211   0.003931  -0.034893  -0.045403   0.399177   0.402341
    12  C    0.000689  -0.000415   0.004349  -0.001021  -0.037862  -0.038689
    13  C   -0.007545   0.004340  -0.000433   0.000045  -0.007525   0.004700
    14  H    0.000106  -0.000066   0.000010  -0.000055   0.000003  -0.000057
    15  N    0.007696   0.000126  -0.000041   0.000019   0.008592   0.000136
    16  C    0.003003  -0.000036   0.000004  -0.000002   0.000106   0.000007
    17  H    0.000016   0.000002  -0.000000   0.000000   0.000000   0.000000
    18  H   -0.000149   0.000807   0.000001   0.000001   0.000000  -0.000000
    19  H    0.504938  -0.024739  -0.002788   0.003959   0.001514  -0.000066
    20  H   -0.024739   0.541167  -0.002692  -0.002991  -0.000045  -0.000083
    21  H   -0.002788  -0.002692   0.524027  -0.027405  -0.002898  -0.002242
    22  H    0.003959  -0.002991  -0.027405   0.571320   0.004137  -0.003657
    23  H    0.001514  -0.000045  -0.002898   0.004137   0.498953  -0.025453
    24  H   -0.000066  -0.000083  -0.002242  -0.003657  -0.025453   0.538126
    25  H   -0.000029   0.000012  -0.000087  -0.000080  -0.002317  -0.002291
    26  H    0.000019  -0.000030  -0.000081   0.002380   0.004067  -0.003034
    27  H    0.000083   0.000000  -0.000000   0.000000  -0.000035  -0.000000
              25         26         27
     1  O    0.000000   0.000000   0.006139
     2  N   -0.000000  -0.000000  -0.000888
     3  O    0.000000   0.000000   0.000018
     4  C    0.000024   0.000006  -0.063395
     5  C    0.000000  -0.000002   0.002216
     6  N   -0.000090  -0.000060   0.000016
     7  C    0.005152  -0.003906  -0.000407
     8  H   -0.000025   0.001686   0.000009
     9  C   -0.000423   0.000969  -0.000058
    10  C    0.004190  -0.002232   0.000007
    11  C   -0.033396  -0.041481   0.000012
    12  C    0.398272   0.396731  -0.000036
    13  C   -0.035558  -0.047423   0.005057
    14  H   -0.002817  -0.001046  -0.000174
    15  N    0.000410   0.004902  -0.040305
    16  C   -0.000022  -0.000061   0.403656
    17  H   -0.000000   0.000000  -0.000079
    18  H    0.000002  -0.000000   0.000001
    19  H   -0.000029   0.000019   0.000083
    20  H    0.000012  -0.000030   0.000000
    21  H   -0.000087  -0.000081  -0.000000
    22  H   -0.000080   0.002380   0.000000
    23  H   -0.002317   0.004067  -0.000035
    24  H   -0.002291  -0.003034  -0.000000
    25  H    0.506106  -0.024082  -0.000013
    26  H   -0.024082   0.562341   0.000001
    27  H   -0.000013   0.000001   0.439199
 Mulliken charges:
               1
     1  O   -0.467258
     2  N    0.491360
     3  O   -0.504075
     4  C    0.000482
     5  C    0.188907
     6  N   -0.780282
     7  C    0.060230
     8  H    0.180075
     9  C   -0.301424
    10  C   -0.327945
    11  C   -0.321493
    12  C   -0.306649
    13  C   -0.037162
    14  H    0.189950
    15  N   -0.511212
    16  C    0.119924
    17  H    0.295275
    18  H    0.404868
    19  H    0.190191
    20  H    0.161376
    21  H    0.174646
    22  H    0.149362
    23  H    0.199940
    24  H    0.164539
    25  H    0.187061
    26  H    0.150337
    27  H    0.248975
 Sum of Mulliken charges =  -0.00000
 Mulliken charges with hydrogens summed into heavy atoms:
               1
     1  O   -0.467258
     2  N    0.491360
     3  O   -0.504075
     4  C    0.000482
     5  C    0.484181
     6  N   -0.375414
     7  C    0.240305
     9  C    0.050143
    10  C   -0.003937
    11  C    0.042987
    12  C    0.030750
    13  C    0.152788
    15  N   -0.511212
    16  C    0.368899
 Electronic spatial extent (au):  <R**2>=           3005.1836
 Charge=             -0.0000 electrons
 Dipole moment (field-independent basis, Debye):
    X=              5.4144    Y=              4.7965    Z=              1.2820  Tot=              7.3461
 Quadrupole moment (field-independent basis, Debye-Ang):
   XX=           -106.1334   YY=            -79.2233   ZZ=            -81.5014
   XY=             -1.7658   XZ=             -0.1336   YZ=              1.8567
 Traceless Quadrupole moment (field-independent basis, Debye-Ang):
   XX=            -17.1807   YY=              9.7294   ZZ=              7.4513
   XY=             -1.7658   XZ=             -0.1336   YZ=              1.8567
 Octapole moment (field-independent basis, Debye-Ang**2):
  XXX=             92.3522  YYY=             36.2797  ZZZ=             -1.4823  XYY=             -4.5827
  XXY=              9.5304  XXZ=              4.9276  XZZ=             -9.7639  YZZ=             -0.3901
  YYZ=              7.9999  XYZ=              0.2495
 Hexadecapole moment (field-independent basis, Debye-Ang**3):
 XXXX=          -3381.7014 YYYY=           -601.0702 ZZZZ=           -303.7922 XXXY=            -20.9032
 XXXZ=            -13.4426 YYYX=             -8.9796 YYYZ=             25.0125 ZZZX=              1.9147
 ZZZY=              7.0803 XXYY=           -627.7197 XXZZ=           -523.7597 YYZZ=           -157.3285
 XXYZ=             -4.2723 YYXZ=              1.7027 ZZXY=              4.6868
 N-N= 9.312523938906D+02 E-N=-3.409222352008D+03  KE= 6.596299850852D+02
 Unable to Open any file for archive entry.
 1\1\GINC-LOTUS\FOpt\RMP2-FC\6-31G(d)\C9H13N3O2\ALEXEY\02-Jul-2023\0\\#
 MP2/6-31G* SCF=Tight Opt=(ModRedun, MaxCycle=20 ) NoSymm\\MolName:\\0,
 1\O,-3.506195041,-1.3906699352,-0.3707650101\N,-3.1209598387,-0.232435
 422,-0.1182292108\O,-3.8954548022,0.7284605708,0.0555319628\C,-1.68656
 15076,-0.0236797433,-0.0095826565\C,-1.3013830977,1.2608006818,0.27535
 65639\N,-0.0571498402,1.7502667372,0.3864145954\C,1.2056752495,1.02405
 52236,0.3593222758\H,1.8534238848,1.5530082298,1.0746711765\C,1.909078
 2263,1.0351704249,-0.9965607673\C,3.3074145892,0.428399259,-0.83261931
 51\C,3.2593882021,-0.9677368808,-0.2060971113\C,2.464475018,-0.9783515
 945,1.101430701\C,1.0547927455,-0.4246122016,0.8650860577\H,0.47832913
 88,-0.4032563526,1.8035373085\N,0.4082425474,-1.3178004137,-0.09113433
 63\C,-0.8390654854,-1.137920362,-0.3864552343\H,-2.096120653,1.9876919
 255,0.4190410555\H,0.0018386396,2.7354067901,0.6156560438\H,1.31479443
 67,0.4578228184,-1.7127596134\H,1.9751237847,2.0631123875,-1.374206888
 1\H,3.8112665205,0.3903394934,-1.8051817094\H,3.9072970426,1.094612726
 2,-0.1963829526\H,2.7816478461,-1.6644563825,-0.9019338089\H,4.2785375
 979,-1.3312891377,-0.0290575611\H,2.3790630277,-2.0002416628,1.4853230
 679\H,2.9744453759,-0.3804738663,1.8694038135\H,-1.3009536074,-1.89320
 33131,-1.021798447\\Version=ES64L-G16RevC.02\HF=-661.3003752\MP2=-663.
 3346493\RMSD=6.331e-09\RMSF=2.791e-05\Dipole=1.9787696,1.6920436,0.471
 4856\PG=C01 [X(C9H13N3O2)]\\@
 The archive entry for this job was punched.


 Not by the face shall a man be known, but by the mask.
                               -- Karen Blixen
 Job cpu time:       0 days  1 hours  5 minutes 41.9 seconds.
 Elapsed time:       0 days  0 hours 19 minutes 50.7 seconds.
 File lengths (MBytes):  RWF=     36 Int=      0 D2E=      0 Chk=      7 Scr=      1
 Normal termination of Gaussian 16 at Sun Jul  2 21:25:24 2023.
