 Entering Gaussian System, Link 0=g16
 Initial command:
 /home/alexey/programs//g16/l1.exe "/home/alexey/tmp/Gau-1582920.inp" -scrdir="/home/alexey/tmp/"
 Entering Link 1 = /home/alexey/programs//g16/l1.exe PID=   1582922.
  
 Copyright (c) 1988-2021, Gaussian, Inc.  All Rights Reserved.
  
 This is part of the Gaussian(R) 16 program.  It is based on
 the Gaussian(R) 09 system (copyright 2009, Gaussian, Inc.),
 the Gaussian(R) 03 system (copyright 2003, Gaussian, Inc.),
 the Gaussian(R) 98 system (copyright 1998, Gaussian, Inc.),
 the Gaussian(R) 94 system (copyright 1995, Gaussian, Inc.),
 the Gaussian 92(TM) system (copyright 1992, Gaussian, Inc.),
 the Gaussian 90(TM) system (copyright 1990, Gaussian, Inc.),
 the Gaussian 88(TM) system (copyright 1988, Gaussian, Inc.),
 the Gaussian 86(TM) system (copyright 1986, Carnegie Mellon
 University), and the Gaussian 82(TM) system (copyright 1983,
 Carnegie Mellon University). Gaussian is a federally registered
 trademark of Gaussian, Inc.
  
 This software contains proprietary and confidential information,
 including trade secrets, belonging to Gaussian, Inc.
  
 This software is provided under written license and may be
 used, copied, transmitted, or stored only in accord with that
 written license.
  
 The following legend is applicable only to US Government
 contracts under FAR:
  
                    RESTRICTED RIGHTS LEGEND
  
 Use, reproduction and disclosure by the US Government is
 subject to restrictions as set forth in subparagraphs (a)
 and (c) of the Commercial Computer Software - Restricted
 Rights clause in FAR 52.227-19.
  
 Gaussian, Inc.
 340 Quinnipiac St., Bldg. 40, Wallingford CT 06492
  
  
 ---------------------------------------------------------------
 Warning -- This program may not be used in any manner that
 competes with the business of Gaussian, Inc. or will provide
 assistance to any competitor of Gaussian, Inc.  The licensee
 of this program is prohibited from giving any competitor of
 Gaussian, Inc. access to this program.  By using this program,
 the user acknowledges that Gaussian, Inc. is engaged in the
 business of creating and licensing software in the field of
 computational chemistry and represents and warrants to the
 licensee that it is not a competitor of Gaussian, Inc. and that
 it will not use this program in any manner prohibited above.
 ---------------------------------------------------------------
  

 Cite this work as:
 Gaussian 16, Revision C.02,
 M. J. Frisch, G. W. Trucks, H. B. Schlegel, G. E. Scuseria, 
 M. A. Robb, J. R. Cheeseman, G. Scalmani, V. Barone, 
 G. A. Petersson, H. Nakatsuji, X. Li, M. Caricato, A. V. Marenich, 
 J. Bloino, B. G. Janesko, R. Gomperts, B. Mennucci, H. P. Hratchian, 
 J. V. Ortiz, A. F. Izmaylov, J. L. Sonnenberg, D. Williams-Young, 
 F. Ding, F. Lipparini, F. Egidi, J. Goings, B. Peng, A. Petrone, 
 T. Henderson, D. Ranasinghe, V. G. Zakrzewski, J. Gao, N. Rega, 
 G. Zheng, W. Liang, M. Hada, M. Ehara, K. Toyota, R. Fukuda, 
 J. Hasegawa, M. Ishida, T. Nakajima, Y. Honda, O. Kitao, H. Nakai, 
 T. Vreven, K. Throssell, J. A. Montgomery, Jr., J. E. Peralta, 
 F. Ogliaro, M. J. Bearpark, J. J. Heyd, E. N. Brothers, K. N. Kudin, 
 V. N. Staroverov, T. A. Keith, R. Kobayashi, J. Normand, 
 K. Raghavachari, A. P. Rendell, J. C. Burant, S. S. Iyengar, 
 J. Tomasi, M. Cossi, J. M. Millam, M. Klene, C. Adamo, R. Cammi, 
 J. W. Ochterski, R. L. Martin, K. Morokuma, O. Farkas, 
 J. B. Foresman, and D. J. Fox, Gaussian, Inc., Wallingford CT, 2019.
 
 ******************************************
 Gaussian 16:  ES64L-G16RevC.02  7-Dec-2021
                 2-Jul-2023 
 ******************************************
 %mem=8GB
 %NPROCS=4
 Will use up to    4 processors via shared memory.
 %NoSave
 ---------------------------------------------------------
 #MP2/6-31G* SCF=Tight Opt=(ModRedun, MaxCycle=20 ) NoSymm
 ---------------------------------------------------------
 1/6=20,18=120,19=15,38=1/1,3;
 2/9=110,12=2,15=1,17=6,18=5,40=1/2;
 3/5=1,6=6,7=1,11=9,25=1,30=1,71=1/1,2,3;
 4//1;
 5/5=2,32=2,38=5/2;
 8/6=4,10=2/1;
 9/15=2,16=-3/6;
 10/5=1,31=1/2;
 6/7=2,8=2,9=2,10=2/1;
 7/12=2,30=1/1,2,3,16;
 1/6=20,18=20,19=15/3(2);
 2/9=110,15=1/2;
 99//99;
 2/9=110,15=1/2;
 3/5=1,6=6,7=1,11=9,25=1,30=1,71=1/1,2,3;
 4/5=5,16=3,69=1/1;
 5/5=2,32=2,38=5/2;
 8/6=4,10=2/1;
 9/15=2,16=-3/6;
 10/5=1,31=1/2;
 7/12=2,30=1/1,2,3,16;
 1/6=20,18=20,19=15/3(-8);
 2/9=110,15=1/2;
 6/7=2,8=2,9=2,10=2/1;
 99/9=10/99;
 --------
 MolName:
 --------
 Symbolic Z-matrix:
 Charge =  0 Multiplicity = 1
 8                    0    -3.61531  -1.44727  -0.1842 
 7                    0    -3.25749  -0.28212  -0.0206 
 8                    0    -4.03841   0.65732   0.13568 
 6                    0    -1.75913   0.01043  -0.04962 
 6                    0    -1.3704    1.30719   0.30574 
 7                    0    -0.08237   1.77344   0.36145 
 6                    0     1.19622   0.99921   0.34571 
 1                    0     1.85354   1.4985    1.10427 
 6                    0     1.9736    1.04617  -0.99324 
 6                    0     3.38258   0.45744  -0.78933 
 6                    0     3.31218  -0.95721  -0.19284 
 6                    0     2.45158  -0.9868    1.08877 
 6                    0     1.01795  -0.44812   0.8292 
 1                    0     0.46227  -0.48429   1.79552 
 7                    0     0.36834  -1.31746  -0.15486 
 6                    0    -0.87031  -1.10853  -0.46163 
 1                    0    -2.14935   2.01515   0.63427 
 1                    0     0.14179   2.74955   0.15331 
 1                    0     1.43047   0.46895  -1.77154 
 1                    0     2.06552   2.09526  -1.34627 
 1                    0     3.92652   0.43053  -1.75885 
 1                    0     3.95434   1.11148  -0.09363 
 1                    0     2.87041  -1.64697  -0.94708 
 1                    0     4.33726  -1.32286   0.03453 
 1                    0     2.38752  -2.03236   1.46216 
 1                    0     2.94007  -0.37555   1.87638 
 1                    0    -1.36939  -1.8481   -1.10631 
 
 The following ModRedundant input section has been read:
 D      16       4       5      17 F                                           
 D       1       2       4      16 F                                           
 D       7      13      15      16 F                                           
 D       7       9      10      11 F                                           
 D       9      10      11      12 F                                           
 D       6       7      13      15 F                                           
 

 GradGradGradGradGradGradGradGradGradGradGradGradGradGradGradGradGradGrad
 Berny optimization.
 Initialization pass.
                           ----------------------------
                           !    Initial Parameters    !
                           ! (Angstroms and Degrees)  !
 --------------------------                            --------------------------
 ! Name  Definition              Value          Derivative Info.                !
 --------------------------------------------------------------------------------
 ! R1    R(1,2)                  1.2298         estimate D2E/DX2                !
 ! R2    R(2,3)                  1.2316         estimate D2E/DX2                !
 ! R3    R(2,4)                  1.5269         estimate D2E/DX2                !
 ! R4    R(4,5)                  1.3996         estimate D2E/DX2                !
 ! R5    R(4,16)                 1.4872         estimate D2E/DX2                !
 ! R6    R(5,6)                  1.371          estimate D2E/DX2                !
 ! R7    R(5,17)                 1.1027         estimate D2E/DX2                !
 ! R8    R(6,7)                  1.4948         estimate D2E/DX2                !
 ! R9    R(6,18)                 1.0229         estimate D2E/DX2                !
 ! R10   R(7,8)                  1.1211         estimate D2E/DX2                !
 ! R11   R(7,9)                  1.549          estimate D2E/DX2                !
 ! R12   R(7,13)                 1.5363         estimate D2E/DX2                !
 ! R13   R(9,10)                 1.5406         estimate D2E/DX2                !
 ! R14   R(9,19)                 1.1108         estimate D2E/DX2                !
 ! R15   R(9,20)                 1.1107         estimate D2E/DX2                !
 ! R16   R(10,11)                1.5369         estimate D2E/DX2                !
 ! R17   R(10,21)                1.112          estimate D2E/DX2                !
 ! R18   R(10,22)                1.113          estimate D2E/DX2                !
 ! R19   R(11,12)                1.544          estimate D2E/DX2                !
 ! R20   R(11,23)                1.1135         estimate D2E/DX2                !
 ! R21   R(11,24)                1.1118         estimate D2E/DX2                !
 ! R22   R(12,13)                1.5533         estimate D2E/DX2                !
 ! R23   R(12,25)                1.1121         estimate D2E/DX2                !
 ! R24   R(12,26)                1.1102         estimate D2E/DX2                !
 ! R25   R(13,14)                1.1153         estimate D2E/DX2                !
 ! R26   R(13,15)                1.465          estimate D2E/DX2                !
 ! R27   R(15,16)                1.2931         estimate D2E/DX2                !
 ! R28   R(16,27)                1.1008         estimate D2E/DX2                !
 ! A1    A(1,2,3)              123.7166         estimate D2E/DX2                !
 ! A2    A(1,2,4)              117.6787         estimate D2E/DX2                !
 ! A3    A(3,2,4)              118.5861         estimate D2E/DX2                !
 ! A4    A(2,4,5)              116.4378         estimate D2E/DX2                !
 ! A5    A(2,4,16)             116.5879         estimate D2E/DX2                !
 ! A6    A(5,4,16)             126.9726         estimate D2E/DX2                !
 ! A7    A(4,5,6)              125.8984         estimate D2E/DX2                !
 ! A8    A(4,5,17)             118.3133         estimate D2E/DX2                !
 ! A9    A(6,5,17)             115.6727         estimate D2E/DX2                !
 ! A10   A(5,6,7)              128.8318         estimate D2E/DX2                !
 ! A11   A(5,6,18)             121.4762         estimate D2E/DX2                !
 ! A12   A(7,6,18)             107.7378         estimate D2E/DX2                !
 ! A13   A(6,7,8)              105.291          estimate D2E/DX2                !
 ! A14   A(6,7,9)              115.0034         estimate D2E/DX2                !
 ! A15   A(6,7,13)             112.667          estimate D2E/DX2                !
 ! A16   A(8,7,9)              106.0892         estimate D2E/DX2                !
 ! A17   A(8,7,13)             105.9421         estimate D2E/DX2                !
 ! A18   A(9,7,13)             111.0284         estimate D2E/DX2                !
 ! A19   A(7,9,10)             109.4508         estimate D2E/DX2                !
 ! A20   A(7,9,19)             110.1521         estimate D2E/DX2                !
 ! A21   A(7,9,20)             110.1767         estimate D2E/DX2                !
 ! A22   A(10,9,19)            109.9584         estimate D2E/DX2                !
 ! A23   A(10,9,20)            109.1067         estimate D2E/DX2                !
 ! A24   A(19,9,20)            107.9733         estimate D2E/DX2                !
 ! A25   A(9,10,11)            111.1758         estimate D2E/DX2                !
 ! A26   A(9,10,21)            109.9508         estimate D2E/DX2                !
 ! A27   A(9,10,22)            109.1479         estimate D2E/DX2                !
 ! A28   A(11,10,21)           109.7866         estimate D2E/DX2                !
 ! A29   A(11,10,22)           108.7746         estimate D2E/DX2                !
 ! A30   A(21,10,22)           107.9341         estimate D2E/DX2                !
 ! A31   A(10,11,12)           111.4276         estimate D2E/DX2                !
 ! A32   A(10,11,23)           108.9944         estimate D2E/DX2                !
 ! A33   A(10,11,24)           109.8678         estimate D2E/DX2                !
 ! A34   A(12,11,23)           109.2229         estimate D2E/DX2                !
 ! A35   A(12,11,24)           109.745          estimate D2E/DX2                !
 ! A36   A(23,11,24)           107.4931         estimate D2E/DX2                !
 ! A37   A(11,12,13)           111.6582         estimate D2E/DX2                !
 ! A38   A(11,12,25)           109.1971         estimate D2E/DX2                !
 ! A39   A(11,12,26)           109.4544         estimate D2E/DX2                !
 ! A40   A(13,12,25)           109.2074         estimate D2E/DX2                !
 ! A41   A(13,12,26)           109.4938         estimate D2E/DX2                !
 ! A42   A(25,12,26)           107.7454         estimate D2E/DX2                !
 ! A43   A(7,13,12)            105.7949         estimate D2E/DX2                !
 ! A44   A(7,13,14)            111.1639         estimate D2E/DX2                !
 ! A45   A(7,13,15)            113.522          estimate D2E/DX2                !
 ! A46   A(12,13,14)           107.6867         estimate D2E/DX2                !
 ! A47   A(12,13,15)           108.404          estimate D2E/DX2                !
 ! A48   A(14,13,15)           109.9883         estimate D2E/DX2                !
 ! A49   A(13,15,16)           119.2256         estimate D2E/DX2                !
 ! A50   A(4,16,15)            128.9272         estimate D2E/DX2                !
 ! A51   A(4,16,27)            113.3777         estimate D2E/DX2                !
 ! A52   A(15,16,27)           117.6912         estimate D2E/DX2                !
 ! D1    D(1,2,4,5)           -172.1789         estimate D2E/DX2                !
 ! D2    D(1,2,4,16)             8.2582         Frozen                          !
 ! D3    D(3,2,4,5)              9.3297         estimate D2E/DX2                !
 ! D4    D(3,2,4,16)          -170.2332         estimate D2E/DX2                !
 ! D5    D(2,4,5,6)            179.1705         estimate D2E/DX2                !
 ! D6    D(2,4,5,17)             3.263          estimate D2E/DX2                !
 ! D7    D(16,4,5,6)            -1.3188         estimate D2E/DX2                !
 ! D8    D(16,4,5,17)         -177.2262         Frozen                          !
 ! D9    D(2,4,16,15)         -153.6338         estimate D2E/DX2                !
 ! D10   D(2,4,16,27)           25.6251         estimate D2E/DX2                !
 ! D11   D(5,4,16,15)           26.8561         estimate D2E/DX2                !
 ! D12   D(5,4,16,27)         -153.885          estimate D2E/DX2                !
 ! D13   D(4,5,6,7)            -13.8622         estimate D2E/DX2                !
 ! D14   D(4,5,6,18)           148.1976         estimate D2E/DX2                !
 ! D15   D(17,5,6,7)           162.1404         estimate D2E/DX2                !
 ! D16   D(17,5,6,18)          -35.7998         estimate D2E/DX2                !
 ! D17   D(5,6,7,8)           -138.6959         estimate D2E/DX2                !
 ! D18   D(5,6,7,9)            104.9112         estimate D2E/DX2                !
 ! D19   D(5,6,7,13)           -23.6869         estimate D2E/DX2                !
 ! D20   D(18,6,7,8)            57.3145         estimate D2E/DX2                !
 ! D21   D(18,6,7,9)           -59.0784         estimate D2E/DX2                !
 ! D22   D(18,6,7,13)          172.3235         estimate D2E/DX2                !
 ! D23   D(6,7,9,10)           168.7258         estimate D2E/DX2                !
 ! D24   D(6,7,9,19)           -70.2631         estimate D2E/DX2                !
 ! D25   D(6,7,9,20)            48.7518         estimate D2E/DX2                !
 ! D26   D(8,7,9,10)            52.7894         estimate D2E/DX2                !
 ! D27   D(8,7,9,19)           173.8004         estimate D2E/DX2                !
 ! D28   D(8,7,9,20)           -67.1846         estimate D2E/DX2                !
 ! D29   D(13,7,9,10)          -61.8648         estimate D2E/DX2                !
 ! D30   D(13,7,9,19)           59.1462         estimate D2E/DX2                !
 ! D31   D(13,7,9,20)          178.1612         estimate D2E/DX2                !
 ! D32   D(6,7,13,12)         -166.2289         estimate D2E/DX2                !
 ! D33   D(6,7,13,14)          -49.608          estimate D2E/DX2                !
 ! D34   D(6,7,13,15)           75.0226         Frozen                          !
 ! D35   D(8,7,13,12)          -51.6135         estimate D2E/DX2                !
 ! D36   D(8,7,13,14)           65.0074         estimate D2E/DX2                !
 ! D37   D(8,7,13,15)         -170.362          estimate D2E/DX2                !
 ! D38   D(9,7,13,12)           63.1325         estimate D2E/DX2                !
 ! D39   D(9,7,13,14)          179.7534         estimate D2E/DX2                !
 ! D40   D(9,7,13,15)          -55.6159         estimate D2E/DX2                !
 ! D41   D(7,9,10,11)           54.8123         Frozen                          !
 ! D42   D(7,9,10,21)          176.6039         estimate D2E/DX2                !
 ! D43   D(7,9,10,22)          -65.1794         estimate D2E/DX2                !
 ! D44   D(19,9,10,11)         -66.3161         estimate D2E/DX2                !
 ! D45   D(19,9,10,21)          55.4754         estimate D2E/DX2                !
 ! D46   D(19,9,10,22)         173.6921         estimate D2E/DX2                !
 ! D47   D(20,9,10,11)         175.4398         estimate D2E/DX2                !
 ! D48   D(20,9,10,21)         -62.7686         estimate D2E/DX2                !
 ! D49   D(20,9,10,22)          55.4481         estimate D2E/DX2                !
 ! D50   D(9,10,11,12)         -52.8222         Frozen                          !
 ! D51   D(9,10,11,23)          67.7849         estimate D2E/DX2                !
 ! D52   D(9,10,11,24)        -174.6726         estimate D2E/DX2                !
 ! D53   D(21,10,11,12)       -174.7093         estimate D2E/DX2                !
 ! D54   D(21,10,11,23)        -54.1023         estimate D2E/DX2                !
 ! D55   D(21,10,11,24)         63.4402         estimate D2E/DX2                !
 ! D56   D(22,10,11,12)         67.3908         estimate D2E/DX2                !
 ! D57   D(22,10,11,23)       -172.0022         estimate D2E/DX2                !
 ! D58   D(22,10,11,24)        -54.4597         estimate D2E/DX2                !
 ! D59   D(10,11,12,13)         56.5711         estimate D2E/DX2                !
 ! D60   D(10,11,12,25)        177.4406         estimate D2E/DX2                !
 ! D61   D(10,11,12,26)        -64.8323         estimate D2E/DX2                !
 ! D62   D(23,11,12,13)        -63.9018         estimate D2E/DX2                !
 ! D63   D(23,11,12,25)         56.9677         estimate D2E/DX2                !
 ! D64   D(23,11,12,26)        174.6948         estimate D2E/DX2                !
 ! D65   D(24,11,12,13)        178.4927         estimate D2E/DX2                !
 ! D66   D(24,11,12,25)        -60.6378         estimate D2E/DX2                !
 ! D67   D(24,11,12,26)         57.0893         estimate D2E/DX2                !
 ! D68   D(11,12,13,7)         -60.2031         estimate D2E/DX2                !
 ! D69   D(11,12,13,14)       -179.1516         estimate D2E/DX2                !
 ! D70   D(11,12,13,15)         61.8862         estimate D2E/DX2                !
 ! D71   D(25,12,13,7)         178.9334         estimate D2E/DX2                !
 ! D72   D(25,12,13,14)         59.9848         estimate D2E/DX2                !
 ! D73   D(25,12,13,15)        -58.9773         estimate D2E/DX2                !
 ! D74   D(26,12,13,7)          61.1774         estimate D2E/DX2                !
 ! D75   D(26,12,13,14)        -57.7711         estimate D2E/DX2                !
 ! D76   D(26,12,13,15)       -176.7332         estimate D2E/DX2                !
 ! D77   D(7,13,15,16)         -67.161          Frozen                          !
 ! D78   D(12,13,15,16)        175.6006         estimate D2E/DX2                !
 ! D79   D(14,13,15,16)         58.1012         estimate D2E/DX2                !
 ! D80   D(13,15,16,4)           6.6522         estimate D2E/DX2                !
 ! D81   D(13,15,16,27)       -172.5795         estimate D2E/DX2                !
 --------------------------------------------------------------------------------
 Trust Radius=3.00D-01 FncErr=1.00D-07 GrdErr=1.00D-07 EigMax=2.50D+02 EigMin=1.00D-04
 Number of steps in this run=     20 maximum allowed number of steps=    162.
 GradGradGradGradGradGradGradGradGradGradGradGradGradGradGradGradGradGrad

                          Input orientation:                          
 ---------------------------------------------------------------------
 Center     Atomic      Atomic             Coordinates (Angstroms)
 Number     Number       Type             X           Y           Z
 ---------------------------------------------------------------------
      1          8           0       -3.615310   -1.447270   -0.184200
      2          7           0       -3.257490   -0.282120   -0.020600
      3          8           0       -4.038410    0.657320    0.135680
      4          6           0       -1.759130    0.010430   -0.049620
      5          6           0       -1.370400    1.307190    0.305740
      6          7           0       -0.082370    1.773440    0.361450
      7          6           0        1.196220    0.999210    0.345710
      8          1           0        1.853540    1.498500    1.104270
      9          6           0        1.973600    1.046170   -0.993240
     10          6           0        3.382580    0.457440   -0.789330
     11          6           0        3.312180   -0.957210   -0.192840
     12          6           0        2.451580   -0.986800    1.088770
     13          6           0        1.017950   -0.448120    0.829200
     14          1           0        0.462270   -0.484290    1.795520
     15          7           0        0.368340   -1.317460   -0.154860
     16          6           0       -0.870310   -1.108530   -0.461630
     17          1           0       -2.149350    2.015150    0.634270
     18          1           0        0.141790    2.749550    0.153310
     19          1           0        1.430470    0.468950   -1.771540
     20          1           0        2.065520    2.095260   -1.346270
     21          1           0        3.926520    0.430530   -1.758850
     22          1           0        3.954340    1.111480   -0.093630
     23          1           0        2.870410   -1.646970   -0.947080
     24          1           0        4.337260   -1.322860    0.034530
     25          1           0        2.387520   -2.032360    1.462160
     26          1           0        2.940070   -0.375550    1.876380
     27          1           0       -1.369390   -1.848100   -1.106310
 ---------------------------------------------------------------------
                    Distance matrix (angstroms):
                    1          2          3          4          5
     1  O    0.000000
     2  N    1.229786   0.000000
     3  O    2.170400   1.231587   0.000000
     4  C    2.363981   1.526928   2.376535   0.000000
     5  C    3.587020   2.488677   2.751278   1.399635   0.000000
     6  N    4.811691   3.801668   4.116667   2.467531   1.370954
     7  C    5.423734   4.648819   5.249986   3.141348   2.585341
     8  H    6.343976   5.527980   6.029994   4.073966   3.326866
     9  C    6.173144   5.484039   6.129431   3.987035   3.596918
    10  C    7.277676   6.725208   7.481089   5.213844   4.950967
    11  C    6.944807   6.606510   7.532981   5.164787   5.225193
    12  C    6.216079   5.858392   6.762506   4.474425   4.525821
    13  C    4.846894   4.362236   5.222044   2.948689   3.009874
    14  H    4.633927   4.144367   4.930970   2.929831   2.964376
    15  N    3.985872   3.773142   4.837728   2.510079   3.181848
    16  C    2.779701   2.564389   3.675849   1.487220   2.583534
    17  H    3.848023   2.633302   2.379252   2.153806   1.102680
    18  H    5.642961   4.558111   4.674592   3.340278   2.095318
    19  H    5.625962   5.060323   5.794965   3.653601   3.586448
    20  H    6.794980   5.978610   6.443742   4.544861   3.893037
    21  H    7.929997   7.425590   8.190286   5.951854   5.752254
    22  H    7.990933   7.345607   8.008926   5.818762   5.343281
    23  H    6.533485   6.346049   7.363010   4.998505   5.317997
    24  H    7.956550   7.665925   8.607159   6.241051   6.290318
    25  H    6.251944   6.093280   7.091298   4.863453   5.158669
    26  H    6.954680   6.482053   7.266088   5.093225   4.886581
    27  H    2.460713   2.682533   3.865661   2.173160   3.456840
                    6          7          8          9         10
     6  N    0.000000
     7  C    1.494815   0.000000
     8  H    2.091679   1.121059   0.000000
     9  C    2.567318   1.548971   2.149085   0.000000
    10  C    3.880983   2.522301   2.647166   1.540587   0.000000
    11  C    4.391658   2.931706   3.136979   2.538891   1.536877
    12  C    3.816913   2.464204   2.556288   2.948932   2.545555
    13  C    2.522860   1.536329   2.136166   2.543120   3.005188
    14  H    2.729567   2.200319   2.518911   3.521876   4.012046
    15  N    3.165972   2.510561   3.423574   2.977665   3.555062
    16  C    3.099042   3.060214   4.082647   3.607377   4.543866
    17  H    2.098871   3.508310   4.063368   4.537227   5.920756
    18  H    1.022918   2.052445   2.323691   2.751656   4.079836
    19  H    2.922332   2.195176   3.083706   1.110821   2.185315
    20  H    2.762844   2.195405   2.531048   1.110707   2.174232
    21  H    4.729723   3.493867   3.692596   2.186108   1.112009
    22  H    4.115862   2.795148   2.449104   2.176441   1.112958
    23  H    4.704292   3.387696   3.890507   2.838909   2.171577
    24  H    5.406208   3.918542   3.908105   3.500786   2.181657
    25  H    4.668622   3.443265   3.588898   3.959503   3.501208
    26  H    4.006035   2.697022   2.299731   3.345156   2.827666
    27  H    4.114157   4.098523   5.145257   4.423253   5.291239
                   11         12         13         14         15
    11  C    0.000000
    12  C    1.544031   0.000000
    13  C    2.562661   1.553334   0.000000
    14  H    3.507024   2.170107   1.115286   0.000000
    15  N    2.966044   2.448641   1.464964   2.122964   0.000000
    16  C    4.193849   3.667903   2.380737   2.694470   1.293064
    17  H    6.272746   5.512425   4.017149   3.796875   4.250621
    18  H    4.889914   4.491161   3.383722   3.641055   4.084956
    19  H    2.840257   3.367974   2.788376   3.817066   2.633066
    20  H    3.493155   3.946841   3.506972   4.369821   3.993311
    21  H    2.180739   3.506168   3.991216   5.046927   4.276552
    22  H    2.168338   2.838862   3.450558   4.279010   4.331616
    23  H    1.113466   2.180809   2.832670   3.830511   2.645098
    24  H    1.111839   2.186355   3.523420   4.338183   3.973440
    25  H    2.179442   1.112079   2.187733   2.492837   2.683826
    26  H    2.181391   1.110216   2.190068   2.481503   3.409828
    27  H    4.852341   4.489992   3.377208   3.692638   2.050985
                   16         17         18         19         20
    16  C    0.000000
    17  H    3.548847   0.000000
    18  H    4.035750   2.453566   0.000000
    19  H    3.081866   4.581896   3.250674   0.000000
    20  H    4.434631   4.657691   2.525386   1.796949   0.000000
    21  H    5.202025   6.719690   4.833052   2.496378   2.530784
    22  H    5.323637   6.213010   4.156897   3.098088   2.470743
    23  H    3.810324   6.411691   5.290143   2.688918   3.848569
    24  H    5.235542   7.319707   5.848128   3.862888   4.330237
    25  H    3.894597   6.136035   5.442707   4.198727   5.002820
    26  H    4.530182   5.758514   4.534930   4.037251   4.153939
    27  H    1.100753   4.308440   5.000869   3.694654   5.235100
                   21         22         23         24         25
    21  H    0.000000
    22  H    1.799284   0.000000
    23  H    2.467862   3.084206   0.000000
    24  H    2.541514   2.467603   1.794507   0.000000
    25  H    4.336964   3.841762   2.487196   2.518532   0.000000
    26  H    3.851979   2.668509   3.097303   2.498389   1.794968
    27  H    5.802123   6.174685   4.247554   5.843222   4.554708
                   26         27
    26  H    0.000000
    27  H    5.443922   0.000000
 Symmetry turned off by external request.
 Stoichiometry    C9H13N3O2
 Framework group  C1[X(C9H13N3O2)]
 Deg. of freedom    75
 Full point group                 C1      NOp   1
 Rotational constants (GHZ):           1.6788362           0.3999995           0.3552628
 Standard basis: 6-31G(d) (6D, 7F)
   236 basis functions,   444 primitive gaussians,   236 cartesian basis functions
    52 alpha electrons       52 beta electrons
       nuclear repulsion energy       917.5637832569 Hartrees.
 NAtoms=   27 NActive=   27 NUniq=   27 SFac= 1.00D+00 NAtFMM=   60 NAOKFM=F Big=F
 Integral buffers will be    131072 words long.
 Raffenetti 1 integral format.
 Two-electron integral symmetry is turned off.
 One-electron integrals computed using PRISM.
 NBasis=   236 RedAO= T EigKep=  1.29D-03  NBF=   236
 NBsUse=   236 1.00D-06 EigRej= -1.00D+00 NBFU=   236
 ExpMin= 1.61D-01 ExpMax= 5.48D+03 ExpMxC= 8.25D+02 IAcc=3 IRadAn=         5 AccDes= 0.00D+00
 Harris functional with IExCor=  205 and IRadAn=       5 diagonalized for initial guess.
 HarFok:  IExCor=  205 AccDes= 0.00D+00 IRadAn=         5 IDoV= 1 UseB2=F ITyADJ=14
 ICtDFT=  3500011 ScaDFX=  1.000000  1.000000  1.000000  1.000000
 FoFCou: FMM=F IPFlag=           0 FMFlag=      100000 FMFlg1=           0
         NFxFlg=           0 DoJE=T BraDBF=F KetDBF=T FulRan=T
         wScrn=  0.000000 ICntrl=       500 IOpCl=  0 I1Cent=   200000004 NGrid=           0
         NMat0=    1 NMatS0=      1 NMatT0=    0 NMatD0=    1 NMtDS0=    0 NMtDT0=    0
 Symmetry not used in FoFCou.
 Keep R1 ints in memory in canonical form, NReq=397720213.
 Requested convergence on RMS density matrix=1.00D-08 within 128 cycles.
 Requested convergence on MAX density matrix=1.00D-06.
 Requested convergence on             energy=1.00D-06.
 No special actions if energy rises.
 SCF Done:  E(RHF) =  -661.278430343     A.U. after   16 cycles
            NFock= 16  Conv=0.86D-08     -V/T= 2.0037
 ExpMin= 1.61D-01 ExpMax= 5.48D+03 ExpMxC= 8.25D+02 IAcc=3 IRadAn=         5 AccDes= 0.00D+00
 HarFok:  IExCor=  205 AccDes= 0.00D+00 IRadAn=         5 IDoV=-2 UseB2=F ITyADJ=14
 ICtDFT= 12500011 ScaDFX=  1.000000  1.000000  1.000000  1.000000
 Range of M.O.s used for correlation:    15   236
 NBasis=   236 NAE=    52 NBE=    52 NFC=    14 NFV=     0
 NROrb=    222 NOA=    38 NOB=    38 NVA=   184 NVB=   184
 Fully direct method using O(ONN) memory.
 JobTyp=1 Pass  1:  I=  15 to  52 NPSUse=  4 ParTrn=T ParDer=T DoDerP=T.
 Spin components of T(2) and E(2):
     alpha-alpha T2 =       0.9197351898D-01 E2=     -0.2717579776D+00
     alpha-beta  T2 =       0.4999765366D+00 E2=     -0.1493991430D+01
     beta-beta   T2 =       0.9197351898D-01 E2=     -0.2717579776D+00
 ANorm=    0.1297660809D+01
 E2 =    -0.2037507386D+01 EUMP2 =    -0.66331593772896D+03
          IDoAtm=111111111111111111111111111
          Differentiating once with respect to electric field.
                with respect to dipole field.
          Differentiating once with respect to nuclear coordinates.
 Keep R1 ints in memory in canonical form, NReq=397723379.
          There are     1 degrees of freedom in the 1st order CPHF.  IDoFFX=0 NUNeed=     1.
 LinEq1:  Iter=  0 NonCon=     1 RMS=4.60D-03 Max=1.08D-01 NDo=     1
 AX will form     1 AO Fock derivatives at one time.
 LinEq1:  Iter=  1 NonCon=     1 RMS=1.56D-03 Max=2.87D-02 NDo=     1
 LinEq1:  Iter=  2 NonCon=     1 RMS=6.40D-04 Max=1.74D-02 NDo=     1
 LinEq1:  Iter=  3 NonCon=     1 RMS=2.95D-04 Max=9.08D-03 NDo=     1
 LinEq1:  Iter=  4 NonCon=     1 RMS=9.10D-05 Max=2.16D-03 NDo=     1
 LinEq1:  Iter=  5 NonCon=     1 RMS=3.81D-05 Max=1.92D-03 NDo=     1
 LinEq1:  Iter=  6 NonCon=     1 RMS=1.57D-05 Max=5.97D-04 NDo=     1
 LinEq1:  Iter=  7 NonCon=     1 RMS=6.08D-06 Max=1.04D-04 NDo=     1
 LinEq1:  Iter=  8 NonCon=     1 RMS=2.43D-06 Max=6.12D-05 NDo=     1
 LinEq1:  Iter=  9 NonCon=     1 RMS=9.21D-07 Max=2.61D-05 NDo=     1
 LinEq1:  Iter= 10 NonCon=     1 RMS=4.50D-07 Max=1.49D-05 NDo=     1
 LinEq1:  Iter= 11 NonCon=     1 RMS=1.59D-07 Max=5.75D-06 NDo=     1
 LinEq1:  Iter= 12 NonCon=     1 RMS=5.57D-08 Max=8.39D-07 NDo=     1
 LinEq1:  Iter= 13 NonCon=     1 RMS=1.78D-08 Max=4.03D-07 NDo=     1
 LinEq1:  Iter= 14 NonCon=     1 RMS=5.87D-09 Max=1.64D-07 NDo=     1
 LinEq1:  Iter= 15 NonCon=     1 RMS=2.20D-09 Max=5.21D-08 NDo=     1
 LinEq1:  Iter= 16 NonCon=     1 RMS=8.19D-10 Max=1.23D-08 NDo=     1
 LinEq1:  Iter= 17 NonCon=     1 RMS=2.70D-10 Max=4.00D-09 NDo=     1
 LinEq1:  Iter= 18 NonCon=     1 RMS=9.18D-11 Max=1.07D-09 NDo=     1
 LinEq1:  Iter= 19 NonCon=     0 RMS=3.01D-11 Max=3.52D-10 NDo=     1
 Linear equations converged to 1.000D-10 1.000D-09 after    19 iterations.
 End of Minotr F.D. properties file   721 does not exist.
 End of Minotr F.D. properties file   722 does not exist.
 End of Minotr F.D. properties file   788 does not exist.

 **********************************************************************

            Population analysis using the SCF Density.

 **********************************************************************

 Alpha  occ. eigenvalues --  -20.59921 -20.59470 -15.85339 -15.62966 -15.57035
 Alpha  occ. eigenvalues --  -11.35775 -11.30535 -11.30213 -11.30016 -11.27738
 Alpha  occ. eigenvalues --  -11.24582 -11.23853 -11.23420 -11.22858  -1.58562
 Alpha  occ. eigenvalues --   -1.38066  -1.28443  -1.22766  -1.13269  -1.08388
 Alpha  occ. eigenvalues --   -1.01809  -1.00641  -0.93550  -0.88996  -0.84905
 Alpha  occ. eigenvalues --   -0.81546  -0.78069  -0.76930  -0.74292  -0.70975
 Alpha  occ. eigenvalues --   -0.70431  -0.69827  -0.67446  -0.64356  -0.63312
 Alpha  occ. eigenvalues --   -0.61517  -0.60616  -0.57495  -0.56381  -0.54896
 Alpha  occ. eigenvalues --   -0.53383  -0.50732  -0.49237  -0.48540  -0.47746
 Alpha  occ. eigenvalues --   -0.47605  -0.46122  -0.45670  -0.44053  -0.42132
 Alpha  occ. eigenvalues --   -0.40098  -0.33856
 Alpha virt. eigenvalues --    0.07056   0.11652   0.18462   0.21495   0.23549
 Alpha virt. eigenvalues --    0.24268   0.26034   0.27652   0.28577   0.28870
 Alpha virt. eigenvalues --    0.29916   0.31051   0.31847   0.32249   0.33351
 Alpha virt. eigenvalues --    0.33762   0.34214   0.35530   0.37571   0.38572
 Alpha virt. eigenvalues --    0.40694   0.41829   0.44591   0.45323   0.45734
 Alpha virt. eigenvalues --    0.45867   0.49621   0.53123   0.57665   0.59118
 Alpha virt. eigenvalues --    0.63313   0.69212   0.69369   0.72136   0.74021
 Alpha virt. eigenvalues --    0.74933   0.75679   0.75841   0.77642   0.79517
 Alpha virt. eigenvalues --    0.80542   0.83474   0.85163   0.85280   0.88092
 Alpha virt. eigenvalues --    0.89072   0.90177   0.90898   0.91819   0.93883
 Alpha virt. eigenvalues --    0.95440   0.97133   0.98800   1.00347   1.01901
 Alpha virt. eigenvalues --    1.02729   1.05125   1.06387   1.07025   1.08446
 Alpha virt. eigenvalues --    1.09497   1.10481   1.11250   1.11758   1.13259
 Alpha virt. eigenvalues --    1.13802   1.14306   1.15272   1.16307   1.17258
 Alpha virt. eigenvalues --    1.17886   1.19886   1.21037   1.22258   1.22757
 Alpha virt. eigenvalues --    1.23779   1.24465   1.25779   1.27192   1.27392
 Alpha virt. eigenvalues --    1.29406   1.30893   1.33063   1.35725   1.39653
 Alpha virt. eigenvalues --    1.42430   1.45560   1.47668   1.48973   1.52295
 Alpha virt. eigenvalues --    1.54070   1.54577   1.61148   1.61889   1.65576
 Alpha virt. eigenvalues --    1.68776   1.70163   1.72177   1.73812   1.76966
 Alpha virt. eigenvalues --    1.78774   1.79977   1.84253   1.88805   1.92739
 Alpha virt. eigenvalues --    1.93301   1.96391   1.97349   1.98938   2.00720
 Alpha virt. eigenvalues --    2.02978   2.04122   2.05801   2.08711   2.11997
 Alpha virt. eigenvalues --    2.12706   2.14258   2.17743   2.18690   2.19241
 Alpha virt. eigenvalues --    2.20860   2.21834   2.24084   2.24875   2.26503
 Alpha virt. eigenvalues --    2.28977   2.32362   2.33725   2.35627   2.36044
 Alpha virt. eigenvalues --    2.38343   2.39687   2.41358   2.43119   2.45883
 Alpha virt. eigenvalues --    2.48506   2.50317   2.51842   2.56616   2.57397
 Alpha virt. eigenvalues --    2.60917   2.62864   2.66095   2.68344   2.68824
 Alpha virt. eigenvalues --    2.69852   2.70131   2.74789   2.77071   2.80783
 Alpha virt. eigenvalues --    2.84431   2.86813   2.90151   2.91464   2.95427
 Alpha virt. eigenvalues --    2.97836   2.98348   3.02280   3.03346   3.05759
 Alpha virt. eigenvalues --    3.06812   3.12353   3.19554   3.22443   3.27179
 Alpha virt. eigenvalues --    3.29923   3.33511   3.37053   3.43385   3.59578
 Alpha virt. eigenvalues --    4.09608   4.22938   4.32009   4.36040   4.42961
 Alpha virt. eigenvalues --    4.52644   4.59668   4.59856   4.70918   4.77401
 Alpha virt. eigenvalues --    4.96200   4.99229   5.02709   5.09891
          Condensed to atoms (all electrons):
               1          2          3          4          5          6
     1  O    8.299341   0.312614  -0.089462  -0.079011   0.003410  -0.000014
     2  N    0.312614   5.687330   0.308692   0.262291  -0.045093   0.000935
     3  O   -0.089462   0.308692   8.329043  -0.086825   0.008033   0.000451
     4  C   -0.079011   0.262291  -0.086825   5.240767   0.567817  -0.049851
     5  C    0.003410  -0.045093   0.008033   0.567817   4.671024   0.307972
     6  N   -0.000014   0.000935   0.000451  -0.049851   0.307972   7.197914
     7  C    0.000003  -0.000095   0.000001   0.003621  -0.029937   0.198188
     8  H   -0.000000   0.000002  -0.000000  -0.000137   0.001907  -0.050902
     9  C   -0.000000  -0.000003   0.000000   0.000416   0.002108  -0.055722
    10  C   -0.000000   0.000000  -0.000000  -0.000016  -0.000075   0.003329
    11  C   -0.000000  -0.000000  -0.000000  -0.000016   0.000015  -0.000154
    12  C   -0.000000   0.000002  -0.000000  -0.000082  -0.000095   0.003586
    13  C   -0.000019  -0.000029  -0.000002  -0.010696   0.000515  -0.043715
    14  H   -0.000003  -0.000046   0.000000   0.002982   0.005344  -0.005587
    15  N    0.000166   0.001617  -0.000013  -0.060770  -0.003958   0.002001
    16  C    0.003627  -0.027445   0.001910   0.319353  -0.041319  -0.001621
    17  H    0.000109  -0.003607   0.010970  -0.028813   0.379000  -0.034346
    18  H    0.000000  -0.000035   0.000009   0.000800  -0.024046   0.328039
    19  H    0.000000   0.000001   0.000000  -0.000678   0.000501   0.000783
    20  H    0.000000  -0.000000   0.000000  -0.000026   0.000026  -0.001917
    21  H   -0.000000  -0.000000   0.000000   0.000000   0.000001  -0.000058
    22  H   -0.000000   0.000000  -0.000000  -0.000000  -0.000002  -0.000099
    23  H    0.000000  -0.000000   0.000000   0.000024  -0.000000  -0.000024
    24  H    0.000000   0.000000   0.000000   0.000000  -0.000000   0.000004
    25  H    0.000000  -0.000000   0.000000   0.000020  -0.000001  -0.000070
    26  H    0.000000  -0.000000   0.000000   0.000006  -0.000001  -0.000066
    27  H    0.005176  -0.000170  -0.000006  -0.065642   0.002251   0.000048
               7          8          9         10         11         12
     1  O    0.000003  -0.000000  -0.000000  -0.000000  -0.000000  -0.000000
     2  N   -0.000095   0.000002  -0.000003   0.000000  -0.000000   0.000002
     3  O    0.000001  -0.000000   0.000000  -0.000000  -0.000000  -0.000000
     4  C    0.003621  -0.000137   0.000416  -0.000016  -0.000016  -0.000082
     5  C   -0.029937   0.001907   0.002108  -0.000075   0.000015  -0.000095
     6  N    0.198188  -0.050902  -0.055722   0.003329  -0.000154   0.003586
     7  C    4.996886   0.417513   0.340127  -0.049341  -0.007626  -0.064029
     8  H    0.417513   0.549302  -0.061178   0.001553  -0.000338  -0.002803
     9  C    0.340127  -0.061178   5.182217   0.317652  -0.053037  -0.006303
    10  C   -0.049341   0.001553   0.317652   5.126972   0.332780  -0.060041
    11  C   -0.007626  -0.000338  -0.053037   0.332780   5.123668   0.330775
    12  C   -0.064029  -0.002803  -0.006303  -0.060041   0.330775   5.136534
    13  C    0.334138  -0.041000  -0.049203  -0.001937  -0.047892   0.367963
    14  H   -0.040167  -0.000915   0.003867  -0.000391   0.003944  -0.040716
    15  N   -0.058235   0.004106  -0.013023   0.001504  -0.007715  -0.073955
    16  C   -0.002305   0.000011  -0.000900  -0.000023   0.000003   0.002559
    17  H    0.001518  -0.000017  -0.000063   0.000001   0.000000   0.000001
    18  H   -0.028228  -0.002414   0.000852  -0.000125   0.000012  -0.000133
    19  H   -0.034889   0.004132   0.385643  -0.032581  -0.002287   0.000646
    20  H   -0.041439  -0.001864   0.397308  -0.037427   0.004143  -0.000358
    21  H    0.004034  -0.000081  -0.035840   0.400173  -0.035875   0.004207
    22  H   -0.004176   0.003512  -0.045640   0.395963  -0.045611  -0.001247
    23  H    0.000423   0.000034  -0.002003  -0.040118   0.396732  -0.036721
    24  H   -0.000140  -0.000097   0.004388  -0.038452   0.400318  -0.037845
    25  H    0.004960  -0.000003  -0.000368   0.004095  -0.033966   0.395505
    26  H   -0.004445   0.001631   0.001024  -0.002391  -0.042257   0.394725
    27  H   -0.000399   0.000009  -0.000058   0.000005   0.000005  -0.000018
              13         14         15         16         17         18
     1  O   -0.000019  -0.000003   0.000166   0.003627   0.000109   0.000000
     2  N   -0.000029  -0.000046   0.001617  -0.027445  -0.003607  -0.000035
     3  O   -0.000002   0.000000  -0.000013   0.001910   0.010970   0.000009
     4  C   -0.010696   0.002982  -0.060770   0.319353  -0.028813   0.000800
     5  C    0.000515   0.005344  -0.003958  -0.041319   0.379000  -0.024046
     6  N   -0.043715  -0.005587   0.002001  -0.001621  -0.034346   0.328039
     7  C    0.334138  -0.040167  -0.058235  -0.002305   0.001518  -0.028228
     8  H   -0.041000  -0.000915   0.004106   0.000011  -0.000017  -0.002414
     9  C   -0.049203   0.003867  -0.013023  -0.000900  -0.000063   0.000852
    10  C   -0.001937  -0.000391   0.001504  -0.000023   0.000001  -0.000125
    11  C   -0.047892   0.003944  -0.007715   0.000003   0.000000   0.000012
    12  C    0.367963  -0.040716  -0.073955   0.002559   0.000001  -0.000133
    13  C    5.027193   0.401651   0.238571  -0.069693  -0.000060   0.003643
    14  H    0.401651   0.520213  -0.035852  -0.004986   0.000070   0.000020
    15  N    0.238571  -0.035852   6.933078   0.587093  -0.000061  -0.000116
    16  C   -0.069693  -0.004986   0.587093   4.702118   0.001603  -0.000218
    17  H   -0.000060   0.000070  -0.000061   0.001603   0.388646  -0.001839
    18  H    0.003643   0.000020  -0.000116  -0.000218  -0.001839   0.323780
    19  H   -0.006411   0.000064   0.007022   0.002492   0.000010  -0.000125
    20  H    0.003850  -0.000049   0.000078  -0.000030  -0.000001   0.002990
    21  H   -0.000368   0.000009  -0.000027   0.000002  -0.000000  -0.000000
    22  H    0.000320  -0.000044   0.000003  -0.000001   0.000000   0.000002
    23  H   -0.005826   0.000007   0.006689   0.000063   0.000000   0.000000
    24  H    0.004137  -0.000058   0.000043   0.000005   0.000000  -0.000000
    25  H   -0.034593  -0.002642   0.000716  -0.000063  -0.000000   0.000002
    26  H   -0.044722  -0.000920   0.004180  -0.000057   0.000000  -0.000001
    27  H    0.004865  -0.000174  -0.039759   0.401975  -0.000057   0.000002
              19         20         21         22         23         24
     1  O    0.000000   0.000000  -0.000000  -0.000000   0.000000   0.000000
     2  N    0.000001  -0.000000  -0.000000   0.000000  -0.000000   0.000000
     3  O    0.000000   0.000000   0.000000  -0.000000   0.000000   0.000000
     4  C   -0.000678  -0.000026   0.000000  -0.000000   0.000024   0.000000
     5  C    0.000501   0.000026   0.000001  -0.000002  -0.000000  -0.000000
     6  N    0.000783  -0.001917  -0.000058  -0.000099  -0.000024   0.000004
     7  C   -0.034889  -0.041439   0.004034  -0.004176   0.000423  -0.000140
     8  H    0.004132  -0.001864  -0.000081   0.003512   0.000034  -0.000097
     9  C    0.385643   0.397308  -0.035840  -0.045640  -0.002003   0.004388
    10  C   -0.032581  -0.037427   0.400173   0.395963  -0.040118  -0.038452
    11  C   -0.002287   0.004143  -0.035875  -0.045611   0.396732   0.400318
    12  C    0.000646  -0.000358   0.004207  -0.001247  -0.036721  -0.037845
    13  C   -0.006411   0.003850  -0.000368   0.000320  -0.005826   0.004137
    14  H    0.000064  -0.000049   0.000009  -0.000044   0.000007  -0.000058
    15  N    0.007022   0.000078  -0.000027   0.000003   0.006689   0.000043
    16  C    0.002492  -0.000030   0.000002  -0.000001   0.000063   0.000005
    17  H    0.000010  -0.000001  -0.000000   0.000000   0.000000   0.000000
    18  H   -0.000125   0.002990  -0.000000   0.000002   0.000000  -0.000000
    19  H    0.507385  -0.024042  -0.002592   0.003760   0.001644  -0.000069
    20  H   -0.024042   0.550174  -0.002600  -0.002969  -0.000050  -0.000090
    21  H   -0.002592  -0.002600   0.526258  -0.024703  -0.002818  -0.002053
    22  H    0.003760  -0.002969  -0.024703   0.568664   0.004064  -0.003592
    23  H    0.001644  -0.000050  -0.002818   0.004064   0.510085  -0.024995
    24  H   -0.000069  -0.000090  -0.002053  -0.003592  -0.024995   0.540884
    25  H   -0.000027   0.000011  -0.000086  -0.000082  -0.002099  -0.002376
    26  H    0.000023  -0.000035  -0.000074   0.002465   0.003823  -0.002771
    27  H    0.000073  -0.000000  -0.000000   0.000000  -0.000021  -0.000000
              25         26         27
     1  O    0.000000   0.000000   0.005176
     2  N   -0.000000  -0.000000  -0.000170
     3  O    0.000000   0.000000  -0.000006
     4  C    0.000020   0.000006  -0.065642
     5  C   -0.000001  -0.000001   0.002251
     6  N   -0.000070  -0.000066   0.000048
     7  C    0.004960  -0.004445  -0.000399
     8  H   -0.000003   0.001631   0.000009
     9  C   -0.000368   0.001024  -0.000058
    10  C    0.004095  -0.002391   0.000005
    11  C   -0.033966  -0.042257   0.000005
    12  C    0.395505   0.394725  -0.000018
    13  C   -0.034593  -0.044722   0.004865
    14  H   -0.002642  -0.000920  -0.000174
    15  N    0.000716   0.004180  -0.039759
    16  C   -0.000063  -0.000057   0.401975
    17  H   -0.000000   0.000000  -0.000057
    18  H    0.000002  -0.000001   0.000002
    19  H   -0.000027   0.000023   0.000073
    20  H    0.000011  -0.000035  -0.000000
    21  H   -0.000086  -0.000074  -0.000000
    22  H   -0.000082   0.002465   0.000000
    23  H   -0.002099   0.003823  -0.000021
    24  H   -0.002376  -0.002771  -0.000000
    25  H    0.510764  -0.023103  -0.000010
    26  H   -0.023103   0.560374   0.000001
    27  H   -0.000010   0.000001   0.452935
 Mulliken charges:
               1
     1  O   -0.455936
     2  N    0.503040
     3  O   -0.482803
     4  C   -0.015537
     5  C    0.194604
     6  N   -0.799105
     7  C    0.064040
     8  H    0.178037
     9  C   -0.312261
    10  C   -0.321109
    11  C   -0.315619
    12  C   -0.312156
    13  C   -0.030680
    14  H    0.194379
    15  N   -0.493381
    16  C    0.125847
    17  H    0.286935
    18  H    0.397128
    19  H    0.189524
    20  H    0.154318
    21  H    0.172491
    22  H    0.149416
    23  H    0.191090
    24  H    0.162760
    25  H    0.183417
    26  H    0.152592
    27  H    0.238969
 Sum of Mulliken charges =  -0.00000
 Mulliken charges with hydrogens summed into heavy atoms:
               1
     1  O   -0.455936
     2  N    0.503040
     3  O   -0.482803
     4  C   -0.015537
     5  C    0.481539
     6  N   -0.401978
     7  C    0.242077
     9  C    0.031581
    10  C    0.000798
    11  C    0.038231
    12  C    0.023853
    13  C    0.163699
    15  N   -0.493381
    16  C    0.364816
 Electronic spatial extent (au):  <R**2>=           3125.4591
 Charge=             -0.0000 electrons
 Dipole moment (field-independent basis, Debye):
    X=              5.3026    Y=              4.3874    Z=              0.5717  Tot=              6.9061
 Quadrupole moment (field-independent basis, Debye-Ang):
   XX=           -105.3527   YY=            -80.5622   ZZ=            -82.0757
   XY=             -1.8138   XZ=              0.5992   YZ=              0.0752
 Traceless Quadrupole moment (field-independent basis, Debye-Ang):
   XX=            -16.0225   YY=              8.7680   ZZ=              7.2545
   XY=             -1.8138   XZ=              0.5992   YZ=              0.0752
 Octapole moment (field-independent basis, Debye-Ang**2):
  XXX=            100.8735  YYY=             35.7109  ZZZ=             -4.4291  XYY=             -1.0329
  XXY=             11.3385  XXZ=              0.3377  XZZ=             -8.8087  YZZ=             -2.7739
  YYZ=              0.7030  XYZ=             -2.1351
 Hexadecapole moment (field-independent basis, Debye-Ang**3):
 XXXX=          -3559.2204 YYYY=           -620.1482 ZZZZ=           -299.6534 XXXY=            -41.2027
 XXXZ=             26.5304 YYYX=            -20.7597 YYYZ=              9.2951 ZZZX=             22.3224
 ZZZY=              8.9499 XXYY=           -657.7831 XXZZ=           -542.8672 YYZZ=           -163.8461
 XXYZ=              3.3483 YYXZ=              9.3025 ZZXY=              1.4726
 N-N= 9.175637832569D+02 E-N=-3.381136732307D+03  KE= 6.588599055259D+02
 Calling FoFJK, ICntrl=  10002127 FMM=F ISym2X=0 I1Cent= 0 IOpClX= 0 NMat=1 NMatS=1 NMatT=0.
 -------------------------------------------------------------------
 Center     Atomic                   Forces (Hartrees/Bohr)
 Number     Number              X              Y              Z
 -------------------------------------------------------------------
      1        8           0.002263476   -0.019501402   -0.003242290
      2        7           0.038562273    0.013456455   -0.000688230
      3        8          -0.005194311    0.015457583    0.003917691
      4        6          -0.002075492    0.009139358    0.011864554
      5        6           0.001920480   -0.017860656   -0.005918388
      6        7           0.016465471   -0.011222437   -0.004398708
      7        6          -0.004608013    0.005643116    0.002129548
      8        1          -0.009665167   -0.001861268   -0.007656317
      9        6          -0.003849376   -0.000186212   -0.001957250
     10        6           0.002894712   -0.000782904    0.000930467
     11        6          -0.001155013   -0.004588889   -0.002446389
     12        6           0.000915384   -0.008754328   -0.002740029
     13        6           0.009517474   -0.001554737    0.004626088
     14        1           0.000698278    0.004537284   -0.009871627
     15        7          -0.000738259    0.001822569    0.001003285
     16        6          -0.021341105    0.007117333    0.002281797
     17        1           0.006021918   -0.004165791   -0.011017991
     18        1          -0.017220662   -0.001426082    0.008246833
     19        1           0.003077842    0.005950050    0.007663233
     20        1          -0.003296963   -0.007297205    0.002611894
     21        1          -0.004401834    0.002414483    0.009585877
     22        1          -0.003935514   -0.004018315   -0.007434423
     23        1           0.003961986    0.006148264    0.009276385
     24        1          -0.009373049    0.002613155   -0.002198279
     25        1          -0.000722443    0.010557173   -0.002428526
     26        1          -0.004799160   -0.004842786   -0.004413929
     27        1           0.006077065    0.003206190    0.002274723
 -------------------------------------------------------------------
 Cartesian Forces:  Max     0.038562273 RMS     0.008496978

 GradGradGradGradGradGradGradGradGradGradGradGradGradGradGradGradGradGrad
 Berny optimization.
 FormGI is forming the generalized inverse of G from B-inverse, IUseBI=4.
 Internal  Forces:  Max     0.036768430 RMS     0.006809315
 Search for a local minimum.
 Step number   1 out of a maximum of   20
 All quantities printed in internal units (Hartrees-Bohrs-Radians)
 Mixed Optimization -- RFO/linear search
 Second derivative matrix not updated -- first step.
 ITU=  0
     Eigenvalues ---    0.00233   0.00770   0.01142   0.01178   0.01224
     Eigenvalues ---    0.01514   0.01538   0.01632   0.01969   0.02019
     Eigenvalues ---    0.02686   0.03649   0.04503   0.04690   0.04837
     Eigenvalues ---    0.05077   0.05137   0.05303   0.05891   0.06261
     Eigenvalues ---    0.07218   0.07702   0.07727   0.07874   0.07993
     Eigenvalues ---    0.08051   0.08064   0.10459   0.11741   0.12269
     Eigenvalues ---    0.13446   0.15301   0.15757   0.15980   0.16000
     Eigenvalues ---    0.20030   0.21807   0.23151   0.24999   0.25000
     Eigenvalues ---    0.25000   0.25358   0.26189   0.26651   0.27981
     Eigenvalues ---    0.28086   0.28443   0.29709   0.31457   0.31539
     Eigenvalues ---    0.32047   0.32236   0.32289   0.32381   0.32388
     Eigenvalues ---    0.32406   0.32513   0.32525   0.32577   0.33269
     Eigenvalues ---    0.33388   0.33599   0.35223   0.43876   0.44245
     Eigenvalues ---    0.49050   0.66695   0.90428   0.911751000.00000
     Eigenvalues --- 1000.000001000.000001000.000001000.000001000.00000
     Eigenvalues --- 1000.000001000.000001000.000001000.000001000.00000
     Eigenvalues --- 1000.000001000.000001000.000001000.000001000.00000
     Eigenvalues --- 1000.000001000.000001000.000001000.000001000.00000
     Eigenvalues --- 1000.000001000.000001000.000001000.000001000.00000
     Eigenvalues --- 1000.000001000.000001000.000001000.000001000.00000
     Eigenvalues --- 1000.000001000.000001000.000001000.000001000.00000
     Eigenvalues --- 1000.000001000.000001000.000001000.000001000.00000
     Eigenvalues --- 1000.000001000.000001000.000001000.000001000.00000
     Eigenvalues --- 1000.000001000.000001000.000001000.000001000.00000
     Eigenvalues --- 1000.000001000.000001000.000001000.000001000.00000
     Eigenvalues --- 1000.000001000.000001000.000001000.000001000.00000
     Eigenvalues --- 1000.000001000.000001000.000001000.000001000.00000
     Eigenvalues --- 1000.000001000.000001000.000001000.000001000.00000
     Eigenvalues --- 1000.000001000.000001000.000001000.000001000.00000
     Eigenvalues --- 1000.000001000.000001000.000001000.000001000.00000
     Eigenvalues --- 1000.000001000.000001000.000001000.000001000.00000
     Eigenvalues --- 1000.000001000.000001000.000001000.000001000.00000
     Eigenvalues --- 1000.00000
 RFO step:  Lambda=-2.36546197D-02 EMin= 2.32501241D-03
 Linear search not attempted -- first point.
 Iteration  1 RMS(Cart)=  0.05415548 RMS(Int)=  0.00119276
 Iteration  2 RMS(Cart)=  0.00130920 RMS(Int)=  0.00024140
 Iteration  3 RMS(Cart)=  0.00000191 RMS(Int)=  0.00024139
 Iteration  4 RMS(Cart)=  0.00000000 RMS(Int)=  0.00024139
 Iteration  1 RMS(Cart)=  0.00002687 RMS(Int)=  0.00002179
 Iteration  2 RMS(Cart)=  0.00001587 RMS(Int)=  0.00002417
 Iteration  3 RMS(Cart)=  0.00000967 RMS(Int)=  0.00002748
 Iteration  4 RMS(Cart)=  0.00000606 RMS(Int)=  0.00003002
 Iteration  5 RMS(Cart)=  0.00000391 RMS(Int)=  0.00003178
 Iteration  6 RMS(Cart)=  0.00000263 RMS(Int)=  0.00003297
 Iteration  7 RMS(Cart)=  0.00000185 RMS(Int)=  0.00003378
 Iteration  8 RMS(Cart)=  0.00000137 RMS(Int)=  0.00003433
 Iteration  9 RMS(Cart)=  0.00000106 RMS(Int)=  0.00003472
 Iteration 10 RMS(Cart)=  0.00000085 RMS(Int)=  0.00003499
 Variable       Old X    -DE/DX   Delta X   Delta X   Delta X     New X
                                 (Linear)    (Quad)   (Total)
    R1        2.32396   0.01825   0.00000   0.01951   0.01951   2.34347
    R2        2.32736   0.01558   0.00000   0.01679   0.01679   2.34415
    R3        2.88548  -0.03677   0.00000  -0.11463  -0.11463   2.77084
    R4        2.64493  -0.03492   0.00000  -0.07486  -0.07463   2.57029
    R5        2.81044  -0.02153   0.00000  -0.06159  -0.06138   2.74906
    R6        2.59073  -0.02217   0.00000  -0.04268  -0.04260   2.54812
    R7        2.08376  -0.01021   0.00000  -0.02856  -0.02856   2.05520
    R8        2.82479  -0.01952   0.00000  -0.05385  -0.05395   2.77084
    R9        1.93303  -0.00681   0.00000  -0.01473  -0.01473   1.91830
   R10        2.11849  -0.01168   0.00000  -0.03452  -0.03452   2.08397
   R11        2.92713  -0.01299   0.00000  -0.04478  -0.04483   2.88230
   R12        2.90324  -0.00514   0.00000  -0.01100  -0.01103   2.89221
   R13        2.91129  -0.00472   0.00000  -0.01434  -0.01435   2.89693
   R14        2.09915  -0.00997   0.00000  -0.02857  -0.02857   2.07057
   R15        2.09893  -0.00800   0.00000  -0.02292  -0.02292   2.07602
   R16        2.90428  -0.00189   0.00000  -0.00702  -0.00705   2.89722
   R17        2.10139  -0.01057   0.00000  -0.03041  -0.03041   2.07098
   R18        2.10319  -0.00903   0.00000  -0.02606  -0.02606   2.07713
   R19        2.91780  -0.00907   0.00000  -0.02827  -0.02822   2.88957
   R20        2.10415  -0.01166   0.00000  -0.03371  -0.03371   2.07044
   R21        2.10107  -0.00995   0.00000  -0.02862  -0.02862   2.07245
   R22        2.93538  -0.01043   0.00000  -0.03627  -0.03627   2.89911
   R23        2.10152  -0.01070   0.00000  -0.03079  -0.03079   2.07073
   R24        2.09800  -0.00791   0.00000  -0.02263  -0.02263   2.07537
   R25        2.10759  -0.00905   0.00000  -0.02629  -0.02629   2.08129
   R26        2.76838  -0.00500   0.00000  -0.01166  -0.01196   2.75642
   R27        2.44354  -0.00606   0.00000  -0.00872  -0.00875   2.43478
   R28        2.08012  -0.00624   0.00000  -0.01736  -0.01736   2.06277
    A1        2.15926   0.01079   0.00000   0.03991   0.03928   2.19854
    A2        2.05388  -0.00764   0.00000  -0.02746  -0.02809   2.02579
    A3        2.06972  -0.00312   0.00000  -0.01091  -0.01154   2.05818
    A4        2.03222  -0.00672   0.00000  -0.02290  -0.02306   2.00917
    A5        2.03484  -0.00374   0.00000  -0.01199  -0.01215   2.02269
    A6        2.21609   0.01045   0.00000   0.03494   0.03523   2.25132
    A7        2.19734   0.00588   0.00000   0.02088   0.02101   2.21835
    A8        2.06496  -0.00337   0.00000  -0.01276  -0.01285   2.05211
    A9        2.01887  -0.00238   0.00000  -0.00905  -0.00921   2.00966
   A10        2.24854  -0.00528   0.00000  -0.01566  -0.01596   2.23258
   A11        2.12016  -0.01231   0.00000  -0.07215  -0.07248   2.04768
   A12        1.88038   0.01771   0.00000   0.09590   0.09611   1.97649
   A13        1.83767  -0.00124   0.00000  -0.01679  -0.01661   1.82107
   A14        2.00719  -0.00122   0.00000  -0.00910  -0.00903   1.99816
   A15        1.96641   0.00085   0.00000  -0.00056  -0.00107   1.96534
   A16        1.85161   0.00260   0.00000   0.02456   0.02441   1.87601
   A17        1.84904   0.00068   0.00000   0.01353   0.01337   1.86241
   A18        1.93781  -0.00134   0.00000  -0.00801  -0.00769   1.93012
   A19        1.91028   0.00023   0.00000  -0.00442  -0.00458   1.90570
   A20        1.92252  -0.00076   0.00000  -0.01259  -0.01255   1.90996
   A21        1.92295  -0.00167   0.00000  -0.00751  -0.00749   1.91545
   A22        1.91914  -0.00041   0.00000   0.00605   0.00603   1.92516
   A23        1.90427   0.00302   0.00000   0.02404   0.02406   1.92833
   A24        1.88449  -0.00038   0.00000  -0.00515  -0.00542   1.87907
   A25        1.94038  -0.00096   0.00000   0.00535   0.00523   1.94562
   A26        1.91900  -0.00063   0.00000  -0.00640  -0.00642   1.91259
   A27        1.90499   0.00032   0.00000  -0.00294  -0.00299   1.90200
   A28        1.91614   0.00083   0.00000   0.00712   0.00716   1.92330
   A29        1.89848   0.00169   0.00000   0.01098   0.01101   1.90949
   A30        1.88381  -0.00124   0.00000  -0.01458  -0.01467   1.86914
   A31        1.94478   0.00049   0.00000   0.00430   0.00443   1.94921
   A32        1.90231   0.00072   0.00000   0.00616   0.00610   1.90841
   A33        1.91756   0.00038   0.00000   0.00540   0.00538   1.92294
   A34        1.90630  -0.00106   0.00000  -0.01356  -0.01361   1.89269
   A35        1.91541  -0.00044   0.00000   0.00005  -0.00004   1.91537
   A36        1.87611  -0.00010   0.00000  -0.00270  -0.00273   1.87338
   A37        1.94880  -0.00283   0.00000  -0.01688  -0.01692   1.93189
   A38        1.90585   0.00255   0.00000   0.01753   0.01740   1.92324
   A39        1.91034   0.00131   0.00000   0.01213   0.01211   1.92245
   A40        1.90603   0.00010   0.00000  -0.00281  -0.00264   1.90339
   A41        1.91103  -0.00020   0.00000  -0.00547  -0.00543   1.90560
   A42        1.88051  -0.00085   0.00000  -0.00406  -0.00424   1.87628
   A43        1.84647   0.00439   0.00000   0.02335   0.02339   1.86986
   A44        1.94018  -0.00434   0.00000  -0.03300  -0.03338   1.90680
   A45        1.98133   0.00114   0.00000   0.01572   0.01590   1.99723
   A46        1.87949   0.00231   0.00000   0.03069   0.03101   1.91050
   A47        1.89201  -0.00375   0.00000  -0.02836  -0.02845   1.86356
   A48        1.91966   0.00045   0.00000  -0.00609  -0.00591   1.91375
   A49        2.08088  -0.00574   0.00000  -0.01096  -0.01146   2.06942
   A50        2.25020  -0.00525   0.00000  -0.01885  -0.01912   2.23108
   A51        1.97881   0.00611   0.00000   0.02859   0.02809   2.00690
   A52        2.05410  -0.00084   0.00000  -0.00916  -0.00965   2.04445
    D1       -3.00509  -0.00081   0.00000   0.00552   0.00541  -2.99967
    D2        0.14413   0.00036   0.00000   0.00000  -0.00000   0.14413
    D3        0.16283  -0.00216   0.00000  -0.05789  -0.05794   0.10490
    D4       -2.97113  -0.00099   0.00000  -0.06341  -0.06335  -3.03448
    D5        3.12711  -0.00060   0.00000  -0.02294  -0.02311   3.10401
    D6        0.05695  -0.00259   0.00000  -0.00590  -0.00598   0.05097
    D7       -0.02302  -0.00198   0.00000  -0.01704  -0.01713  -0.04015
    D8       -3.09318  -0.00397   0.00000   0.00000  -0.00000  -3.09318
    D9       -2.68142  -0.00123   0.00000  -0.02803  -0.02830  -2.70971
   D10        0.44724   0.00077   0.00000   0.02769   0.02785   0.47509
   D11        0.46873   0.00017   0.00000  -0.03389  -0.03427   0.43446
   D12       -2.68580   0.00217   0.00000   0.02183   0.02188  -2.66392
   D13       -0.24194   0.00104   0.00000   0.04657   0.04703  -0.19491
   D14        2.58654   0.00440   0.00000   0.09788   0.09689   2.68342
   D15        2.82988   0.00293   0.00000   0.02975   0.03009   2.85997
   D16       -0.62482   0.00630   0.00000   0.08106   0.07995  -0.54488
   D17       -2.42070  -0.00103   0.00000  -0.03384  -0.03337  -2.45407
   D18        1.83105  -0.00274   0.00000  -0.04808  -0.04762   1.78343
   D19       -0.41341  -0.00052   0.00000  -0.02787  -0.02772  -0.44113
   D20        1.00033  -0.00023   0.00000  -0.05784  -0.05846   0.94187
   D21       -1.03111  -0.00194   0.00000  -0.07207  -0.07270  -1.10381
   D22        3.00761   0.00028   0.00000  -0.05187  -0.05280   2.95481
   D23        2.94482   0.00249   0.00000   0.02477   0.02474   2.96956
   D24       -1.22632   0.00165   0.00000   0.02147   0.02145  -1.20487
   D25        0.85088  -0.00034   0.00000   0.00258   0.00263   0.85351
   D26        0.92135   0.00298   0.00000   0.03425   0.03423   0.95558
   D27        3.03339   0.00214   0.00000   0.03095   0.03094   3.06433
   D28       -1.17259   0.00015   0.00000   0.01205   0.01212  -1.16047
   D29       -1.07974   0.00139   0.00000   0.00861   0.00855  -1.07119
   D30        1.03230   0.00055   0.00000   0.00531   0.00526   1.03755
   D31        3.10950  -0.00144   0.00000  -0.01359  -0.01356   3.09594
   D32       -2.90124  -0.00129   0.00000  -0.01074  -0.01045  -2.91169
   D33       -0.86582   0.00177   0.00000   0.02229   0.02218  -0.84365
   D34        1.30939  -0.00020   0.00000   0.00000  -0.00001   1.30938
   D35       -0.90083  -0.00194   0.00000  -0.02312  -0.02300  -0.92382
   D36        1.13459   0.00112   0.00000   0.00992   0.00963   1.14423
   D37       -2.97338  -0.00084   0.00000  -0.01237  -0.01255  -2.98593
   D38        1.10187   0.00085   0.00000   0.00941   0.00952   1.11139
   D39        3.13729   0.00391   0.00000   0.04244   0.04215  -3.10375
   D40       -0.97068   0.00194   0.00000   0.02015   0.01997  -0.95071
   D41        0.95665   0.00059   0.00000   0.00000   0.00000   0.95666
   D42        3.08232   0.00057   0.00000   0.00820   0.00816   3.09048
   D43       -1.13760  -0.00112   0.00000  -0.01506  -0.01503  -1.15263
   D44       -1.15743   0.00164   0.00000   0.01458   0.01465  -1.14279
   D45        0.96823   0.00162   0.00000   0.02278   0.02280   0.99103
   D46        3.03150  -0.00007   0.00000  -0.00049  -0.00039   3.03111
   D47        3.06200   0.00055   0.00000   0.00290   0.00286   3.06486
   D48       -1.09552   0.00052   0.00000   0.01110   0.01101  -1.08450
   D49        0.96775  -0.00116   0.00000  -0.01216  -0.01218   0.95557
   D50       -0.92192  -0.00080   0.00000   0.00000   0.00000  -0.92192
   D51        1.18307  -0.00134   0.00000  -0.01012  -0.01014   1.17293
   D52       -3.04861  -0.00082   0.00000  -0.00665  -0.00669  -3.05530
   D53       -3.04925   0.00007   0.00000  -0.00032  -0.00030  -3.04955
   D54       -0.94426  -0.00047   0.00000  -0.01044  -0.01044  -0.95470
   D55        1.10724   0.00005   0.00000  -0.00697  -0.00699   1.10025
   D56        1.17619   0.00010   0.00000   0.00677   0.00680   1.18299
   D57       -3.00200  -0.00044   0.00000  -0.00336  -0.00335  -3.00535
   D58       -0.95050   0.00008   0.00000   0.00012   0.00011  -0.95040
   D59        0.98735  -0.00070   0.00000  -0.01195  -0.01201   0.97535
   D60        3.09692  -0.00069   0.00000  -0.01456  -0.01472   3.08221
   D61       -1.13154   0.00052   0.00000  -0.00224  -0.00222  -1.13376
   D62       -1.11530  -0.00120   0.00000  -0.01341  -0.01341  -1.12871
   D63        0.99427  -0.00119   0.00000  -0.01603  -0.01612   0.97815
   D64        3.04900   0.00002   0.00000  -0.00370  -0.00363   3.04537
   D65        3.11528  -0.00020   0.00000  -0.00221  -0.00222   3.11307
   D66       -1.05833  -0.00019   0.00000  -0.00483  -0.00493  -1.06326
   D67        0.99640   0.00102   0.00000   0.00750   0.00757   1.00396
   D68       -1.05074  -0.00003   0.00000   0.00101   0.00112  -1.04962
   D69       -3.12679   0.00157   0.00000   0.01188   0.01152  -3.11526
   D70        1.08012   0.00180   0.00000   0.01758   0.01746   1.09758
   D71        3.12298  -0.00147   0.00000  -0.00822  -0.00803   3.11494
   D72        1.04693   0.00013   0.00000   0.00265   0.00237   1.04930
   D73       -1.02935   0.00036   0.00000   0.00835   0.00830  -1.02104
   D74        1.06775  -0.00038   0.00000   0.00150   0.00171   1.06946
   D75       -1.00830   0.00122   0.00000   0.01236   0.01211  -0.99619
   D76       -3.08458   0.00145   0.00000   0.01806   0.01805  -3.06653
   D77       -1.17218   0.00322   0.00000   0.00000  -0.00001  -1.17219
   D78        3.06481  -0.00045   0.00000  -0.01971  -0.01949   3.04532
   D79        1.01406  -0.00131   0.00000  -0.03671  -0.03696   0.97710
   D80        0.11610   0.00217   0.00000   0.03580   0.03546   0.15156
   D81       -3.01208   0.00006   0.00000  -0.02219  -0.02196  -3.03405
         Item               Value     Threshold  Converged?
 Maximum Force            0.036768     0.000450     NO 
 RMS     Force            0.006894     0.000300     NO 
 Maximum Displacement     0.281896     0.001800     NO 
 RMS     Displacement     0.054456     0.001200     NO 
 Predicted change in Energy=-1.336902D-02
 GradGradGradGradGradGradGradGradGradGradGradGradGradGradGradGradGradGrad

                          Input orientation:                          
 ---------------------------------------------------------------------
 Center     Atomic      Atomic             Coordinates (Angstroms)
 Number     Number       Type             X           Y           Z
 ---------------------------------------------------------------------
      1          8           0       -3.475586   -1.435390   -0.186695
      2          7           0       -3.130816   -0.253249   -0.039892
      3          8           0       -3.889237    0.706836    0.164572
      4          6           0       -1.687726    0.005093   -0.066102
      5          6           0       -1.321861    1.271955    0.267341
      6          7           0       -0.067763    1.758478    0.360825
      7          6           0        1.192546    1.009185    0.350053
      8          1           0        1.819736    1.518863    1.100390
      9          6           0        1.941510    1.050951   -0.977990
     10          6           0        3.338405    0.448807   -0.787807
     11          6           0        3.265080   -0.962626   -0.193655
     12          6           0        2.427354   -0.994422    1.085149
     13          6           0        1.022337   -0.435185    0.826735
     14          1           0        0.446160   -0.442310    1.765345
     15          7           0        0.388972   -1.320333   -0.144337
     16          6           0       -0.847692   -1.120356   -0.445546
     17          1           0       -2.108269    1.960592    0.567579
     18          1           0        0.057465    2.755178    0.214612
     19          1           0        1.382046    0.483498   -1.730025
     20          1           0        2.014975    2.088940   -1.330211
     21          1           0        3.863342    0.427659   -1.749589
     22          1           0        3.919044    1.097708   -0.117018
     23          1           0        2.809050   -1.640460   -0.923708
     24          1           0        4.274150   -1.338066    0.015065
     25          1           0        2.340853   -2.022189    1.455224
     26          1           0        2.913371   -0.400340    1.870629
     27          1           0       -1.327444   -1.855835   -1.093953
 ---------------------------------------------------------------------
                    Distance matrix (angstroms):
                    1          2          3          4          5
     1  O    0.000000
     2  N    1.240110   0.000000
     3  O    2.209893   1.240473   0.000000
     4  C    2.299125   1.466266   2.322134   0.000000
     5  C    3.489183   2.385992   2.630844   1.360141   0.000000
     6  N    4.702534   3.686450   3.968391   2.425058   1.348409
     7  C    5.296744   4.520758   5.094147   3.078530   2.529453
     8  H    6.198761   5.380389   5.841877   3.994308   3.259535
     9  C    6.012733   5.320663   5.951594   3.885448   3.499898
    10  C    7.095210   6.550044   7.294684   5.097031   4.848607
    11  C    6.757228   6.436951   7.355249   5.048072   5.123076
    12  C    6.054481   5.719117   6.606139   4.388427   4.456668
    13  C    4.717919   4.246507   5.085886   2.887117   2.953391
    14  H    4.491855   4.011157   4.762214   2.847426   2.882468
    15  N    3.866502   3.679468   4.744251   2.464863   3.133112
    16  C    2.659337   2.475698   3.600260   1.454740   2.540905
    17  H    3.737803   2.513108   2.214986   2.098186   1.087566
    18  H    5.495849   4.390961   4.446872   3.269168   2.026147
    19  H    5.446153   4.874963   5.605872   3.524345   3.452862
    20  H    6.623805   5.799133   6.245343   4.432876   3.788683
    21  H    7.731329   7.232216   7.990272   5.816102   5.627360
    22  H    7.816776   7.178548   7.823128   5.712466   5.257869
    23  H    6.331026   6.163400   7.180614   4.864599   5.192802
    24  H    7.752972   7.484207   8.416939   6.111843   6.179903
    25  H    6.072165   5.941689   6.922961   4.759595   5.067339
    26  H    6.791368   6.340656   7.100137   5.008532   4.827453
    27  H    2.369474   2.632770   3.835878   2.156231   3.411192
                    6          7          8          9         10
     6  N    0.000000
     7  C    1.466265   0.000000
     8  H    2.041329   1.102790   0.000000
     9  C    2.515988   1.525250   2.133877   0.000000
    10  C    3.825778   2.492681   2.648898   1.532991   0.000000
    11  C    4.338168   2.911882   3.149819   2.534070   1.533145
    12  C    3.785329   2.465677   2.585737   2.945529   2.533947
    13  C    2.493502   1.530492   2.128154   2.512073   2.958438
    14  H    2.660876   2.160320   2.484971   3.462916   3.959515
    15  N    3.153233   2.513326   3.414304   2.954376   3.499009
    16  C    3.089694   3.054586   4.058395   3.574594   4.483617
    17  H    2.060889   3.442074   3.988513   4.429101   5.812815
    18  H    1.015122   2.086922   2.327805   2.806477   4.133855
    19  H    2.845905   2.153829   3.045456   1.095701   2.171708
    20  H    2.703074   2.159988   2.504182   1.098580   2.176168
    21  H    4.656019   3.446712   3.672796   2.162707   1.095916
    22  H    4.069347   2.767632   2.463036   2.157336   1.099169
    23  H    4.634529   3.355022   3.880340   2.828298   2.159565
    24  H    5.344188   3.888199   3.919709   3.483500   2.170976
    25  H    4.614389   3.424798   3.596737   3.940075   3.483119
    26  H    3.978337   2.694468   2.339369   3.341465   2.822940
    27  H    4.094684   4.079687   5.109645   4.375947   5.212988
                   11         12         13         14         15
    11  C    0.000000
    12  C    1.529096   0.000000
    13  C    2.519779   1.534143   0.000000
    14  H    3.471991   2.166247   1.101372   0.000000
    15  N    2.898687   2.402677   1.458636   2.102637   0.000000
    16  C    4.123497   3.617294   2.363296   2.649876   1.288432
    17  H    6.164216   5.438002   3.950646   3.705899   4.184198
    18  H    4.927225   4.520367   3.388819   3.574883   4.104697
    19  H    2.827989   3.346957   2.740509   3.735053   2.598924
    20  H    3.488062   3.938419   3.465395   4.295449   3.958956
    21  H    2.170654   3.481396   3.931063   4.978830   4.207559
    22  H    2.162988   2.836786   3.410475   4.239796   4.278911
    23  H    1.095628   2.144426   2.776524   3.774894   2.562553
    24  H    1.096696   2.161903   3.471064   4.303413   3.888487
    25  H    2.166950   1.095784   2.156864   2.486374   2.619358
    26  H    2.168210   1.098238   2.160310   2.469813   3.358432
    27  H    4.764413   4.425949   3.350934   3.649563   2.033375
                   16         17         18         19         20
    16  C    0.000000
    17  H    3.479615   0.000000
    18  H    4.034214   2.333744   0.000000
    19  H    3.032155   4.432053   3.270575   0.000000
    20  H    4.390567   4.540840   2.581123   1.771411   0.000000
    21  H    5.127448   6.586296   4.874437   2.482001   2.520356
    22  H    5.267781   6.127132   4.215327   3.068453   2.465737
    23  H    3.724368   6.274675   5.309297   2.682850   3.834609
    24  H    5.147118   7.205670   5.880042   3.837668   4.319492
    25  H    3.820085   6.036981   5.438402   4.164563   4.976568
    26  H    4.475343   5.699896   4.566825   4.011339   4.153193
    27  H    1.091569   4.235032   4.989164   3.635712   5.175794
                   21         22         23         24         25
    21  H    0.000000
    22  H    1.765603   0.000000
    23  H    2.463884   3.062743   0.000000
    24  H    2.529931   2.465064   1.766141   0.000000
    25  H    4.311677   3.833587   2.454434   2.505937   0.000000
    26  H    3.833277   2.684450   3.058938   2.484787   1.769388
    27  H    5.708630   6.099463   4.145594   5.733747   4.470165
                   26         27
    26  H    0.000000
    27  H    5.375102   0.000000
 Symmetry turned off by external request.
 Stoichiometry    C9H13N3O2
 Framework group  C1[X(C9H13N3O2)]
 Deg. of freedom    75
 Full point group                 C1      NOp   1
 Rotational constants (GHZ):           1.6897888           0.4212407           0.3717503
 Standard basis: 6-31G(d) (6D, 7F)
   236 basis functions,   444 primitive gaussians,   236 cartesian basis functions
    52 alpha electrons       52 beta electrons
       nuclear repulsion energy       931.8716250655 Hartrees.
 NAtoms=   27 NActive=   27 NUniq=   27 SFac= 1.00D+00 NAtFMM=   60 NAOKFM=F Big=F
 Integral buffers will be    131072 words long.
 Raffenetti 1 integral format.
 Two-electron integral symmetry is turned off.
 One-electron integrals computed using PRISM.
 NBasis=   236 RedAO= T EigKep=  1.01D-03  NBF=   236
 NBsUse=   236 1.00D-06 EigRej= -1.00D+00 NBFU=   236
 Initial guess from the checkpoint file:  "/home/alexey/tmp/Gau-1582922.chk"
 B after Tr=     0.054020    0.004678    0.000089
         Rot=    1.000000    0.000296   -0.000048    0.000909 Ang=   0.11 deg.
 ExpMin= 1.61D-01 ExpMax= 5.48D+03 ExpMxC= 8.25D+02 IAcc=3 IRadAn=         5 AccDes= 0.00D+00
 Harris functional with IExCor=  205 and IRadAn=       5 diagonalized for initial guess.
 HarFok:  IExCor=  205 AccDes= 0.00D+00 IRadAn=         5 IDoV= 1 UseB2=F ITyADJ=14
 ICtDFT=  3500011 ScaDFX=  1.000000  1.000000  1.000000  1.000000
 FoFCou: FMM=F IPFlag=           0 FMFlag=      100000 FMFlg1=           0
         NFxFlg=           0 DoJE=T BraDBF=F KetDBF=T FulRan=T
         wScrn=  0.000000 ICntrl=       500 IOpCl=  0 I1Cent=   200000004 NGrid=           0
         NMat0=    1 NMatS0=      1 NMatT0=    0 NMatD0=    1 NMtDS0=    0 NMtDT0=    0
 Symmetry not used in FoFCou.
 Keep R1 ints in memory in canonical form, NReq=397720213.
 Requested convergence on RMS density matrix=1.00D-08 within 128 cycles.
 Requested convergence on MAX density matrix=1.00D-06.
 Requested convergence on             energy=1.00D-06.
 No special actions if energy rises.
 SCF Done:  E(RHF) =  -661.295689187     A.U. after   15 cycles
            NFock= 15  Conv=0.40D-08     -V/T= 2.0025
 ExpMin= 1.61D-01 ExpMax= 5.48D+03 ExpMxC= 8.25D+02 IAcc=3 IRadAn=         5 AccDes= 0.00D+00
 HarFok:  IExCor=  205 AccDes= 0.00D+00 IRadAn=         5 IDoV=-2 UseB2=F ITyADJ=14
 ICtDFT= 12500011 ScaDFX=  1.000000  1.000000  1.000000  1.000000
 Range of M.O.s used for correlation:    15   236
 NBasis=   236 NAE=    52 NBE=    52 NFC=    14 NFV=     0
 NROrb=    222 NOA=    38 NOB=    38 NVA=   184 NVB=   184
 Fully direct method using O(ONN) memory.
 JobTyp=1 Pass  1:  I=  15 to  52 NPSUse=  4 ParTrn=T ParDer=T DoDerP=T.
 Spin components of T(2) and E(2):
     alpha-alpha T2 =       0.9125618869D-01 E2=     -0.2723053166D+00
     alpha-beta  T2 =       0.4916695459D+00 E2=     -0.1488347119D+01
     beta-beta   T2 =       0.9125618869D-01 E2=     -0.2723053166D+00
 ANorm=    0.1293901821D+01
 E2 =    -0.2032957752D+01 EUMP2 =    -0.66332864693885D+03
          IDoAtm=111111111111111111111111111
          Differentiating once with respect to electric field.
                with respect to dipole field.
          Differentiating once with respect to nuclear coordinates.
 Keep R1 ints in memory in canonical form, NReq=397723379.
          There are     1 degrees of freedom in the 1st order CPHF.  IDoFFX=0 NUNeed=     1.
 LinEq1:  Iter=  0 NonCon=     1 RMS=4.57D-03 Max=9.94D-02 NDo=     1
 AX will form     1 AO Fock derivatives at one time.
 LinEq1:  Iter=  1 NonCon=     1 RMS=1.53D-03 Max=2.96D-02 NDo=     1
 LinEq1:  Iter=  2 NonCon=     1 RMS=6.43D-04 Max=1.67D-02 NDo=     1
 LinEq1:  Iter=  3 NonCon=     1 RMS=2.81D-04 Max=8.15D-03 NDo=     1
 LinEq1:  Iter=  4 NonCon=     1 RMS=8.76D-05 Max=2.02D-03 NDo=     1
 LinEq1:  Iter=  5 NonCon=     1 RMS=3.67D-05 Max=1.81D-03 NDo=     1
 LinEq1:  Iter=  6 NonCon=     1 RMS=1.43D-05 Max=5.55D-04 NDo=     1
 LinEq1:  Iter=  7 NonCon=     1 RMS=5.48D-06 Max=1.04D-04 NDo=     1
 LinEq1:  Iter=  8 NonCon=     1 RMS=2.19D-06 Max=5.49D-05 NDo=     1
[...]
    26  H    2.175727   1.098838   2.167434   2.498748   3.360859
    27  H    4.718412   4.412558   3.357765   3.655466   2.027737
                   16         17         18         19         20
    16  C    0.000000
    17  H    3.468586   0.000000
    18  H    4.097102   2.227639   0.000000
    19  H    2.994607   4.342275   3.560150   0.000000
    20  H    4.383798   4.494707   2.949637   1.768453   0.000000
    21  H    5.097458   6.539470   5.129292   2.499220   2.521896
    22  H    5.253902   6.109106   4.335141   3.070169   2.462484
    23  H    3.689065   6.234601   5.431732   2.703878   3.843386
    24  H    5.131191   7.191288   5.939066   3.849317   4.317976
    25  H    3.819999   6.046238   5.337313   4.171865   4.985973
    26  H    4.498726   5.741032   4.449813   4.034965   4.181989
    27  H    1.089824   4.242064   5.103362   3.598169   5.166441
                   21         22         23         24         25
    21  H    0.000000
    22  H    1.758793   0.000000
    23  H    2.469577   3.062434   0.000000
    24  H    2.517140   2.460143   1.764480   0.000000
    25  H    4.312129   3.839600   2.444330   2.519550   0.000000
    26  H    3.846309   2.703978   3.060374   2.492533   1.768193
    27  H    5.657142   6.066291   4.080507   5.685545   4.441333
                   26         27
    26  H    0.000000
    27  H    5.374699   0.000000
 Symmetry turned off by external request.
 Stoichiometry    C9H13N3O2
 Framework group  C1[X(C9H13N3O2)]
 Deg. of freedom    75
 Full point group                 C1      NOp   1
 Rotational constants (GHZ):           1.6751972           0.4197251           0.3723204

 **********************************************************************

            Population analysis using the SCF Density.

 **********************************************************************

 Alpha  occ. eigenvalues --  -20.59277 -20.58955 -15.84733 -15.64063 -15.56130
 Alpha  occ. eigenvalues --  -11.34995 -11.29628 -11.29585 -11.28681 -11.27151
 Alpha  occ. eigenvalues --  -11.23683 -11.23188 -11.22686 -11.22086  -1.57144
 Alpha  occ. eigenvalues --   -1.36748  -1.30904  -1.23056  -1.14702  -1.09819
 Alpha  occ. eigenvalues --   -1.02794  -1.01291  -0.94496  -0.89712  -0.85494
 Alpha  occ. eigenvalues --   -0.82476  -0.78604  -0.77430  -0.75189  -0.72004
 Alpha  occ. eigenvalues --   -0.69858  -0.69386  -0.67782  -0.64882  -0.63838
 Alpha  occ. eigenvalues --   -0.62151  -0.60392  -0.57792  -0.56956  -0.55072
 Alpha  occ. eigenvalues --   -0.54529  -0.50719  -0.50162  -0.48697  -0.48121
 Alpha  occ. eigenvalues --   -0.47391  -0.46116  -0.46040  -0.43684  -0.41776
 Alpha  occ. eigenvalues --   -0.39685  -0.33871
 Alpha virt. eigenvalues --    0.07372   0.11647   0.17244   0.21854   0.24294
 Alpha virt. eigenvalues --    0.26029   0.26885   0.28694   0.29122   0.29582
 Alpha virt. eigenvalues --    0.30588   0.31811   0.31949   0.32775   0.34030
 Alpha virt. eigenvalues --    0.34410   0.35869   0.37324   0.38608   0.40357
 Alpha virt. eigenvalues --    0.41296   0.42333   0.44952   0.46110   0.46753
 Alpha virt. eigenvalues --    0.47069   0.48995   0.53895   0.57785   0.59681
 Alpha virt. eigenvalues --    0.63841   0.69721   0.69819   0.72860   0.74311
 Alpha virt. eigenvalues --    0.74799   0.75741   0.76565   0.78623   0.79613
 Alpha virt. eigenvalues --    0.81460   0.84172   0.85641   0.85993   0.88605
 Alpha virt. eigenvalues --    0.89483   0.91119   0.92157   0.92910   0.94502
 Alpha virt. eigenvalues --    0.95545   0.97895   1.00010   1.01953   1.02422
 Alpha virt. eigenvalues --    1.03192   1.05870   1.07060   1.07947   1.09011
 Alpha virt. eigenvalues --    1.10353   1.10983   1.11906   1.12319   1.13913
 Alpha virt. eigenvalues --    1.14556   1.15023   1.15505   1.16978   1.18737
 Alpha virt. eigenvalues --    1.19123   1.21294   1.22402   1.23568   1.24130
 Alpha virt. eigenvalues --    1.24960   1.26543   1.27199   1.27580   1.29461
 Alpha virt. eigenvalues --    1.29895   1.33527   1.35604   1.37050   1.40724
 Alpha virt. eigenvalues --    1.42464   1.48813   1.48918   1.50930   1.54297
 Alpha virt. eigenvalues --    1.55045   1.58270   1.62009   1.63882   1.64423
 Alpha virt. eigenvalues --    1.67703   1.68234   1.72451   1.75724   1.77746
 Alpha virt. eigenvalues --    1.81664   1.84417   1.87508   1.90378   1.93000
 Alpha virt. eigenvalues --    1.95574   1.96303   1.99641   2.01260   2.03042
 Alpha virt. eigenvalues --    2.04661   2.06227   2.08276   2.09689   2.12468
 Alpha virt. eigenvalues --    2.12851   2.15469   2.17919   2.19957   2.21862
 Alpha virt. eigenvalues --    2.22899   2.24332   2.25134   2.28293   2.29330
 Alpha virt. eigenvalues --    2.32169   2.33810   2.34713   2.36700   2.38174
 Alpha virt. eigenvalues --    2.39839   2.42292   2.44207   2.45723   2.47286
 Alpha virt. eigenvalues --    2.50733   2.52365   2.53466   2.55563   2.60935
 Alpha virt. eigenvalues --    2.62427   2.65487   2.67556   2.69786   2.70443
 Alpha virt. eigenvalues --    2.72225   2.72585   2.77563   2.78203   2.83378
 Alpha virt. eigenvalues --    2.88299   2.88855   2.92972   2.93169   2.96115
 Alpha virt. eigenvalues --    2.99566   3.01204   3.04256   3.05901   3.07668
 Alpha virt. eigenvalues --    3.09438   3.15059   3.21309   3.24773   3.27472
 Alpha virt. eigenvalues --    3.32732   3.37336   3.38536   3.52239   3.66232
 Alpha virt. eigenvalues --    4.13141   4.27650   4.34706   4.39197   4.45883
 Alpha virt. eigenvalues --    4.55997   4.61606   4.62163   4.73576   4.79318
 Alpha virt. eigenvalues --    4.99603   5.00927   5.05709   5.10623
          Condensed to atoms (all electrons):
               1          2          3          4          5          6
     1  O    8.316453   0.307001  -0.082819  -0.085753   0.004507  -0.000016
     2  N    0.307001   5.721365   0.302520   0.264049  -0.054483   0.000955
     3  O   -0.082819   0.302520   8.351995  -0.093332   0.004685   0.000760
     4  C   -0.085753   0.264049  -0.093332   5.219600   0.563367  -0.048174
     5  C    0.004507  -0.054483   0.004685   0.563367   4.709592   0.319662
     6  N   -0.000016   0.000955   0.000760  -0.048174   0.319662   7.190294
     7  C    0.000004  -0.000148   0.000001   0.004208  -0.031393   0.169936
     8  H   -0.000000   0.000003  -0.000000  -0.000210   0.002868  -0.049742
     9  C   -0.000000  -0.000005   0.000000   0.000713   0.001104  -0.060994
    10  C    0.000000   0.000000   0.000000  -0.000031  -0.000068   0.003700
    11  C   -0.000000  -0.000000  -0.000000  -0.000032   0.000026  -0.000199
    12  C   -0.000000   0.000002  -0.000000  -0.000160  -0.000134   0.004013
    13  C   -0.000023  -0.000032  -0.000003  -0.010746  -0.000744  -0.049459
    14  H   -0.000004  -0.000082   0.000001   0.002607   0.006464  -0.007110
    15  N    0.000383   0.002415  -0.000017  -0.062988  -0.006952   0.001519
    16  C    0.001490  -0.027570   0.002489   0.329954  -0.050965  -0.001124
    17  H    0.000202  -0.006781   0.016420  -0.023108   0.374932  -0.034061
    18  H    0.000001  -0.000052   0.000012   0.001600  -0.031567   0.339068
    19  H    0.000001  -0.000003   0.000000  -0.001144   0.001150  -0.000503
    20  H    0.000000  -0.000000   0.000000  -0.000090   0.000156  -0.000265
    21  H   -0.000000   0.000000  -0.000000   0.000001   0.000001  -0.000075
    22  H   -0.000000   0.000000  -0.000000  -0.000000  -0.000003  -0.000117
    23  H    0.000000  -0.000000   0.000000   0.000042   0.000001  -0.000031
    24  H    0.000000   0.000000   0.000000   0.000000  -0.000000   0.000006
    25  H    0.000000  -0.000000   0.000000   0.000029  -0.000003  -0.000093
    26  H    0.000000  -0.000000   0.000000   0.000005  -0.000001  -0.000060
    27  H    0.005696  -0.000907   0.000001  -0.063518   0.002460  -0.000001
               7          8          9         10         11         12
     1  O    0.000004  -0.000000  -0.000000   0.000000  -0.000000  -0.000000
     2  N   -0.000148   0.000003  -0.000005   0.000000  -0.000000   0.000002
     3  O    0.000001  -0.000000   0.000000   0.000000  -0.000000  -0.000000
     4  C    0.004208  -0.000210   0.000713  -0.000031  -0.000032  -0.000160
     5  C   -0.031393   0.002868   0.001104  -0.000068   0.000026  -0.000134
     6  N    0.169936  -0.049742  -0.060994   0.003700  -0.000199   0.004013
     7  C    5.022490   0.417646   0.350093  -0.054865  -0.008939  -0.061622
     8  H    0.417646   0.537058  -0.053719   0.000561  -0.000296  -0.002141
     9  C    0.350093  -0.053719   5.154726   0.325120  -0.050469  -0.005146
    10  C   -0.054865   0.000561   0.325120   5.120068   0.336802  -0.061098
    11  C   -0.008939  -0.000296  -0.050469   0.336802   5.120440   0.335989
    12  C   -0.061622  -0.002141  -0.005146  -0.061098   0.335989   5.120301
    13  C    0.337959  -0.037797  -0.060936  -0.000131  -0.050635   0.372101
    14  H   -0.046838  -0.000647   0.004398  -0.000399   0.004200  -0.036643
    15  N   -0.058292   0.003900  -0.014425   0.001572  -0.013219  -0.082962
    16  C   -0.001051  -0.000058  -0.000968  -0.000050   0.000045   0.002470
    17  H    0.001703  -0.000057  -0.000055   0.000001   0.000000   0.000000
    18  H   -0.021748  -0.004775   0.001600  -0.000085   0.000003  -0.000118
    19  H   -0.036828   0.004341   0.390785  -0.032430  -0.002198   0.000685
    20  H   -0.041933  -0.002042   0.399415  -0.035197   0.003912  -0.000419
    21  H    0.004607  -0.000072  -0.036370   0.402493  -0.034888   0.004348
    22  H   -0.004880   0.003554  -0.046899   0.397617  -0.045428  -0.001022
    23  H    0.000605   0.000036  -0.001972  -0.039025   0.399151  -0.037961
    24  H   -0.000129  -0.000102   0.004373  -0.038368   0.402335  -0.038647
    25  H    0.005135  -0.000028  -0.000429   0.004189  -0.033329   0.398008
    26  H   -0.003859   0.001670   0.000961  -0.002236  -0.041495   0.396506
    27  H   -0.000399   0.000008  -0.000050   0.000006   0.000013  -0.000034
              13         14         15         16         17         18
     1  O   -0.000023  -0.000004   0.000383   0.001490   0.000202   0.000001
     2  N   -0.000032  -0.000082   0.002415  -0.027570  -0.006781  -0.000052
     3  O   -0.000003   0.000001  -0.000017   0.002489   0.016420   0.000012
     4  C   -0.010746   0.002607  -0.062988   0.329954  -0.023108   0.001600
     5  C   -0.000744   0.006464  -0.006952  -0.050965   0.374932  -0.031567
     6  N   -0.049459  -0.007110   0.001519  -0.001124  -0.034061   0.339068
     7  C    0.337959  -0.046838  -0.058292  -0.001051   0.001703  -0.021748
     8  H   -0.037797  -0.000647   0.003900  -0.000058  -0.000057  -0.004775
     9  C   -0.060936   0.004398  -0.014425  -0.000968  -0.000055   0.001600
    10  C   -0.000131  -0.000399   0.001572  -0.000050   0.000001  -0.000085
    11  C   -0.050635   0.004200  -0.013219   0.000045   0.000000   0.000003
    12  C    0.372101  -0.036643  -0.082962   0.002470   0.000000  -0.000118
    13  C    5.040340   0.403447   0.244825  -0.069801  -0.000043   0.002911
    14  H    0.403447   0.528728  -0.037177  -0.005102   0.000076  -0.000096
    15  N    0.244825  -0.037177   6.966175   0.586210  -0.000073  -0.000125
    16  C   -0.069801  -0.005102   0.586210   4.702011   0.001916  -0.000177
    17  H   -0.000043   0.000076  -0.000073   0.001916   0.378550  -0.002910
    18  H    0.002911  -0.000096  -0.000125  -0.000177  -0.002910   0.311859
    19  H   -0.007664   0.000109   0.007709   0.002752   0.000013  -0.000145
    20  H    0.004342  -0.000067   0.000132  -0.000038   0.000000   0.000575
    21  H   -0.000432   0.000010  -0.000040   0.000004  -0.000000   0.000002
    22  H    0.000032  -0.000055   0.000021  -0.000002   0.000000   0.000000
    23  H   -0.007648   0.000002   0.008673   0.000137   0.000000   0.000000
    24  H    0.004700  -0.000057   0.000130   0.000006   0.000000  -0.000000
    25  H   -0.035432  -0.002790   0.000531  -0.000031  -0.000000   0.000002
    26  H   -0.047517  -0.001040   0.004953  -0.000051   0.000000   0.000000
    27  H    0.005027  -0.000163  -0.040943   0.403963  -0.000075   0.000001
              19         20         21         22         23         24
     1  O    0.000001   0.000000  -0.000000  -0.000000   0.000000   0.000000
     2  N   -0.000003  -0.000000   0.000000   0.000000  -0.000000   0.000000
     3  O    0.000000   0.000000  -0.000000  -0.000000   0.000000   0.000000
     4  C   -0.001144  -0.000090   0.000001  -0.000000   0.000042   0.000000
     5  C    0.001150   0.000156   0.000001  -0.000003   0.000001  -0.000000
     6  N   -0.000503  -0.000265  -0.000075  -0.000117  -0.000031   0.000006
     7  C   -0.036828  -0.041933   0.004607  -0.004880   0.000605  -0.000129
     8  H    0.004341  -0.002042  -0.000072   0.003554   0.000036  -0.000102
     9  C    0.390785   0.399415  -0.036370  -0.046899  -0.001972   0.004373
    10  C   -0.032430  -0.035197   0.402493   0.397617  -0.039025  -0.038368
    11  C   -0.002198   0.003912  -0.034888  -0.045428   0.399151   0.402335
    12  C    0.000685  -0.000419   0.004348  -0.001022  -0.037961  -0.038647
    13  C   -0.007664   0.004342  -0.000432   0.000032  -0.007648   0.004700
    14  H    0.000109  -0.000067   0.000010  -0.000055   0.000002  -0.000057
    15  N    0.007709   0.000132  -0.000040   0.000021   0.008673   0.000130
    16  C    0.002752  -0.000038   0.000004  -0.000002   0.000137   0.000006
    17  H    0.000013   0.000000  -0.000000   0.000000   0.000000   0.000000
    18  H   -0.000145   0.000575   0.000002   0.000000   0.000000  -0.000000
    19  H    0.505230  -0.024521  -0.002776   0.003966   0.001525  -0.000067
    20  H   -0.024521   0.538334  -0.002681  -0.002977  -0.000045  -0.000082
    21  H   -0.002776  -0.002681   0.523847  -0.027397  -0.002904  -0.002242
    22  H    0.003966  -0.002977  -0.027397   0.571605   0.004140  -0.003647
    23  H    0.001525  -0.000045  -0.002904   0.004140   0.499120  -0.025441
    24  H   -0.000067  -0.000082  -0.002242  -0.003647  -0.025441   0.537939
    25  H   -0.000028   0.000013  -0.000087  -0.000081  -0.002301  -0.002292
    26  H    0.000019  -0.000030  -0.000081   0.002384   0.004077  -0.003022
    27  H    0.000073   0.000000  -0.000000   0.000000  -0.000036  -0.000000
              25         26         27
     1  O    0.000000   0.000000   0.005696
     2  N   -0.000000  -0.000000  -0.000907
     3  O    0.000000   0.000000   0.000001
     4  C    0.000029   0.000005  -0.063518
     5  C   -0.000003  -0.000001   0.002460
     6  N   -0.000093  -0.000060  -0.000001
     7  C    0.005135  -0.003859  -0.000399
     8  H   -0.000028   0.001670   0.000008
     9  C   -0.000429   0.000961  -0.000050
    10  C    0.004189  -0.002236   0.000006
    11  C   -0.033329  -0.041495   0.000013
    12  C    0.398008   0.396506  -0.000034
    13  C   -0.035432  -0.047517   0.005027
    14  H   -0.002790  -0.001040  -0.000163
    15  N    0.000531   0.004953  -0.040943
    16  C   -0.000031  -0.000051   0.403963
    17  H   -0.000000   0.000000  -0.000075
    18  H    0.000002   0.000000   0.000001
    19  H   -0.000028   0.000019   0.000073
    20  H    0.000013  -0.000030   0.000000
    21  H   -0.000087  -0.000081  -0.000000
    22  H   -0.000081   0.002384   0.000000
    23  H   -0.002301   0.004077  -0.000036
    24  H   -0.002292  -0.003022  -0.000000
    25  H    0.506020  -0.024081  -0.000014
    26  H   -0.024081   0.563117   0.000001
    27  H   -0.000014   0.000001   0.442276
 Mulliken charges:
               1
     1  O   -0.467122
     2  N    0.491755
     3  O   -0.502711
     4  C    0.003111
     5  C    0.185342
     6  N   -0.777889
     7  C    0.058539
     8  H    0.180042
     9  C   -0.300851
    10  C   -0.328147
    11  C   -0.321788
    12  C   -0.306315
    13  C   -0.036641
    14  H    0.188226
    15  N   -0.511933
    16  C    0.123539
    17  H    0.293349
    18  H    0.404164
    19  H    0.189950
    20  H    0.163507
    21  H    0.174735
    22  H    0.149187
    23  H    0.199854
    24  H    0.164608
    25  H    0.187093
    26  H    0.149780
    27  H    0.246616
 Sum of Mulliken charges =  -0.00000
 Mulliken charges with hydrogens summed into heavy atoms:
               1
     1  O   -0.467122
     2  N    0.491755
     3  O   -0.502711
     4  C    0.003111
     5  C    0.478691
     6  N   -0.373725
     7  C    0.238581
     9  C    0.052606
    10  C   -0.004225
    11  C    0.042674
    12  C    0.030559
    13  C    0.151585
    15  N   -0.511933
    16  C    0.370155
 Electronic spatial extent (au):  <R**2>=           3004.4650
 Charge=              0.0000 electrons
 Dipole moment (field-independent basis, Debye):
    X=              5.3875    Y=              4.6966    Z=              1.5611  Tot=              7.3157
 Quadrupole moment (field-independent basis, Debye-Ang):
   XX=           -105.9909   YY=            -79.6624   ZZ=            -81.1450
   XY=             -1.5881   XZ=             -0.7699   YZ=              2.7393
 Traceless Quadrupole moment (field-independent basis, Debye-Ang):
   XX=            -17.0582   YY=              9.2704   ZZ=              7.7878
   XY=             -1.5881   XZ=             -0.7699   YZ=              2.7393
 Octapole moment (field-independent basis, Debye-Ang**2):
  XXX=             91.5330  YYY=             34.0136  ZZZ=              1.3190  XYY=             -4.0857
  XXY=              8.9374  XXZ=              7.6303  XZZ=            -10.2675  YZZ=              0.0547
  YYZ=             10.0607  XYZ=             -1.1279
 Hexadecapole moment (field-independent basis, Debye-Ang**3):
 XXXX=          -3375.4431 YYYY=           -606.8341 ZZZZ=           -304.6700 XXXY=            -18.1574
 XXXZ=            -28.1423 YYYX=             -6.4232 YYYZ=             30.2156 ZZZX=             -5.7000
 ZZZY=              9.1988 XXYY=           -629.0218 XXZZ=           -522.0800 YYZZ=           -155.8150
 XXYZ=              0.6594 YYXZ=             -1.7695 ZZXY=              4.8514
 N-N= 9.311142492998D+02 E-N=-3.408942698648D+03  KE= 6.596276003233D+02
 Unable to Open any file for archive entry.
 1\1\GINC-LOTUS\FOpt\RMP2-FC\6-31G(d)\C9H13N3O2\ALEXEY\02-Jul-2023\0\\#
 MP2/6-31G* SCF=Tight Opt=(ModRedun, MaxCycle=20 ) NoSymm\\MolName:\\0,
 1\O,-3.5072381497,-1.3928037646,-0.3424312647\N,-3.1188011974,-0.22283
 08925,-0.1579572575\O,-3.8894547426,0.7502130357,-0.0462209964\C,-1.68
 32446004,-0.0112156466,-0.0658541198\C,-1.2997995207,1.2597258201,0.27
 53477755\N,-0.0561236839,1.7552087982,0.3825938617\C,1.2092393699,1.03
 12783318,0.3540459259\H,1.8577799002,1.5641811094,1.0652054398\C,1.908
 5069913,1.0335195472,-1.0035167779\C,3.3057275553,0.4238594183,-0.8401
 386353\C,3.2561558656,-0.9688933193,-0.2061521199\C,2.4649715613,-0.97
 09952379,1.1036925472\C,1.055723937,-0.4158335924,0.8663548755\H,0.480
 0161982,-0.3877663831,1.8048509952\N,0.4069579465,-1.3157739341,-0.079
 9592061\C,-0.8408966238,-1.1466492208,-0.3806671582\H,-2.0938639546,1.
 9596709048,0.5204098484\H,-0.0064044542,2.717155213,0.6967761766\H,1.3
 10689,0.4531337596,-1.7144764843\H,1.9748653209,2.0590636622,-1.386932
 8078\H,3.8068407668,0.3793151783,-1.813861921\H,3.9091305358,1.0919466
 953,-0.2091671533\H,2.7744587139,-1.6681454239,-0.8968536725\H,4.27489
 01439,-1.3342823286,-0.0304647149\H,2.378935106,-1.9905081061,1.493625
 9701\H,2.9779291444,-0.369238155,1.8667182217\H,-1.2969911299,-1.92035
 54692,-0.9979773482\\Version=ES64L-G16RevC.02\HF=-661.2993372\MP2=-663
 .3338989\RMSD=8.589e-09\RMSF=1.115e-03\Dipole=1.9696459,1.6579653,0.56
 57772\PG=C01 [X(C9H13N3O2)]\\@
 The archive entry for this job was punched.


 SUPPORT THE RIGHT TO ARM BEARS!
 (ADD A CLAWS TO THE BILL OF RIGHTS)
 Job cpu time:       0 days  1 hours 21 minutes 54.9 seconds.
 Elapsed time:       0 days  0 hours 24 minutes 38.3 seconds.
 File lengths (MBytes):  RWF=     36 Int=      0 D2E=      0 Chk=      7 Scr=      1
 Normal termination of Gaussian 16 at Sun Jul  2 21:50:26 2023.
