 Entering Gaussian System, Link 0=g16
 Initial command:
 /home/alexey/programs//g16/l1.exe "/home/alexey/tmp/Gau-1585978.inp" -scrdir="/home/alexey/tmp/"
 Entering Link 1 = /home/alexey/programs//g16/l1.exe PID=   1585980.
  
 Copyright (c) 1988-2021, Gaussian, Inc.  All Rights Reserved.
  
 This is part of the Gaussian(R) 16 program.  It is based on
 the Gaussian(R) 09 system (copyright 2009, Gaussian, Inc.),
 the Gaussian(R) 03 system (copyright 2003, Gaussian, Inc.),
 the Gaussian(R) 98 system (copyright 1998, Gaussian, Inc.),
 the Gaussian(R) 94 system (copyright 1995, Gaussian, Inc.),
 the Gaussian 92(TM) system (copyright 1992, Gaussian, Inc.),
 the Gaussian 90(TM) system (copyright 1990, Gaussian, Inc.),
 the Gaussian 88(TM) system (copyright 1988, Gaussian, Inc.),
 the Gaussian 86(TM) system (copyright 1986, Carnegie Mellon
 University), and the Gaussian 82(TM) system (copyright 1983,
 Carnegie Mellon University). Gaussian is a federally registered
 trademark of Gaussian, Inc.
  
 This software contains proprietary and confidential information,
 including trade secrets, belonging to Gaussian, Inc.
  
 This software is provided under written license and may be
 used, copied, transmitted, or stored only in accord with that
 written license.
  
 The following legend is applicable only to US Government
 contracts under FAR:
  
                    RESTRICTED RIGHTS LEGEND
  
 Use, reproduction and disclosure by the US Government is
 subject to restrictions as set forth in subparagraphs (a)
 and (c) of the Commercial Computer Software - Restricted
 Rights clause in FAR 52.227-19.
  
 Gaussian, Inc.
 340 Quinnipiac St., Bldg. 40, Wallingford CT 06492
  
  
 ---------------------------------------------------------------
 Warning -- This program may not be used in any manner that
 competes with the business of Gaussian, Inc. or will provide
 assistance to any competitor of Gaussian, Inc.  The licensee
 of this program is prohibited from giving any competitor of
 Gaussian, Inc. access to this program.  By using this program,
 the user acknowledges that Gaussian, Inc. is engaged in the
 business of creating and licensing software in the field of
 computational chemistry and represents and warrants to the
 licensee that it is not a competitor of Gaussian, Inc. and that
 it will not use this program in any manner prohibited above.
 ---------------------------------------------------------------
  

 Cite this work as:
 Gaussian 16, Revision C.02,
 M. J. Frisch, G. W. Trucks, H. B. Schlegel, G. E. Scuseria, 
 M. A. Robb, J. R. Cheeseman, G. Scalmani, V. Barone, 
 G. A. Petersson, H. Nakatsuji, X. Li, M. Caricato, A. V. Marenich, 
 J. Bloino, B. G. Janesko, R. Gomperts, B. Mennucci, H. P. Hratchian, 
 J. V. Ortiz, A. F. Izmaylov, J. L. Sonnenberg, D. Williams-Young, 
 F. Ding, F. Lipparini, F. Egidi, J. Goings, B. Peng, A. Petrone, 
 T. Henderson, D. Ranasinghe, V. G. Zakrzewski, J. Gao, N. Rega, 
 G. Zheng, W. Liang, M. Hada, M. Ehara, K. Toyota, R. Fukuda, 
 J. Hasegawa, M. Ishida, T. Nakajima, Y. Honda, O. Kitao, H. Nakai, 
 T. Vreven, K. Throssell, J. A. Montgomery, Jr., J. E. Peralta, 
 F. Ogliaro, M. J. Bearpark, J. J. Heyd, E. N. Brothers, K. N. Kudin, 
 V. N. Staroverov, T. A. Keith, R. Kobayashi, J. Normand, 
 K. Raghavachari, A. P. Rendell, J. C. Burant, S. S. Iyengar, 
 J. Tomasi, M. Cossi, J. M. Millam, M. Klene, C. Adamo, R. Cammi, 
 J. W. Ochterski, R. L. Martin, K. Morokuma, O. Farkas, 
 J. B. Foresman, and D. J. Fox, Gaussian, Inc., Wallingford CT, 2019.
 
 ******************************************
 Gaussian 16:  ES64L-G16RevC.02  7-Dec-2021
                 2-Jul-2023 
 ******************************************
 %mem=8GB
 %NPROCS=4
 Will use up to    4 processors via shared memory.
 %NoSave
 ---------------------------------------------------------
 #MP2/6-31G* SCF=Tight Opt=(ModRedun, MaxCycle=20 ) NoSymm
 ---------------------------------------------------------
 1/6=20,18=120,19=15,38=1/1,3;
 2/9=110,12=2,15=1,17=6,18=5,40=1/2;
 3/5=1,6=6,7=1,11=9,25=1,30=1,71=1/1,2,3;
 4//1;
 5/5=2,32=2,38=5/2;
 8/6=4,10=2/1;
 9/15=2,16=-3/6;
 10/5=1,31=1/2;
 6/7=2,8=2,9=2,10=2/1;
 7/12=2,30=1/1,2,3,16;
 1/6=20,18=20,19=15/3(2);
 2/9=110,15=1/2;
 99//99;
 2/9=110,15=1/2;
 3/5=1,6=6,7=1,11=9,25=1,30=1,71=1/1,2,3;
 4/5=5,16=3,69=1/1;
 5/5=2,32=2,38=5/2;
 8/6=4,10=2/1;
 9/15=2,16=-3/6;
 10/5=1,31=1/2;
 7/12=2,30=1/1,2,3,16;
 1/6=20,18=20,19=15/3(-8);
 2/9=110,15=1/2;
 6/7=2,8=2,9=2,10=2/1;
 99/9=10/99;
 --------
 MolName:
 --------
 Symbolic Z-matrix:
 Charge =  0 Multiplicity = 1
 8                    0    -3.61691  -1.43896  -0.19562 
 7                    0    -3.2576   -0.27417  -0.03302 
 8                    0    -4.03615   0.66904   0.1121 
 6                    0    -1.76053   0.0173   -0.06519 
 6                    0    -1.36814   1.29466   0.35012 
 7                    0    -0.08524   1.7768    0.33004 
 6                    0     1.19413   1.00372   0.32826 
 1                    0     1.84522   1.50797   1.08893 
 6                    0     1.98257   1.04249  -1.00416 
 6                    0     3.38922   0.45379  -0.78526 
 6                    0     3.31246  -0.95743  -0.18146 
 6                    0     2.44115  -0.97929   1.09318 
 6                    0     1.00989  -0.4404    0.82088 
 1                    0     0.4492   -0.47112   1.78447 
 7                    0     0.36617  -1.31443  -0.16346 
 6                    0    -0.87044  -1.10141  -0.47885 
 1                    0    -2.1198    1.94441   0.82835 
 1                    0     0.12438   2.74372   0.06999 
 1                    0     1.44547   0.46101  -1.78352 
 1                    0     2.07843   2.08945  -1.36244 
 1                    0     3.94123   0.42095  -1.75003 
 1                    0     3.95575   1.11122  -0.08846 
 1                    0     2.87593  -1.65083  -0.93542 
 1                    0     4.33522  -1.32294   0.0563 
 1                    0     2.37322  -2.0228    1.47162 
 1                    0     2.9243   -0.36443   1.88131 
 1                    0    -1.36714  -1.83632  -1.13066 
 
 The following ModRedundant input section has been read:
 D      16       4       5      17 F                                           
 D       1       2       4      16 F                                           
 D       7      13      15      16 F                                           
 D       7       9      10      11 F                                           
 D       9      10      11      12 F                                           
 D       6       7      13      15 F                                           
 

 GradGradGradGradGradGradGradGradGradGradGradGradGradGradGradGradGradGrad
 Berny optimization.
 Initialization pass.
                           ----------------------------
                           !    Initial Parameters    !
                           ! (Angstroms and Degrees)  !
 --------------------------                            --------------------------
 ! Name  Definition              Value          Derivative Info.                !
 --------------------------------------------------------------------------------
 ! R1    R(1,2)                  1.2297         estimate D2E/DX2                !
 ! R2    R(2,3)                  1.2316         estimate D2E/DX2                !
 ! R3    R(2,4)                  1.5255         estimate D2E/DX2                !
 ! R4    R(4,5)                  1.3993         estimate D2E/DX2                !
 ! R5    R(4,16)                 1.4882         estimate D2E/DX2                !
 ! R6    R(5,6)                  1.3707         estimate D2E/DX2                !
 ! R7    R(5,17)                 1.1027         estimate D2E/DX2                !
 ! R8    R(6,7)                  1.4948         estimate D2E/DX2                !
 ! R9    R(6,18)                 1.023          estimate D2E/DX2                !
 ! R10   R(7,8)                  1.1211         estimate D2E/DX2                !
 ! R11   R(7,9)                  1.5487         estimate D2E/DX2                !
 ! R12   R(7,13)                 1.5369         estimate D2E/DX2                !
 ! R13   R(9,10)                 1.5405         estimate D2E/DX2                !
 ! R14   R(9,19)                 1.1109         estimate D2E/DX2                !
 ! R15   R(9,20)                 1.1107         estimate D2E/DX2                !
 ! R16   R(10,11)                1.5369         estimate D2E/DX2                !
 ! R17   R(10,21)                1.112          estimate D2E/DX2                !
 ! R18   R(10,22)                1.113          estimate D2E/DX2                !
 ! R19   R(11,12)                1.5441         estimate D2E/DX2                !
 ! R20   R(11,23)                1.1135         estimate D2E/DX2                !
 ! R21   R(11,24)                1.1118         estimate D2E/DX2                !
 ! R22   R(12,13)                1.5534         estimate D2E/DX2                !
 ! R23   R(12,25)                1.1121         estimate D2E/DX2                !
 ! R24   R(12,26)                1.1102         estimate D2E/DX2                !
 ! R25   R(13,14)                1.1153         estimate D2E/DX2                !
 ! R26   R(13,15)                1.4653         estimate D2E/DX2                !
 ! R27   R(15,16)                1.2939         estimate D2E/DX2                !
 ! R28   R(16,27)                1.1008         estimate D2E/DX2                !
 ! A1    A(1,2,3)              123.7979         estimate D2E/DX2                !
 ! A2    A(1,2,4)              117.7048         estimate D2E/DX2                !
 ! A3    A(3,2,4)              118.4581         estimate D2E/DX2                !
 ! A4    A(2,4,5)              116.317          estimate D2E/DX2                !
 ! A5    A(2,4,16)             116.6902         estimate D2E/DX2                !
 ! A6    A(5,4,16)             126.9389         estimate D2E/DX2                !
 ! A7    A(4,5,6)              125.3953         estimate D2E/DX2                !
 ! A8    A(4,5,17)             118.3896         estimate D2E/DX2                !
 ! A9    A(6,5,17)             115.9196         estimate D2E/DX2                !
 ! A10   A(5,6,7)              128.256          estimate D2E/DX2                !
 ! A11   A(5,6,18)             121.8701         estimate D2E/DX2                !
 ! A12   A(7,6,18)             108.2493         estimate D2E/DX2                !
 ! A13   A(6,7,8)              105.2862         estimate D2E/DX2                !
 ! A14   A(6,7,9)              115.0748         estimate D2E/DX2                !
 ! A15   A(6,7,13)             112.5178         estimate D2E/DX2                !
 ! A16   A(8,7,9)              106.0712         estimate D2E/DX2                !
 ! A17   A(8,7,13)             105.9485         estimate D2E/DX2                !
 ! A18   A(9,7,13)             111.1195         estimate D2E/DX2                !
 ! A19   A(7,9,10)             109.4536         estimate D2E/DX2                !
 ! A20   A(7,9,19)             110.1423         estimate D2E/DX2                !
 ! A21   A(7,9,20)             110.1851         estimate D2E/DX2                !
 ! A22   A(10,9,19)            109.9468         estimate D2E/DX2                !
 ! A23   A(10,9,20)            109.1016         estimate D2E/DX2                !
 ! A24   A(19,9,20)            107.9886         estimate D2E/DX2                !
 ! A25   A(9,10,11)            111.1691         estimate D2E/DX2                !
 ! A26   A(9,10,21)            109.9547         estimate D2E/DX2                !
 ! A27   A(9,10,22)            109.149          estimate D2E/DX2                !
 ! A28   A(11,10,21)           109.7872         estimate D2E/DX2                !
 ! A29   A(11,10,22)           108.7753         estimate D2E/DX2                !
 ! A30   A(21,10,22)           107.9348         estimate D2E/DX2                !
 ! A31   A(10,11,12)           111.4375         estimate D2E/DX2                !
 ! A32   A(10,11,23)           108.9883         estimate D2E/DX2                !
 ! A33   A(10,11,24)           109.873          estimate D2E/DX2                !
 ! A34   A(12,11,23)           109.2028         estimate D2E/DX2                !
 ! A35   A(12,11,24)           109.7482         estimate D2E/DX2                !
 ! A36   A(23,11,24)           107.5006         estimate D2E/DX2                !
 ! A37   A(11,12,13)           111.7336         estimate D2E/DX2                !
 ! A38   A(11,12,25)           109.1872         estimate D2E/DX2                !
 ! A39   A(11,12,26)           109.4256         estimate D2E/DX2                !
 ! A40   A(13,12,25)           109.2013         estimate D2E/DX2                !
 ! A41   A(13,12,26)           109.4676         estimate D2E/DX2                !
 ! A42   A(25,12,26)           107.7383         estimate D2E/DX2                !
 ! A43   A(7,13,12)            105.7654         estimate D2E/DX2                !
 ! A44   A(7,13,14)            111.2896         estimate D2E/DX2                !
 ! A45   A(7,13,15)            113.441          estimate D2E/DX2                !
 ! A46   A(12,13,14)           107.5899         estimate D2E/DX2                !
 ! A47   A(12,13,15)           108.3963         estimate D2E/DX2                !
 ! A48   A(14,13,15)           110.0663         estimate D2E/DX2                !
 ! A49   A(13,15,16)           119.039          estimate D2E/DX2                !
 ! A50   A(4,16,15)            128.8751         estimate D2E/DX2                !
 ! A51   A(4,16,27)            113.3644         estimate D2E/DX2                !
 ! A52   A(15,16,27)           117.7552         estimate D2E/DX2                !
 ! D1    D(1,2,4,5)           -169.2577         estimate D2E/DX2                !
 ! D2    D(1,2,4,16)             8.2583         Frozen                          !
 ! D3    D(3,2,4,5)             12.932          estimate D2E/DX2                !
 ! D4    D(3,2,4,16)          -169.552          estimate D2E/DX2                !
 ! D5    D(2,4,5,6)           -176.408          estimate D2E/DX2                !
 ! D6    D(2,4,5,17)            10.1081         estimate D2E/DX2                !
 ! D7    D(16,4,5,6)             6.3689         estimate D2E/DX2                !
 ! D8    D(16,4,5,17)         -167.115          Frozen                          !
 ! D9    D(2,4,16,15)         -152.9417         estimate D2E/DX2                !
 ! D10   D(2,4,16,27)           26.1835         estimate D2E/DX2                !
 ! D11   D(5,4,16,15)           24.2724         estimate D2E/DX2                !
 ! D12   D(5,4,16,27)         -156.6024         estimate D2E/DX2                !
 ! D13   D(4,5,6,7)            -22.5706         estimate D2E/DX2                !
 ! D14   D(4,5,6,18)           141.1312         estimate D2E/DX2                !
 ! D15   D(17,5,6,7)           151.0564         estimate D2E/DX2                !
 ! D16   D(17,5,6,18)          -45.2417         estimate D2E/DX2                !
 ! D17   D(5,6,7,8)           -134.2577         estimate D2E/DX2                !
 ! D18   D(5,6,7,9)            109.3365         estimate D2E/DX2                !
 ! D19   D(5,6,7,13)           -19.3177         estimate D2E/DX2                !
 ! D20   D(18,6,7,8)            60.2761         estimate D2E/DX2                !
 ! D21   D(18,6,7,9)           -56.1297         estimate D2E/DX2                !
 ! D22   D(18,6,7,13)          175.2162         estimate D2E/DX2                !
 ! D23   D(6,7,9,10)           168.8187         estimate D2E/DX2                !
 ! D24   D(6,7,9,19)           -70.189          estimate D2E/DX2                !
 ! D25   D(6,7,9,20)            48.844          estimate D2E/DX2                !
 ! D26   D(8,7,9,10)            52.861          estimate D2E/DX2                !
 ! D27   D(8,7,9,19)           173.8532         estimate D2E/DX2                !
 ! D28   D(8,7,9,20)           -67.1137         estimate D2E/DX2                !
 ! D29   D(13,7,9,10)          -61.8358         estimate D2E/DX2                !
 ! D30   D(13,7,9,19)           59.1564         estimate D2E/DX2                !
 ! D31   D(13,7,9,20)          178.1895         estimate D2E/DX2                !
 ! D32   D(6,7,13,12)         -166.3044         estimate D2E/DX2                !
 ! D33   D(6,7,13,14)          -49.7513         estimate D2E/DX2                !
 ! D34   D(6,7,13,15)           75.0212         Frozen                          !
 ! D35   D(8,7,13,12)          -51.7662         estimate D2E/DX2                !
 ! D36   D(8,7,13,14)           64.7869         estimate D2E/DX2                !
 ! D37   D(8,7,13,15)         -170.4406         estimate D2E/DX2                !
 ! D38   D(9,7,13,12)           63.007          estimate D2E/DX2                !
 ! D39   D(9,7,13,14)          179.5601         estimate D2E/DX2                !
 ! D40   D(9,7,13,15)          -55.6674         estimate D2E/DX2                !
 ! D41   D(7,9,10,11)           54.8125         Frozen                          !
 ! D42   D(7,9,10,21)          176.6031         estimate D2E/DX2                !
 ! D43   D(7,9,10,22)          -65.1765         estimate D2E/DX2                !
 ! D44   D(19,9,10,11)         -66.2982         estimate D2E/DX2                !
 ! D45   D(19,9,10,21)          55.4923         estimate D2E/DX2                !
 ! D46   D(19,9,10,22)         173.7128         estimate D2E/DX2                !
 ! D47   D(20,9,10,11)         175.449          estimate D2E/DX2                !
 ! D48   D(20,9,10,21)         -62.7605         estimate D2E/DX2                !
 ! D49   D(20,9,10,22)          55.46           estimate D2E/DX2                !
 ! D50   D(9,10,11,12)         -52.8228         Frozen                          !
 ! D51   D(9,10,11,23)          67.7615         estimate D2E/DX2                !
 ! D52   D(9,10,11,24)        -174.6876         estimate D2E/DX2                !
 ! D53   D(21,10,11,12)       -174.7108         estimate D2E/DX2                !
 ! D54   D(21,10,11,23)        -54.1266         estimate D2E/DX2                !
 ! D55   D(21,10,11,24)         63.4244         estimate D2E/DX2                !
 ! D56   D(22,10,11,12)         67.3877         estimate D2E/DX2                !
 ! D57   D(22,10,11,23)       -172.028          estimate D2E/DX2                !
 ! D58   D(22,10,11,24)        -54.4771         estimate D2E/DX2                !
 ! D59   D(10,11,12,13)         56.5398         estimate D2E/DX2                !
 ! D60   D(10,11,12,25)        177.4435         estimate D2E/DX2                !
 ! D61   D(10,11,12,26)        -64.8603         estimate D2E/DX2                !
 ! D62   D(23,11,12,13)        -63.9185         estimate D2E/DX2                !
 ! D63   D(23,11,12,25)         56.9852         estimate D2E/DX2                !
 ! D64   D(23,11,12,26)        174.6813         estimate D2E/DX2                !
 ! D65   D(24,11,12,13)        178.4768         estimate D2E/DX2                !
 ! D66   D(24,11,12,25)        -60.6195         estimate D2E/DX2                !
 ! D67   D(24,11,12,26)         57.0767         estimate D2E/DX2                !
 ! D68   D(11,12,13,7)         -60.0628         estimate D2E/DX2                !
 ! D69   D(11,12,13,14)       -179.0938         estimate D2E/DX2                !
 ! D70   D(11,12,13,15)         61.9096         estimate D2E/DX2                !
 ! D71   D(25,12,13,7)         179.0417         estimate D2E/DX2                !
 ! D72   D(25,12,13,14)         60.0107         estimate D2E/DX2                !
 ! D73   D(25,12,13,15)        -58.9859         estimate D2E/DX2                !
 ! D74   D(26,12,13,7)          61.313          estimate D2E/DX2                !
 ! D75   D(26,12,13,14)        -57.7179         estimate D2E/DX2                !
 ! D76   D(26,12,13,15)       -176.7146         estimate D2E/DX2                !
 ! D77   D(7,13,15,16)         -67.1601         Frozen                          !
 ! D78   D(12,13,15,16)        175.6917         estimate D2E/DX2                !
 ! D79   D(14,13,15,16)         58.2693         estimate D2E/DX2                !
 ! D80   D(13,15,16,4)           5.9414         estimate D2E/DX2                !
 ! D81   D(13,15,16,27)       -173.151          estimate D2E/DX2                !
 --------------------------------------------------------------------------------
 Trust Radius=3.00D-01 FncErr=1.00D-07 GrdErr=1.00D-07 EigMax=2.50D+02 EigMin=1.00D-04
 Number of steps in this run=     20 maximum allowed number of steps=    162.
 GradGradGradGradGradGradGradGradGradGradGradGradGradGradGradGradGradGrad

                          Input orientation:                          
 ---------------------------------------------------------------------
 Center     Atomic      Atomic             Coordinates (Angstroms)
 Number     Number       Type             X           Y           Z
 ---------------------------------------------------------------------
      1          8           0       -3.616910   -1.438960   -0.195620
      2          7           0       -3.257600   -0.274170   -0.033020
      3          8           0       -4.036150    0.669040    0.112100
      4          6           0       -1.760530    0.017300   -0.065190
      5          6           0       -1.368140    1.294660    0.350120
      6          7           0       -0.085240    1.776800    0.330040
      7          6           0        1.194130    1.003720    0.328260
      8          1           0        1.845220    1.507970    1.088930
      9          6           0        1.982570    1.042490   -1.004160
     10          6           0        3.389220    0.453790   -0.785260
     11          6           0        3.312460   -0.957430   -0.181460
     12          6           0        2.441150   -0.979290    1.093180
     13          6           0        1.009890   -0.440400    0.820880
     14          1           0        0.449200   -0.471120    1.784470
     15          7           0        0.366170   -1.314430   -0.163460
     16          6           0       -0.870440   -1.101410   -0.478850
     17          1           0       -2.119800    1.944410    0.828350
     18          1           0        0.124380    2.743720    0.069990
     19          1           0        1.445470    0.461010   -1.783520
     20          1           0        2.078430    2.089450   -1.362440
     21          1           0        3.941230    0.420950   -1.750030
     22          1           0        3.955750    1.111220   -0.088460
     23          1           0        2.875930   -1.650830   -0.935420
     24          1           0        4.335220   -1.322940    0.056300
     25          1           0        2.373220   -2.022800    1.471620
     26          1           0        2.924300   -0.364430    1.881310
     27          1           0       -1.367140   -1.836320   -1.130660
 ---------------------------------------------------------------------
                    Distance matrix (angstroms):
                    1          2          3          4          5
     1  O    0.000000
     2  N    1.229747   0.000000
     3  O    2.171202   1.231603   0.000000
     4  C    2.363018   1.525519   2.373740   0.000000
     5  C    3.581547   2.485575   2.750697   1.399322   0.000000
     6  N    4.805218   3.795018   4.109053   2.461431   1.370655
     7  C    5.421000   4.645581   5.245433   3.139720   2.578828
     8  H    6.337928   5.520287   6.020674   4.068848   3.304092
     9  C    6.177824   5.489635   6.132739   3.992928   3.622833
    10  C    7.281211   6.728745   7.482493   5.218137   4.962723
    11  C    6.946095   6.607160   7.532174   5.167092   5.221351
    12  C    6.210668   5.851604   6.755363   4.470920   4.498186
    13  C    4.841247   4.355255   5.214954   2.944459   2.981120
    14  H    4.625010   4.133089   4.920889   2.922790   2.911711
    15  N    3.985156   3.772382   4.836373   2.511178   3.174736
    16  C    2.781592   2.565467   3.674974   1.488250   2.583805
    17  H    3.838886   2.637924   2.410805   2.154354   1.102666
    18  H    5.618061   4.533879   4.649310   3.317307   2.099015
    19  H    5.635513   5.071845   5.803862   3.664420   3.628194
    20  H    6.800591   5.985589   6.448249   4.551294   3.929809
    21  H    7.937313   7.433335   8.195588   5.959168   5.776107
    22  H    7.991250   7.345393   8.006636   5.820057   5.345073
    23  H    6.538284   6.350568   7.365863   5.003671   5.323594
    24  H    7.956965   7.665430   8.605285   6.242529   6.282235
    25  H    6.245175   6.085046   7.083383   4.859185   5.124556
    26  H    6.946631   6.472148   7.255758   5.087456   4.849965
    27  H    2.468534   2.686813   3.865863   2.173911   3.463488
                    6          7          8          9         10
     6  N    0.000000
     7  C    1.494805   0.000000
     8  H    2.091616   1.121073   0.000000
     9  C    2.568100   1.548704   2.148619   0.000000
    10  C    3.881510   2.522057   2.647229   1.540503   0.000000
    11  C    4.391129   2.931424   3.137655   2.538725   1.536883
    12  C    3.815896   2.464242   2.557658   2.949021   2.545799
    13  C    2.521152   1.536913   2.136767   2.544767   3.006738
    14  H    2.730227   2.202413   2.519811   3.524017   4.012816
    15  N    3.162755   2.510204   3.423742   2.979026   3.556975
    16  C    3.091106   3.057033   4.079413   3.607204   4.545023
    17  H    2.101390   3.480965   3.997470   4.582684   5.930850
    18  H    1.022986   2.058803   2.350874   2.738768   4.078531
    19  H    2.922587   2.194840   3.083325   1.110854   2.185118
    20  H    2.764725   2.195282   2.530162   1.110711   2.174095
    21  H    4.730484   3.493633   3.692501   2.186089   1.112014
    22  H    4.116763   2.794952   2.449080   2.176389   1.112969
    23  H    4.703038   3.387030   3.890806   2.838449   2.171506
    24  H    5.405903   3.918387   3.909025   3.500685   2.181722
    25  H    4.667354   3.443450   3.590484   3.959558   3.501323
    26  H    4.006075   2.697645   2.301774   3.345477   2.827761
    27  H    4.102627   4.093211   5.141022   4.418609   5.290261
                   11         12         13         14         15
    11  C    0.000000
    12  C    1.544139   0.000000
    13  C    2.563949   1.553401   0.000000
    14  H    3.507084   2.168867   1.115268   0.000000
    15  N    2.967895   2.448878   1.465343   2.124264   0.000000
    16  C    4.195929   3.667809   2.379469   2.694686   1.293852
    17  H    6.240981   5.424060   3.934760   3.653589   4.217081
    18  H    4.891379   4.502793   3.389186   3.657888   4.072044
    19  H    2.839757   3.367677   2.790192   3.819944   2.634705
    20  H    3.492996   3.946999   3.508391   4.371951   3.994469
    21  H    2.180756   3.506388   3.993026   5.048044   4.278995
    22  H    2.168360   2.839105   3.451451   4.278733   4.332954
    23  H    1.113471   2.180646   2.834049   3.831258   2.647259
    24  H    1.111830   2.186485   3.524383   4.337432   3.975138
    25  H    2.179417   1.112090   2.187721   2.491473   2.683938
    26  H    2.181132   1.110241   2.189806   2.479290   3.409929
    27  H    4.855109   4.492554   3.377480   3.696058   2.052367
                   16         17         18         19         20
    16  C    0.000000
    17  H    3.542131   0.000000
    18  H    4.009478   2.500070   0.000000
    19  H    3.083303   4.661919   3.223592   0.000000
    20  H    4.433752   4.737693   2.509629   1.797154   0.000000
    21  H    5.204387   6.760552   4.824529   2.496306   2.530641
    22  H    5.323556   6.200569   4.167680   3.097984   2.470686
    23  H    3.813870   6.402652   5.281472   2.688003   3.848123
    24  H    5.237782   7.275914   5.853980   3.862392   4.330165
    25  H    3.895462   6.028249   5.453582   4.198329   5.002939
    26  H    4.529188   5.646451   4.558621   4.037235   4.154388
    27  H    1.100754   4.324134   4.964167   3.689814   5.228513
                   21         22         23         24         25
    21  H    0.000000
    22  H    1.799305   0.000000
    23  H    2.467940   3.084197   0.000000
    24  H    2.541497   2.467810   1.794588   0.000000
    25  H    4.337003   3.841918   2.486950   2.518408   0.000000
    26  H    3.851960   2.668600   3.096955   2.498019   1.794917
    27  H    5.801524   6.173114   4.251608   5.847165   4.560365
                   26         27
    26  H    0.000000
    27  H    5.445630   0.000000
 Symmetry turned off by external request.
 Stoichiometry    C9H13N3O2
 Framework group  C1[X(C9H13N3O2)]
 Deg. of freedom    75
 Full point group                 C1      NOp   1
 Rotational constants (GHZ):           1.6829399           0.3998652           0.3556578
 Standard basis: 6-31G(d) (6D, 7F)
   236 basis functions,   444 primitive gaussians,   236 cartesian basis functions
    52 alpha electrons       52 beta electrons
       nuclear repulsion energy       917.8028167748 Hartrees.
 NAtoms=   27 NActive=   27 NUniq=   27 SFac= 1.00D+00 NAtFMM=   60 NAOKFM=F Big=F
 Integral buffers will be    131072 words long.
 Raffenetti 1 integral format.
 Two-electron integral symmetry is turned off.
 One-electron integrals computed using PRISM.
 NBasis=   236 RedAO= T EigKep=  1.33D-03  NBF=   236
 NBsUse=   236 1.00D-06 EigRej= -1.00D+00 NBFU=   236
 ExpMin= 1.61D-01 ExpMax= 5.48D+03 ExpMxC= 8.25D+02 IAcc=3 IRadAn=         5 AccDes= 0.00D+00
 Harris functional with IExCor=  205 and IRadAn=       5 diagonalized for initial guess.
 HarFok:  IExCor=  205 AccDes= 0.00D+00 IRadAn=         5 IDoV= 1 UseB2=F ITyADJ=14
 ICtDFT=  3500011 ScaDFX=  1.000000  1.000000  1.000000  1.000000
 FoFCou: FMM=F IPFlag=           0 FMFlag=      100000 FMFlg1=           0
         NFxFlg=           0 DoJE=T BraDBF=F KetDBF=T FulRan=T
         wScrn=  0.000000 ICntrl=       500 IOpCl=  0 I1Cent=   200000004 NGrid=           0
         NMat0=    1 NMatS0=      1 NMatT0=    0 NMatD0=    1 NMtDS0=    0 NMtDT0=    0
 Symmetry not used in FoFCou.
 Keep R1 ints in memory in canonical form, NReq=397720213.
 Requested convergence on RMS density matrix=1.00D-08 within 128 cycles.
 Requested convergence on MAX density matrix=1.00D-06.
 Requested convergence on             energy=1.00D-06.
 No special actions if energy rises.
 SCF Done:  E(RHF) =  -661.272281135     A.U. after   16 cycles
            NFock= 16  Conv=0.92D-08     -V/T= 2.0036
 ExpMin= 1.61D-01 ExpMax= 5.48D+03 ExpMxC= 8.25D+02 IAcc=3 IRadAn=         5 AccDes= 0.00D+00
 HarFok:  IExCor=  205 AccDes= 0.00D+00 IRadAn=         5 IDoV=-2 UseB2=F ITyADJ=14
 ICtDFT= 12500011 ScaDFX=  1.000000  1.000000  1.000000  1.000000
 Range of M.O.s used for correlation:    15   236
 NBasis=   236 NAE=    52 NBE=    52 NFC=    14 NFV=     0
 NROrb=    222 NOA=    38 NOB=    38 NVA=   184 NVB=   184
 Fully direct method using O(ONN) memory.
 JobTyp=1 Pass  1:  I=  15 to  52 NPSUse=  4 ParTrn=T ParDer=T DoDerP=T.
 Spin components of T(2) and E(2):
     alpha-alpha T2 =       0.9200227175D-01 E2=     -0.2717889614D+00
     alpha-beta  T2 =       0.5005678233D+00 E2=     -0.1494479657D+01
     beta-beta   T2 =       0.9200227175D-01 E2=     -0.2717889614D+00
 ANorm=    0.1297910770D+01
 E2 =    -0.2038057580D+01 EUMP2 =    -0.66331033871421D+03
          IDoAtm=111111111111111111111111111
          Differentiating once with respect to electric field.
                with respect to dipole field.
          Differentiating once with respect to nuclear coordinates.
 Keep R1 ints in memory in canonical form, NReq=397723379.
          There are     1 degrees of freedom in the 1st order CPHF.  IDoFFX=0 NUNeed=     1.
 LinEq1:  Iter=  0 NonCon=     1 RMS=4.60D-03 Max=1.09D-01 NDo=     1
 AX will form     1 AO Fock derivatives at one time.
 LinEq1:  Iter=  1 NonCon=     1 RMS=1.56D-03 Max=3.17D-02 NDo=     1
 LinEq1:  Iter=  2 NonCon=     1 RMS=6.42D-04 Max=1.74D-02 NDo=     1
 LinEq1:  Iter=  3 NonCon=     1 RMS=2.98D-04 Max=9.27D-03 NDo=     1
 LinEq1:  Iter=  4 NonCon=     1 RMS=9.29D-05 Max=2.34D-03 NDo=     1
 LinEq1:  Iter=  5 NonCon=     1 RMS=3.94D-05 Max=2.01D-03 NDo=     1
 LinEq1:  Iter=  6 NonCon=     1 RMS=1.63D-05 Max=6.15D-04 NDo=     1
 LinEq1:  Iter=  7 NonCon=     1 RMS=6.39D-06 Max=1.11D-04 NDo=     1
 LinEq1:  Iter=  8 NonCon=     1 RMS=2.56D-06 Max=6.31D-05 NDo=     1
 LinEq1:  Iter=  9 NonCon=     1 RMS=9.93D-07 Max=2.72D-05 NDo=     1
 LinEq1:  Iter= 10 NonCon=     1 RMS=4.78D-07 Max=1.46D-05 NDo=     1
 LinEq1:  Iter= 11 NonCon=     1 RMS=1.65D-07 Max=5.80D-06 NDo=     1
 LinEq1:  Iter= 12 NonCon=     1 RMS=5.75D-08 Max=9.14D-07 NDo=     1
 LinEq1:  Iter= 13 NonCon=     1 RMS=1.83D-08 Max=3.90D-07 NDo=     1
 LinEq1:  Iter= 14 NonCon=     1 RMS=6.25D-09 Max=1.62D-07 NDo=     1
 LinEq1:  Iter= 15 NonCon=     1 RMS=2.39D-09 Max=5.50D-08 NDo=     1
 LinEq1:  Iter= 16 NonCon=     1 RMS=8.99D-10 Max=1.39D-08 NDo=     1
 LinEq1:  Iter= 17 NonCon=     1 RMS=2.86D-10 Max=4.54D-09 NDo=     1
 LinEq1:  Iter= 18 NonCon=     1 RMS=9.50D-11 Max=1.38D-09 NDo=     1
 LinEq1:  Iter= 19 NonCon=     0 RMS=3.00D-11 Max=4.39D-10 NDo=     1
 Linear equations converged to 1.000D-10 1.000D-09 after    19 iterations.
 End of Minotr F.D. properties file   721 does not exist.
 End of Minotr F.D. properties file   722 does not exist.
 End of Minotr F.D. properties file   788 does not exist.

 **********************************************************************

            Population analysis using the SCF Density.

 **********************************************************************

 Alpha  occ. eigenvalues --  -20.60042 -20.59592 -15.85409 -15.62313 -15.57326
 Alpha  occ. eigenvalues --  -11.35645 -11.30657 -11.30433 -11.29908 -11.27807
 Alpha  occ. eigenvalues --  -11.24508 -11.23812 -11.23444 -11.22865  -1.58672
 Alpha  occ. eigenvalues --   -1.38178  -1.28237  -1.22800  -1.13266  -1.08426
 Alpha  occ. eigenvalues --   -1.01801  -1.00588  -0.93492  -0.89048  -0.84847
 Alpha  occ. eigenvalues --   -0.81557  -0.78137  -0.76885  -0.74241  -0.70738
 Alpha  occ. eigenvalues --   -0.70582  -0.69885  -0.67515  -0.64316  -0.63420
 Alpha  occ. eigenvalues --   -0.61494  -0.60880  -0.57551  -0.56257  -0.54901
 Alpha  occ. eigenvalues --   -0.53116  -0.50712  -0.49102  -0.48642  -0.47774
 Alpha  occ. eigenvalues --   -0.47288  -0.46099  -0.45545  -0.44106  -0.42155
 Alpha  occ. eigenvalues --   -0.40286  -0.33980
 Alpha virt. eigenvalues --    0.06451   0.11439   0.18834   0.21663   0.23725
 Alpha virt. eigenvalues --    0.24284   0.25631   0.27482   0.28583   0.28884
 Alpha virt. eigenvalues --    0.29858   0.31012   0.31836   0.32224   0.33355
 Alpha virt. eigenvalues --    0.33742   0.34227   0.35685   0.37556   0.38579
 Alpha virt. eigenvalues --    0.40767   0.41926   0.44714   0.45419   0.45683
 Alpha virt. eigenvalues --    0.45905   0.49456   0.52969   0.57642   0.59360
 Alpha virt. eigenvalues --    0.63425   0.69299   0.69588   0.72027   0.74019
 Alpha virt. eigenvalues --    0.74941   0.75668   0.75792   0.77511   0.79838
 Alpha virt. eigenvalues --    0.80571   0.83197   0.85139   0.85329   0.88213
 Alpha virt. eigenvalues --    0.88994   0.90268   0.91002   0.91812   0.93875
 Alpha virt. eigenvalues --    0.95898   0.97035   0.98724   1.00311   1.01809
 Alpha virt. eigenvalues --    1.02705   1.05154   1.06095   1.07077   1.07634
 Alpha virt. eigenvalues --    1.09530   1.10501   1.11052   1.11449   1.13236
 Alpha virt. eigenvalues --    1.13683   1.14467   1.15003   1.16138   1.17170
 Alpha virt. eigenvalues --    1.17752   1.19520   1.20542   1.22074   1.22158
 Alpha virt. eigenvalues --    1.23812   1.24782   1.25840   1.26675   1.27527
 Alpha virt. eigenvalues --    1.29399   1.31201   1.33372   1.35293   1.39441
 Alpha virt. eigenvalues --    1.41387   1.44459   1.47533   1.48286   1.51601
 Alpha virt. eigenvalues --    1.53433   1.54257   1.61125   1.62994   1.65698
 Alpha virt. eigenvalues --    1.68854   1.69896   1.71119   1.74220   1.76138
 Alpha virt. eigenvalues --    1.78998   1.82306   1.84688   1.88064   1.92258
 Alpha virt. eigenvalues --    1.92975   1.96943   1.97353   1.98809   2.00148
 Alpha virt. eigenvalues --    2.02931   2.04540   2.05670   2.08568   2.12160
 Alpha virt. eigenvalues --    2.12391   2.14848   2.17531   2.18216   2.19053
 Alpha virt. eigenvalues --    2.21191   2.21516   2.23992   2.24520   2.26652
 Alpha virt. eigenvalues --    2.28932   2.32411   2.33867   2.35893   2.36267
 Alpha virt. eigenvalues --    2.38176   2.39329   2.41140   2.43122   2.45216
 Alpha virt. eigenvalues --    2.48197   2.50178   2.53286   2.56273   2.58201
 Alpha virt. eigenvalues --    2.61363   2.62993   2.66258   2.67924   2.68818
 Alpha virt. eigenvalues --    2.69936   2.70269   2.74866   2.76822   2.80597
 Alpha virt. eigenvalues --    2.83819   2.87053   2.90373   2.91575   2.95605
 Alpha virt. eigenvalues --    2.98034   2.98334   3.02348   3.03162   3.06026
 Alpha virt. eigenvalues --    3.06520   3.11952   3.19937   3.21949   3.27100
 Alpha virt. eigenvalues --    3.28795   3.33190   3.36791   3.43274   3.58942
 Alpha virt. eigenvalues --    4.08938   4.22347   4.31567   4.35617   4.42665
 Alpha virt. eigenvalues --    4.52611   4.59460   4.59765   4.71010   4.77215
 Alpha virt. eigenvalues --    4.95681   4.99226   5.02519   5.09889
          Condensed to atoms (all electrons):
               1          2          3          4          5          6
     1  O    8.299477   0.310847  -0.088962  -0.078514   0.003218  -0.000017
     2  N    0.310847   5.696766   0.308422   0.256376  -0.043450   0.001127
     3  O   -0.088962   0.308422   8.325055  -0.085807   0.008292   0.000413
     4  C   -0.078514   0.256376  -0.085807   5.233896   0.569485  -0.054992
     5  C    0.003218  -0.043450   0.008292   0.569485   4.671432   0.308995
     6  N   -0.000017   0.001127   0.000413  -0.054992   0.308995   7.209502
     7  C    0.000003  -0.000099  -0.000001   0.002728  -0.031052   0.199089
     8  H   -0.000000   0.000003  -0.000000  -0.000077   0.001332  -0.052037
     9  C   -0.000000  -0.000003   0.000000   0.000364   0.002641  -0.055145
    10  C   -0.000000   0.000000  -0.000000  -0.000012  -0.000090   0.003328
    11  C   -0.000000  -0.000000  -0.000000  -0.000018   0.000014  -0.000155
    12  C   -0.000000   0.000002  -0.000000  -0.000057  -0.000045   0.003579
    13  C   -0.000018  -0.000037  -0.000001  -0.010834   0.000645  -0.043521
    14  H   -0.000004  -0.000030   0.000000   0.002865   0.006154  -0.005552
    15  N    0.000165   0.001571  -0.000014  -0.059887  -0.004563   0.002173
    16  C    0.003842  -0.028627   0.001890   0.321305  -0.042100  -0.002075
    17  H    0.000073  -0.002823   0.008896  -0.031634   0.381669  -0.035458
    18  H    0.000000  -0.000036   0.000012   0.000630  -0.023644   0.327695
    19  H    0.000000   0.000001   0.000000  -0.000555   0.000305   0.000961
    20  H    0.000000  -0.000000   0.000000  -0.000027   0.000025  -0.002157
    21  H   -0.000000  -0.000000   0.000000   0.000000   0.000001  -0.000056
    22  H   -0.000000   0.000000  -0.000000  -0.000000  -0.000003  -0.000099
    23  H    0.000000  -0.000000   0.000000   0.000023  -0.000000  -0.000024
    24  H    0.000000   0.000000   0.000000   0.000000  -0.000000   0.000004
    25  H    0.000000  -0.000000   0.000000   0.000021  -0.000003  -0.000070
    26  H    0.000000  -0.000000   0.000000   0.000006  -0.000002  -0.000065
    27  H    0.005035  -0.000026  -0.000014  -0.064971   0.002383   0.000050
               7          8          9         10         11         12
     1  O    0.000003  -0.000000  -0.000000  -0.000000  -0.000000  -0.000000
     2  N   -0.000099   0.000003  -0.000003   0.000000  -0.000000   0.000002
     3  O   -0.000001  -0.000000   0.000000  -0.000000  -0.000000  -0.000000
     4  C    0.002728  -0.000077   0.000364  -0.000012  -0.000018  -0.000057
     5  C   -0.031052   0.001332   0.002641  -0.000090   0.000014  -0.000045
     6  N    0.199089  -0.052037  -0.055145   0.003328  -0.000155   0.003579
     7  C    4.989019   0.418402   0.339222  -0.049344  -0.007501  -0.064015
     8  H    0.418402   0.552231  -0.061977   0.001644  -0.000343  -0.002751
     9  C    0.339222  -0.061977   5.183356   0.317200  -0.053062  -0.006388
    10  C   -0.049344   0.001644   0.317200   5.127479   0.332800  -0.059886
    11  C   -0.007501  -0.000343  -0.053062   0.332800   5.123231   0.330965
    12  C   -0.064015  -0.002751  -0.006388  -0.059886   0.330965   5.136011
    13  C    0.336082  -0.041856  -0.047558  -0.002218  -0.047847   0.367518
    14  H   -0.040092  -0.000885   0.003869  -0.000393   0.003927  -0.040711
    15  N   -0.058315   0.004185  -0.013114   0.001550  -0.007667  -0.073653
    16  C   -0.002225  -0.000010  -0.000887  -0.000019  -0.000000   0.002613
    17  H    0.001724  -0.000014  -0.000063   0.000001   0.000000   0.000001
    18  H   -0.027993  -0.002078   0.000847  -0.000129   0.000012  -0.000130
    19  H   -0.034809   0.004181   0.385287  -0.032667  -0.002318   0.000668
    20  H   -0.041117  -0.001887   0.397440  -0.037485   0.004148  -0.000354
    21  H    0.004023  -0.000083  -0.035843   0.400189  -0.035928   0.004204
    22  H   -0.004127   0.003518  -0.045549   0.395937  -0.045579  -0.001278
    23  H    0.000417   0.000034  -0.002001  -0.040178   0.396780  -0.036883
    24  H   -0.000139  -0.000094   0.004377  -0.038404   0.400353  -0.037797
    25  H    0.004941  -0.000001  -0.000368   0.004094  -0.034019   0.395557
    26  H   -0.004432   0.001666   0.001001  -0.002378  -0.042157   0.394784
    27  H   -0.000396   0.000009  -0.000055   0.000005   0.000004  -0.000017
              13         14         15         16         17         18
     1  O   -0.000018  -0.000004   0.000165   0.003842   0.000073   0.000000
     2  N   -0.000037  -0.000030   0.001571  -0.028627  -0.002823  -0.000036
     3  O   -0.000001   0.000000  -0.000014   0.001890   0.008896   0.000012
     4  C   -0.010834   0.002865  -0.059887   0.321305  -0.031634   0.000630
     5  C    0.000645   0.006154  -0.004563  -0.042100   0.381669  -0.023644
     6  N   -0.043521  -0.005552   0.002173  -0.002075  -0.035458   0.327695
     7  C    0.336082  -0.040092  -0.058315  -0.002225   0.001724  -0.027993
     8  H   -0.041856  -0.000885   0.004185  -0.000010  -0.000014  -0.002078
     9  C   -0.047558   0.003869  -0.013114  -0.000887  -0.000063   0.000847
    10  C   -0.002218  -0.000393   0.001550  -0.000019   0.000001  -0.000129
    11  C   -0.047847   0.003927  -0.007667  -0.000000   0.000000   0.000012
    12  C    0.367518  -0.040711  -0.073653   0.002613   0.000001  -0.000130
    13  C    5.032356   0.400862   0.236809  -0.069314  -0.000100   0.003609
    14  H    0.400862   0.521499  -0.035860  -0.005241   0.000075   0.000036
    15  N    0.236809  -0.035860   6.929089   0.586110  -0.000063  -0.000111
    16  C   -0.069314  -0.005241   0.586110   4.707153   0.001562  -0.000221
    17  H   -0.000100   0.000075  -0.000063   0.001562   0.395296  -0.001794
    18  H    0.003609   0.000036  -0.000111  -0.000221  -0.001794   0.322813
    19  H   -0.006596   0.000063   0.007071   0.002410   0.000008  -0.000116
    20  H    0.003835  -0.000048   0.000075  -0.000029  -0.000001   0.003110
    21  H   -0.000357   0.000009  -0.000024   0.000002  -0.000000  -0.000000
    22  H    0.000321  -0.000044   0.000003  -0.000001   0.000000   0.000002
    23  H   -0.005778   0.000005   0.006573   0.000064   0.000000   0.000000
    24  H    0.004130  -0.000059   0.000039   0.000005   0.000000  -0.000000
    25  H   -0.034791  -0.002619   0.000671  -0.000066  -0.000000   0.000002
    26  H   -0.044599  -0.000941   0.004169  -0.000059   0.000000  -0.000001
    27  H    0.004829  -0.000171  -0.039742   0.401369  -0.000057   0.000003
              19         20         21         22         23         24
     1  O    0.000000   0.000000  -0.000000  -0.000000   0.000000   0.000000
     2  N    0.000001  -0.000000  -0.000000   0.000000  -0.000000   0.000000
     3  O    0.000000   0.000000   0.000000  -0.000000   0.000000   0.000000
     4  C   -0.000555  -0.000027   0.000000  -0.000000   0.000023   0.000000
     5  C    0.000305   0.000025   0.000001  -0.000003  -0.000000  -0.000000
     6  N    0.000961  -0.002157  -0.000056  -0.000099  -0.000024   0.000004
     7  C   -0.034809  -0.041117   0.004023  -0.004127   0.000417  -0.000139
     8  H    0.004181  -0.001887  -0.000083   0.003518   0.000034  -0.000094
     9  C    0.385287   0.397440  -0.035843  -0.045549  -0.002001   0.004377
    10  C   -0.032667  -0.037485   0.400189   0.395937  -0.040178  -0.038404
    11  C   -0.002318   0.004148  -0.035928  -0.045579   0.396780   0.400353
    12  C    0.000668  -0.000354   0.004204  -0.001278  -0.036883  -0.037797
    13  C   -0.006596   0.003835  -0.000357   0.000321  -0.005778   0.004130
    14  H    0.000063  -0.000048   0.000009  -0.000044   0.000005  -0.000059
    15  N    0.007071   0.000075  -0.000024   0.000003   0.006573   0.000039
    16  C    0.002410  -0.000029   0.000002  -0.000001   0.000064   0.000005
    17  H    0.000008  -0.000001  -0.000000   0.000000   0.000000   0.000000
    18  H   -0.000116   0.003110  -0.000000   0.000002   0.000000  -0.000000
    19  H    0.508550  -0.024067  -0.002591   0.003768   0.001653  -0.000070
    20  H   -0.024067   0.549878  -0.002577  -0.002972  -0.000050  -0.000090
    21  H   -0.002591  -0.002577   0.526560  -0.024720  -0.002826  -0.002042
    22  H    0.003768  -0.002972  -0.024720   0.568368   0.004068  -0.003585
    23  H    0.001653  -0.000050  -0.002826   0.004068   0.510884  -0.025000
    24  H   -0.000070  -0.000090  -0.002042  -0.003585  -0.025000   0.540629
    25  H   -0.000027   0.000011  -0.000086  -0.000082  -0.002107  -0.002374
    26  H    0.000024  -0.000035  -0.000074   0.002463   0.003826  -0.002775
    27  H    0.000068  -0.000000  -0.000000   0.000000  -0.000020  -0.000000
              25         26         27
     1  O    0.000000   0.000000   0.005035
     2  N   -0.000000  -0.000000  -0.000026
     3  O    0.000000   0.000000  -0.000014
     4  C    0.000021   0.000006  -0.064971
     5  C   -0.000003  -0.000002   0.002383
     6  N   -0.000070  -0.000065   0.000050
     7  C    0.004941  -0.004432  -0.000396
     8  H   -0.000001   0.001666   0.000009
     9  C   -0.000368   0.001001  -0.000055
    10  C    0.004094  -0.002378   0.000005
    11  C   -0.034019  -0.042157   0.000004
    12  C    0.395557   0.394784  -0.000017
    13  C   -0.034791  -0.044599   0.004829
    14  H   -0.002619  -0.000941  -0.000171
    15  N    0.000671   0.004169  -0.039742
    16  C   -0.000066  -0.000059   0.401369
    17  H   -0.000000   0.000000  -0.000057
    18  H    0.000002  -0.000001   0.000003
    19  H   -0.000027   0.000024   0.000068
    20  H    0.000011  -0.000035  -0.000000
    21  H   -0.000086  -0.000074  -0.000000
    22  H   -0.000082   0.002463   0.000000
    23  H   -0.002107   0.003826  -0.000020
    24  H   -0.002374  -0.002775  -0.000000
    25  H    0.511447  -0.023121  -0.000010
    26  H   -0.023121   0.559563   0.000001
    27  H   -0.000010   0.000001   0.453415
 Mulliken charges:
               1
     1  O   -0.455145
     2  N    0.500017
     3  O   -0.478183
     4  C   -0.000314
     5  C    0.188359
     6  N   -0.805494
     7  C    0.070007
     8  H    0.176889
     9  C   -0.313592
    10  C   -0.321023
    11  C   -0.315642
    12  C   -0.311937
    13  C   -0.035573
    14  H    0.193286
    15  N   -0.487242
    16  C    0.122548
    17  H    0.282703
    18  H    0.397483
    19  H    0.188797
    20  H    0.154374
    21  H    0.172220
    22  H    0.149589
    23  H    0.190539
    24  H    0.162892
    25  H    0.183001
    26  H    0.153135
    27  H    0.238308
 Sum of Mulliken charges =  -0.00000
 Mulliken charges with hydrogens summed into heavy atoms:
               1
     1  O   -0.455145
     2  N    0.500017
     3  O   -0.478183
     4  C   -0.000314
     5  C    0.471062
     6  N   -0.408011
     7  C    0.246896
     9  C    0.029579
    10  C    0.000785
    11  C    0.037789
    12  C    0.024199
    13  C    0.157713
    15  N   -0.487242
    16  C    0.360856
 Electronic spatial extent (au):  <R**2>=           3123.4673
 Charge=             -0.0000 electrons
 Dipole moment (field-independent basis, Debye):
    X=              5.2229    Y=              4.1804    Z=              0.6951  Tot=              6.7259
 Quadrupole moment (field-independent basis, Debye-Ang):
   XX=           -105.2526   YY=            -81.0949   ZZ=            -81.7358
   XY=             -1.5999   XZ=              0.0431   YZ=              0.1217
 Traceless Quadrupole moment (field-independent basis, Debye-Ang):
   XX=            -15.8915   YY=              8.2662   ZZ=              7.6253
   XY=             -1.5999   XZ=              0.0431   YZ=              0.1217
 Octapole moment (field-independent basis, Debye-Ang**2):
  XXX=            100.2450  YYY=             33.4203  ZZZ=             -2.7300  XYY=             -0.3792
  XXY=             10.1622  XXZ=              2.0935  XZZ=             -9.6327  YZZ=             -2.5406
  YYZ=              0.6915  XYZ=             -2.9684
 Hexadecapole moment (field-independent basis, Debye-Ang**3):
 XXXX=          -3555.6597 YYYY=           -620.4991 ZZZZ=           -301.1577 XXXY=            -37.9302
 XXXZ=             20.7990 YYYX=            -18.0890 YYYZ=              6.4970 ZZZX=             20.1892
 ZZZY=              9.5005 XXYY=           -659.3101 XXZZ=           -541.4749 YYZZ=           -162.5780
 XXYZ=              4.5332 YYXZ=              7.2466 ZZXY=              0.4287
 N-N= 9.178028167748D+02 E-N=-3.381617828562D+03  KE= 6.588732226159D+02
 Calling FoFJK, ICntrl=  10002127 FMM=F ISym2X=0 I1Cent= 0 IOpClX= 0 NMat=1 NMatS=1 NMatT=0.
 -------------------------------------------------------------------
 Center     Atomic                   Forces (Hartrees/Bohr)
 Number     Number              X              Y              Z
 -------------------------------------------------------------------
      1        8           0.001864962   -0.019934462   -0.003476117
      2        7           0.037345266    0.012198112    0.001759279
      3        8          -0.004930433    0.015043863    0.003909079
      4        6          -0.000739757    0.008993864    0.015365858
      5        6           0.000047287   -0.020248692   -0.006505540
      6        7           0.020362938   -0.011842241   -0.001872330
      7        6          -0.004633633    0.006250370    0.001324393
      8        1          -0.009030112   -0.002162968   -0.007592223
      9        6          -0.003717614   -0.000692931   -0.001666072
     10        6           0.002972964   -0.000662570    0.000830051
     11        6          -0.001308999   -0.004506743   -0.002458850
     12        6           0.001037959   -0.008865732   -0.002537493
     13        6           0.010867131   -0.000780803    0.004124649
     14        1           0.000363514    0.004618416   -0.009970050
     15        7          -0.002331343    0.002677762    0.001362089
     16        6          -0.021481895    0.007156070   -0.000936768
     17        1           0.003032876   -0.000439908   -0.017172297
     18        1          -0.016519937   -0.001109254    0.010669913
     19        1           0.003042816    0.006039041    0.007565682
     20        1          -0.003366216   -0.007256944    0.002653333
     21        1          -0.004424855    0.002428830    0.009554513
     22        1          -0.003882011   -0.004091654   -0.007461779
     23        1           0.003942975    0.006158595    0.009208108
     24        1          -0.009380567    0.002579511   -0.002272043
     25        1          -0.000647046    0.010500643   -0.002467892
     26        1          -0.004839879   -0.004893711   -0.004456941
     27        1           0.006353608    0.002843538    0.002519450
 -------------------------------------------------------------------
 Cartesian Forces:  Max     0.037345266 RMS     0.008772208

 GradGradGradGradGradGradGradGradGradGradGradGradGradGradGradGradGradGrad
 Berny optimization.
 FormGI is forming the generalized inverse of G from B-inverse, IUseBI=4.
 Internal  Forces:  Max     0.034990483 RMS     0.006676472
 Search for a local minimum.
 Step number   1 out of a maximum of   20
 All quantities printed in internal units (Hartrees-Bohrs-Radians)
 Mixed Optimization -- RFO/linear search
 Second derivative matrix not updated -- first step.
 ITU=  0
     Eigenvalues ---    0.00235   0.00768   0.01144   0.01179   0.01220
     Eigenvalues ---    0.01506   0.01534   0.01691   0.01972   0.02047
     Eigenvalues ---    0.02685   0.03638   0.04500   0.04686   0.04838
     Eigenvalues ---    0.05083   0.05136   0.05303   0.05899   0.06261
     Eigenvalues ---    0.07219   0.07702   0.07732   0.07886   0.07992
     Eigenvalues ---    0.08052   0.08077   0.10459   0.11746   0.12266
     Eigenvalues ---    0.13454   0.15343   0.15795   0.15975   0.16002
     Eigenvalues ---    0.20070   0.21535   0.23220   0.24974   0.25000
     Eigenvalues ---    0.25000   0.25345   0.26155   0.26655   0.27984
     Eigenvalues ---    0.28090   0.28418   0.29841   0.31372   0.31455
     Eigenvalues ---    0.32049   0.32235   0.32288   0.32380   0.32388
     Eigenvalues ---    0.32407   0.32510   0.32525   0.32574   0.33198
     Eigenvalues ---    0.33389   0.33599   0.35186   0.43865   0.44312
     Eigenvalues ---    0.48976   0.66341   0.90422   0.911921000.00000
     Eigenvalues --- 1000.000001000.000001000.000001000.000001000.00000
     Eigenvalues --- 1000.000001000.000001000.000001000.000001000.00000
     Eigenvalues --- 1000.000001000.000001000.000001000.000001000.00000
     Eigenvalues --- 1000.000001000.000001000.000001000.000001000.00000
     Eigenvalues --- 1000.000001000.000001000.000001000.000001000.00000
     Eigenvalues --- 1000.000001000.000001000.000001000.000001000.00000
     Eigenvalues --- 1000.000001000.000001000.000001000.000001000.00000
     Eigenvalues --- 1000.000001000.000001000.000001000.000001000.00000
     Eigenvalues --- 1000.000001000.000001000.000001000.000001000.00000
     Eigenvalues --- 1000.000001000.000001000.000001000.000001000.00000
     Eigenvalues --- 1000.000001000.000001000.000001000.000001000.00000
     Eigenvalues --- 1000.000001000.000001000.000001000.000001000.00000
     Eigenvalues --- 1000.000001000.000001000.000001000.000001000.00000
     Eigenvalues --- 1000.000001000.000001000.000001000.000001000.00000
     Eigenvalues --- 1000.000001000.000001000.000001000.000001000.00000
     Eigenvalues --- 1000.000001000.000001000.000001000.000001000.00000
     Eigenvalues --- 1000.000001000.000001000.000001000.000001000.00000
     Eigenvalues --- 1000.000001000.000001000.000001000.000001000.00000
     Eigenvalues --- 1000.00000
 RFO step:  Lambda=-2.39116390D-02 EMin= 2.35289549D-03
 Linear search not attempted -- first point.
 Iteration  1 RMS(Cart)=  0.05531870 RMS(Int)=  0.00142135
 Iteration  2 RMS(Cart)=  0.00179664 RMS(Int)=  0.00029648
 Iteration  3 RMS(Cart)=  0.00000345 RMS(Int)=  0.00029646
 Iteration  4 RMS(Cart)=  0.00000000 RMS(Int)=  0.00029646
 Iteration  1 RMS(Cart)=  0.00004643 RMS(Int)=  0.00003251
 Iteration  2 RMS(Cart)=  0.00002335 RMS(Int)=  0.00003621
 Iteration  3 RMS(Cart)=  0.00001245 RMS(Int)=  0.00004018
 Iteration  4 RMS(Cart)=  0.00000697 RMS(Int)=  0.00004259
 Iteration  5 RMS(Cart)=  0.00000409 RMS(Int)=  0.00004398
 Iteration  6 RMS(Cart)=  0.00000252 RMS(Int)=  0.00004479
 Iteration  7 RMS(Cart)=  0.00000167 RMS(Int)=  0.00004529
 Iteration  8 RMS(Cart)=  0.00000120 RMS(Int)=  0.00004561
 Iteration  9 RMS(Cart)=  0.00000093 RMS(Int)=  0.00004582
 Variable       Old X    -DE/DX   Delta X   Delta X   Delta X     New X
                                 (Linear)    (Quad)   (Total)
    R1        2.32389   0.01880   0.00000   0.02009   0.02009   2.34397
    R2        2.32739   0.01510   0.00000   0.01627   0.01627   2.34366
    R3        2.88281  -0.03499   0.00000  -0.10856  -0.10856   2.77426
    R4        2.64433  -0.03422   0.00000  -0.07259  -0.07234   2.57199
    R5        2.81238  -0.02121   0.00000  -0.06112  -0.06087   2.75152
    R6        2.59016  -0.01743   0.00000  -0.03298  -0.03295   2.55722
    R7        2.08374  -0.00977   0.00000  -0.02732  -0.02732   2.05642
    R8        2.82477  -0.01954   0.00000  -0.05286  -0.05302   2.77176
    R9        1.93316  -0.00715   0.00000  -0.01545  -0.01545   1.91772
   R10        2.11852  -0.01137   0.00000  -0.03359  -0.03359   2.08493
   R11        2.92663  -0.01299   0.00000  -0.04509  -0.04517   2.88146
   R12        2.90434  -0.00612   0.00000  -0.01427  -0.01436   2.88999
   R13        2.91113  -0.00482   0.00000  -0.01423  -0.01423   2.89690
   R14        2.09921  -0.00994   0.00000  -0.02848  -0.02848   2.07073
   R15        2.09894  -0.00799   0.00000  -0.02287  -0.02287   2.07607
   R16        2.90429  -0.00198   0.00000  -0.00702  -0.00704   2.89725
   R17        2.10140  -0.01056   0.00000  -0.03036  -0.03036   2.07105
   R18        2.10321  -0.00906   0.00000  -0.02614  -0.02614   2.07707
   R19        2.91800  -0.00909   0.00000  -0.02795  -0.02788   2.89012
   R20        2.10416  -0.01162   0.00000  -0.03355  -0.03355   2.07061
   R21        2.10105  -0.00996   0.00000  -0.02863  -0.02863   2.07242
   R22        2.93550  -0.01024   0.00000  -0.03605  -0.03605   2.89945
   R23        2.10155  -0.01065   0.00000  -0.03064  -0.03064   2.07091
   R24        2.09805  -0.00798   0.00000  -0.02282  -0.02282   2.07523
   R25        2.10755  -0.00892   0.00000  -0.02591  -0.02591   2.08164
   R26        2.76910  -0.00457   0.00000  -0.01187  -0.01214   2.75696
   R27        2.44503  -0.00646   0.00000  -0.01003  -0.01001   2.43502
   R28        2.08012  -0.00626   0.00000  -0.01739  -0.01739   2.06274
    A1        2.16068   0.01054   0.00000   0.03943   0.03832   2.19900
    A2        2.05434  -0.00740   0.00000  -0.02608  -0.02719   2.02714
    A3        2.06748  -0.00310   0.00000  -0.01036  -0.01147   2.05602
    A4        2.03011  -0.00553   0.00000  -0.02060  -0.02088   2.00923
    A5        2.03663  -0.00496   0.00000  -0.01886  -0.01910   2.01752
    A6        2.21550   0.01054   0.00000   0.03793   0.03783   2.25333
    A7        2.18856   0.00529   0.00000   0.02260   0.02244   2.21100
    A8        2.06629  -0.00329   0.00000  -0.01454  -0.01458   2.05171
    A9        2.02318  -0.00166   0.00000  -0.01066  -0.01077   2.01241
   A10        2.23849  -0.00485   0.00000  -0.01066  -0.01134   2.22715
   A11        2.12703  -0.01199   0.00000  -0.07243  -0.07252   2.05452
   A12        1.88931   0.01685   0.00000   0.09010   0.09046   1.97976
   A13        1.83759  -0.00068   0.00000  -0.01457  -0.01440   1.82319
   A14        2.00843  -0.00141   0.00000  -0.00590  -0.00568   2.00275
   A15        1.96381   0.00065   0.00000  -0.00193  -0.00262   1.96118
   A16        1.85129   0.00249   0.00000   0.02447   0.02429   1.87558
   A17        1.84915   0.00052   0.00000   0.00869   0.00863   1.85778
   A18        1.93940  -0.00121   0.00000  -0.00772  -0.00737   1.93204
   A19        1.91033   0.00039   0.00000  -0.00360  -0.00380   1.90653
   A20        1.92235  -0.00078   0.00000  -0.01205  -0.01199   1.91035
   A21        1.92309  -0.00173   0.00000  -0.00827  -0.00825   1.91484
   A22        1.91893  -0.00046   0.00000   0.00628   0.00626   1.92520
   A23        1.90418   0.00298   0.00000   0.02351   0.02355   1.92774
   A24        1.88476  -0.00038   0.00000  -0.00548  -0.00575   1.87901
   A25        1.94027  -0.00111   0.00000   0.00492   0.00476   1.94503
   A26        1.91907  -0.00052   0.00000  -0.00571  -0.00571   1.91336
   A27        1.90501   0.00035   0.00000  -0.00288  -0.00291   1.90210
   A28        1.91615   0.00087   0.00000   0.00705   0.00711   1.92326
   A29        1.89849   0.00169   0.00000   0.01072   0.01076   1.90925
   A30        1.88382  -0.00127   0.00000  -0.01458  -0.01466   1.86916
   A31        1.94495   0.00030   0.00000   0.00355   0.00371   1.94867
   A32        1.90221   0.00084   0.00000   0.00640   0.00630   1.90850
   A33        1.91765   0.00038   0.00000   0.00560   0.00559   1.92324
   A34        1.90595  -0.00097   0.00000  -0.01281  -0.01286   1.89309
   A35        1.91547  -0.00041   0.00000  -0.00015  -0.00025   1.91522
   A36        1.87624  -0.00015   0.00000  -0.00289  -0.00292   1.87332
   A37        1.95012  -0.00269   0.00000  -0.01642  -0.01646   1.93366
   A38        1.90568   0.00256   0.00000   0.01798   0.01785   1.92352
   A39        1.90984   0.00122   0.00000   0.01147   0.01146   1.92130
   A40        1.90592   0.00001   0.00000  -0.00234  -0.00216   1.90376
   A41        1.91057  -0.00020   0.00000  -0.00606  -0.00605   1.90452
   A42        1.88039  -0.00084   0.00000  -0.00419  -0.00437   1.87602
   A43        1.84595   0.00426   0.00000   0.02395   0.02399   1.86995
   A44        1.94237  -0.00439   0.00000  -0.03528  -0.03561   1.90676
   A45        1.97992   0.00158   0.00000   0.02018   0.02024   2.00016
   A46        1.87780   0.00244   0.00000   0.03172   0.03204   1.90984
   A47        1.89187  -0.00360   0.00000  -0.02883  -0.02893   1.86294
   A48        1.92102  -0.00006   0.00000  -0.00932  -0.00905   1.91197
   A49        2.07762  -0.00459   0.00000  -0.00682  -0.00740   2.07023
   A50        2.24929  -0.00577   0.00000  -0.01956  -0.01982   2.22947
   A51        1.97858   0.00680   0.00000   0.03128   0.03091   2.00950
   A52        2.05522  -0.00102   0.00000  -0.01111  -0.01147   2.04375
    D1       -2.95410  -0.00113   0.00000   0.03434   0.03338  -2.92072
    D2        0.14413   0.00019   0.00000   0.00000   0.00000   0.14413
    D3        0.22571  -0.00243   0.00000  -0.05006  -0.05051   0.17519
    D4       -2.95924  -0.00110   0.00000  -0.08440  -0.08389  -3.04314
    D5       -3.07890  -0.00235   0.00000  -0.06973  -0.07024   3.13405
    D6        0.17642  -0.00586   0.00000  -0.04024  -0.04075   0.13567
    D7        0.11116  -0.00333   0.00000  -0.02949  -0.02949   0.08167
    D8       -2.91671  -0.00684   0.00000   0.00000   0.00000  -2.91670
    D9       -2.66934   0.00002   0.00000   0.00017   0.00002  -2.66932
   D10        0.45699   0.00116   0.00000   0.04915   0.04949   0.50648
   D11        0.42363   0.00099   0.00000  -0.04024  -0.04093   0.38271
   D12       -2.73323   0.00212   0.00000   0.00875   0.00855  -2.72468
   D13       -0.39393   0.00259   0.00000   0.07634   0.07683  -0.31710
   D14        2.46320   0.00507   0.00000   0.12365   0.12273   2.58594
   D15        2.63643   0.00592   0.00000   0.04720   0.04763   2.68407
   D16       -0.78962   0.00840   0.00000   0.09452   0.09353  -0.69608
   D17       -2.34324  -0.00145   0.00000  -0.04851  -0.04800  -2.39124
   D18        1.90828  -0.00330   0.00000  -0.06580  -0.06528   1.84300
   D19       -0.33716  -0.00091   0.00000  -0.04764  -0.04738  -0.38454
   D20        1.05202  -0.00028   0.00000  -0.07108  -0.07165   0.98037
   D21       -0.97965  -0.00213   0.00000  -0.08837  -0.08892  -1.06857
   D22        3.05810   0.00026   0.00000  -0.07021  -0.07103   2.98707
   D23        2.94644   0.00276   0.00000   0.02422   0.02431   2.97075
   D24       -1.22503   0.00195   0.00000   0.02207   0.02214  -1.20289
   D25        0.85249  -0.00009   0.00000   0.00263   0.00280   0.85529
   D26        0.92260   0.00273   0.00000   0.02925   0.02922   0.95182
   D27        3.03431   0.00191   0.00000   0.02710   0.02706   3.06137
   D28       -1.17136  -0.00012   0.00000   0.00766   0.00772  -1.16364
   D29       -1.07924   0.00133   0.00000   0.00916   0.00904  -1.07020
   D30        1.03247   0.00051   0.00000   0.00701   0.00688   1.03935
   D31        3.10999  -0.00152   0.00000  -0.01242  -0.01246   3.09753
   D32       -2.90256  -0.00173   0.00000  -0.00850  -0.00814  -2.91070
   D33       -0.86832   0.00139   0.00000   0.02500   0.02492  -0.84340
   D34        1.30937  -0.00097   0.00000   0.00000  -0.00001   1.30936
   D35       -0.90349  -0.00191   0.00000  -0.02178  -0.02162  -0.92511
   D36        1.13075   0.00121   0.00000   0.01172   0.01144   1.14219
   D37       -2.97475  -0.00115   0.00000  -0.01328  -0.01349  -2.98824
   D38        1.09968   0.00072   0.00000   0.00813   0.00827   1.10795
   D39        3.13391   0.00384   0.00000   0.04163   0.04133  -3.10794
   D40       -0.97158   0.00148   0.00000   0.01663   0.01640  -0.95518
   D41        0.95666   0.00053   0.00000   0.00000   0.00000   0.95666
   D42        3.08231   0.00055   0.00000   0.00831   0.00826   3.09057
   D43       -1.13754  -0.00109   0.00000  -0.01451  -0.01448  -1.15202
   D44       -1.15712   0.00154   0.00000   0.01323   0.01331  -1.14381
   D45        0.96852   0.00155   0.00000   0.02154   0.02157   0.99009
   D46        3.03186  -0.00009   0.00000  -0.00127  -0.00117   3.03069
   D47        3.06216   0.00049   0.00000   0.00214   0.00211   3.06427
   D48       -1.09538   0.00050   0.00000   0.01045   0.01036  -1.08501
   D49        0.96796  -0.00114   0.00000  -0.01236  -0.01238   0.95558
   D50       -0.92193  -0.00079   0.00000   0.00000   0.00000  -0.92193
   D51        1.18266  -0.00126   0.00000  -0.00951  -0.00953   1.17313
   D52       -3.04887  -0.00073   0.00000  -0.00603  -0.00607  -3.05495
   D53       -3.04928   0.00001   0.00000  -0.00087  -0.00084  -3.05012
   D54       -0.94469  -0.00047   0.00000  -0.01038  -0.01037  -0.95506
   D55        1.10696   0.00006   0.00000  -0.00689  -0.00691   1.10005
   D56        1.17614   0.00005   0.00000   0.00640   0.00643   1.18257
   D57       -3.00246  -0.00042   0.00000  -0.00311  -0.00311  -3.00556
   D58       -0.95080   0.00010   0.00000   0.00037   0.00035  -0.95045
   D59        0.98681  -0.00055   0.00000  -0.01200  -0.01210   0.97470
   D60        3.09697  -0.00055   0.00000  -0.01342  -0.01359   3.08338
   D61       -1.13203   0.00063   0.00000  -0.00140  -0.00142  -1.13344
   D62       -1.11559  -0.00114   0.00000  -0.01377  -0.01380  -1.12939
   D63        0.99458  -0.00114   0.00000  -0.01519  -0.01529   0.97929
   D64        3.04876   0.00004   0.00000  -0.00318  -0.00312   3.04565
   D65        3.11501  -0.00015   0.00000  -0.00266  -0.00268   3.11232
   D66       -1.05801  -0.00015   0.00000  -0.00407  -0.00418  -1.06218
   D67        0.99618   0.00103   0.00000   0.00794   0.00800   1.00418
   D68       -1.04829  -0.00015   0.00000   0.00126   0.00143  -1.04686
   D69       -3.12578   0.00152   0.00000   0.01399   0.01362  -3.11216
   D70        1.08053   0.00220   0.00000   0.02319   0.02298   1.10351
   D71        3.12487  -0.00163   0.00000  -0.00914  -0.00889   3.11598
   D72        1.04738   0.00004   0.00000   0.00359   0.00330   1.05069
   D73       -1.02950   0.00072   0.00000   0.01279   0.01266  -1.01683
   D74        1.07011  -0.00051   0.00000   0.00081   0.00109   1.07120
   D75       -1.00737   0.00116   0.00000   0.01354   0.01327  -0.99409
   D76       -3.08425   0.00184   0.00000   0.02273   0.02264  -3.06161
   D77       -1.17217   0.00253   0.00000   0.00000  -0.00001  -1.17217
   D78        3.06640  -0.00135   0.00000  -0.02281  -0.02248   3.04392
   D79        1.01699  -0.00215   0.00000  -0.03893  -0.03920   0.97779
   D80        0.10370   0.00207   0.00000   0.04227   0.04193   0.14563
   D81       -3.02206   0.00084   0.00000  -0.00885  -0.00870  -3.03075
         Item               Value     Threshold  Converged?
 Maximum Force            0.034990     0.000450     NO 
 RMS     Force            0.006726     0.000300     NO 
 Maximum Displacement     0.282081     0.001800     NO 
 RMS     Displacement     0.055872     0.001200     NO 
 Predicted change in Energy=-1.390165D-02
 GradGradGradGradGradGradGradGradGradGradGradGradGradGradGradGradGradGrad

                          Input orientation:                          
 ---------------------------------------------------------------------
 Center     Atomic      Atomic             Coordinates (Angstroms)
 Number     Number       Type             X           Y           Z
 ---------------------------------------------------------------------
      1          8           0       -3.467639   -1.446085   -0.150340
      2          7           0       -3.132765   -0.256954   -0.039170
      3          8           0       -3.895566    0.698789    0.167747
      4          6           0       -1.692045    0.018017   -0.102050
      5          6           0       -1.325258    1.269855    0.286275
      6          7           0       -0.067446    1.767211    0.328103
      7          6           0        1.192424    1.016158    0.329895
      8          1           0        1.813929    1.522460    1.087957
      9          6           0        1.958630    1.051643   -0.987942
     10          6           0        3.350977    0.445199   -0.779118
     11          6           0        3.264572   -0.964508   -0.182601
     12          6           0        2.410440   -0.989092    1.085814
     13          6           0        1.010668   -0.424143    0.810836
     14          1           0        0.425686   -0.424247    1.744229
     15          7           0        0.381712   -1.313667   -0.159529
     16          6           0       -0.851664   -1.111637   -0.473126
     17          1           0       -2.091531    1.905332    0.725816
     18          1           0        0.054136    2.758844    0.149996
     19          1           0        1.406854    0.484917   -1.746298
     20          1           0        2.040659    2.088708   -1.341076
     21          1           0        3.888385    0.419695   -1.733922
     22          1           0        3.925380    1.093304   -0.102270
     23          1           0        2.815213   -1.642470   -0.916796
     24          1           0        4.269271   -1.343560    0.040120
     25          1           0        2.315669   -2.015256    1.458576
     26          1           0        2.889784   -0.394343    1.874779
     27          1           0       -1.328486   -1.852168   -1.117907
 ---------------------------------------------------------------------
                    Distance matrix (angstroms):
                    1          2          3          4          5
     1  O    0.000000
     2  N    1.240376   0.000000
     3  O    2.210155   1.240211   0.000000
     4  C    2.301882   1.468073   2.322013   0.000000
     5  C    3.486654   2.388334   2.635649   1.361039   0.000000
     6  N    4.702711   3.691655   3.977655   2.425703   1.353220
     7  C    5.292396   4.523747   5.100457   3.082698   2.530808
     8  H    6.183898   5.376477   5.841536   3.996413   3.249769
     9  C    6.031966   5.341806   5.977602   3.896230   3.529188
    10  C    7.103932   6.563495   7.312541   5.106171   4.866446
    11  C    6.749491   6.437945   7.359135   5.053701   5.126282
    12  C    6.024013   5.703397   6.592230   4.388128   4.438192
    13  C    4.692915   4.233025   5.074019   2.886784   2.932804
    14  H    4.448766   3.983852   4.734947   2.844139   2.839263
    15  N    3.851639   3.671877   4.738375   2.465189   3.128430
    16  C    2.656948   2.474313   3.599124   1.456040   2.544108
    17  H    3.727374   2.518899   2.240921   2.099264   1.088210
    18  H    5.493135   4.391715   4.454693   3.259572   2.034303
    19  H    5.480560   4.906404   5.641362   3.539028   3.494556
    20  H    6.652365   5.827641   6.280699   4.444775   3.827295
    21  H    7.752416   7.254418   8.017738   5.827996   5.655620
    22  H    7.817131   7.186417   7.835544   5.719415   5.267954
    23  H    6.332476   6.169953   7.189734   4.872001   5.203126
    24  H    7.739933   7.481787   8.417365   6.116485   6.179748
    25  H    6.029861   5.917796   6.900125   4.757260   5.042082
    26  H    6.754561   6.320853   7.081657   5.007100   4.802029
    27  H    2.382659   2.638902   3.840597   2.159105   3.423269
                    6          7          8          9         10
     6  N    0.000000
     7  C    1.466750   0.000000
     8  H    2.043734   1.103298   0.000000
     9  C    2.519721   1.524802   2.133533   0.000000
    10  C    3.828743   2.493041   2.647448   1.532975   0.000000
    11  C    4.338830   2.911956   3.147013   2.533559   1.533157
    12  C    3.783021   2.464955   2.581419   2.944349   2.533727
    13  C    2.489456   1.529316   2.123979   2.512405   2.959858
    14  H    2.655386   2.159397   2.479431   3.463080   3.959867
    15  N    3.151402   2.514931   3.413368   2.961018   3.506285
    16  C    3.089454   3.057884   4.059659   3.583653   4.492167
    17  H    2.067408   3.425164   3.940857   4.479905   5.832471
    18  H    1.014811   2.089263   2.346335   2.799381   4.133445
    19  H    2.849733   2.153781   3.045523   1.095783   2.171780
    20  H    2.708066   2.159168   2.504444   1.098606   2.175742
    21  H    4.660079   3.447217   3.671846   2.163284   1.095950
    22  H    4.072104   2.767989   2.461512   2.157373   1.099137
    23  H    4.635236   3.354994   3.877936   2.827904   2.159713
    24  H    5.344805   3.888345   3.916726   3.483241   2.171192
    25  H    4.611319   3.424190   3.592289   3.939390   3.483243
    26  H    3.976145   2.693921   2.334671   3.339625   2.821472
    27  H    4.096471   4.083922   5.111627   4.387954   5.223988
                   11         12         13         14         15
    11  C    0.000000
    12  C    1.529386   0.000000
    13  C    2.521705   1.534322   0.000000
    14  H    3.473303   2.166059   1.101556   0.000000
    15  N    2.904019   2.402491   1.458920   2.101737   0.000000
    16  C    4.129098   3.617546   2.364210   2.649678   1.288556
    17  H    6.144025   5.364236   3.880376   3.577776   4.154843
    18  H    4.927562   4.524926   3.388668   3.579343   4.097373
    19  H    2.827914   3.346752   2.742680   3.738054   2.608382
    20  H    3.487428   3.936925   3.464971   4.294436   3.965389
    21  H    2.170658   3.481366   3.933079   4.979965   4.216634
    22  H    2.162801   2.836011   3.410565   4.237968   4.284200
    23  H    1.095719   2.145039   2.779464   3.778222   2.569725
    24  H    1.096679   2.162031   3.472438   4.303751   3.892796
    25  H    2.167476   1.095877   2.157368   2.486955   2.617381
    26  H    2.167572   1.098164   2.159616   2.467736   3.357677
    27  H    4.770632   4.425027   3.351261   3.648000   2.033040
                   16         17         18         19         20
    16  C    0.000000
    17  H    3.475173   0.000000
    18  H    4.023602   2.379903   0.000000
    19  H    3.044808   4.513050   3.255230   0.000000
    20  H    4.400122   4.623923   2.572674   1.771457   0.000000
    21  H    5.138350   6.634517   4.870547   2.482418   2.520718
    22  H    5.274415   6.127669   4.221871   3.068540   2.465288
    23  H    3.731570   6.273851   5.304070   2.682782   3.834271
    24  H    5.151814   7.175324   5.882955   3.837714   4.319129
    25  H    3.818377   5.944019   5.442329   4.165097   4.975560
    26  H    4.474998   5.605544   4.578031   4.010534   4.150696
    27  H    1.091554   4.254452   4.978018   3.652250   5.189552
                   21         22         23         24         25
    21  H    0.000000
    22  H    1.765618   0.000000
    23  H    2.464126   3.062741   0.000000
    24  H    2.530092   2.465125   1.766160   0.000000
    25  H    4.312130   3.832826   2.455791   2.505944   0.000000
    26  H    3.831786   2.682214   3.058803   2.483943   1.769235
    27  H    5.723336   6.108227   4.153873   5.738867   4.465953
                   26         27
    26  H    0.000000
    27  H    5.373568   0.000000
 Symmetry turned off by external request.
 Stoichiometry    C9H13N3O2
 Framework group  C1[X(C9H13N3O2)]
 Deg. of freedom    75
 Full point group                 C1      NOp   1
 Rotational constants (GHZ):           1.6917532           0.4209879           0.3715024
 Standard basis: 6-31G(d) (6D, 7F)
   236 basis functions,   444 primitive gaussians,   236 cartesian basis functions
    52 alpha electrons       52 beta electrons
       nuclear repulsion energy       931.6307539108 Hartrees.
 NAtoms=   27 NActive=   27 NUniq=   27 SFac= 1.00D+00 NAtFMM=   60 NAOKFM=F Big=F
 Integral buffers will be    131072 words long.
 Raffenetti 1 integral format.
 Two-electron integral symmetry is turned off.
 One-electron integrals computed using PRISM.
 NBasis=   236 RedAO= T EigKep=  1.06D-03  NBF=   236
 NBsUse=   236 1.00D-06 EigRej= -1.00D+00 NBFU=   236
 Initial guess from the checkpoint file:  "/home/alexey/tmp/Gau-1585980.chk"
 B after Tr=     0.053022    0.001733    0.004085
         Rot=    0.999998    0.001467   -0.001303    0.000167 Ang=   0.23 deg.
 ExpMin= 1.61D-01 ExpMax= 5.48D+03 ExpMxC= 8.25D+02 IAcc=3 IRadAn=         5 AccDes= 0.00D+00
 Harris functional with IExCor=  205 and IRadAn=       5 diagonalized for initial guess.
 HarFok:  IExCor=  205 AccDes= 0.00D+00 IRadAn=         5 IDoV= 1 UseB2=F ITyADJ=14
 ICtDFT=  3500011 ScaDFX=  1.000000  1.000000  1.000000  1.000000
 FoFCou: FMM=F IPFlag=           0 FMFlag=      100000 FMFlg1=           0
         NFxFlg=           0 DoJE=T BraDBF=F KetDBF=T FulRan=T
         wScrn=  0.000000 ICntrl=       500 IOpCl=  0 I1Cent=   200000004 NGrid=           0
         NMat0=    1 NMatS0=      1 NMatT0=    0 NMatD0=    1 NMtDS0=    0 NMtDT0=    0
 Symmetry not used in FoFCou.
 Keep R1 ints in memory in canonical form, NReq=397720213.
 Requested convergence on RMS density matrix=1.00D-08 within 128 cycles.
 Requested convergence on MAX density matrix=1.00D-06.
 Requested convergence on             energy=1.00D-06.
 No special actions if energy rises.
 SCF Done:  E(RHF) =  -661.289981995     A.U. after   15 cycles
            NFock= 15  Conv=0.51D-08     -V/T= 2.0025
 ExpMin= 1.61D-01 ExpMax= 5.48D+03 ExpMxC= 8.25D+02 IAcc=3 IRadAn=         5 AccDes= 0.00D+00
 HarFok:  IExCor=  205 AccDes= 0.00D+00 IRadAn=         5 IDoV=-2 UseB2=F ITyADJ=14
 ICtDFT= 12500011 ScaDFX=  1.000000  1.000000  1.000000  1.000000
 Range of M.O.s used for correlation:    15   236
 NBasis=   236 NAE=    52 NBE=    52 NFC=    14 NFV=     0
 NROrb=    222 NOA=    38 NOB=    38 NVA=   184 NVB=   184
 Fully direct method using O(ONN) memory.
 JobTyp=1 Pass  1:  I=  15 to  52 NPSUse=  4 ParTrn=T ParDer=T DoDerP=T.
 Spin components of T(2) and E(2):
     alpha-alpha T2 =       0.9131218738D-01 E2=     -0.2723210553D+00
     alpha-beta  T2 =       0.4925028502D+00 E2=     -0.1489062234D+01
     beta-beta   T2 =       0.9131218738D-01 E2=     -0.2723210553D+00
 ANorm=    0.1294267061D+01
 E2 =    -0.2033704345D+01 EUMP2 =    -0.66332368634038D+03
          IDoAtm=111111111111111111111111111
          Differentiating once with respect to electric field.
                with respect to dipole field.
          Differentiating once with respect to nuclear coordinates.
 Keep R1 ints in memory in canonical form, NReq=397723379.
          There are     1 degrees of freedom in the 1st order CPHF.  IDoFFX=0 NUNeed=     1.
 LinEq1:  Iter=  0 NonCon=     1 RMS=4.57D-03 Max=9.27D-02 NDo=     1
 AX will form     1 AO Fock derivatives at one time.
 LinEq1:  Iter=  1 NonCon=     1 RMS=1.53D-03 Max=3.32D-02 NDo=     1
 LinEq1:  Iter=  2 NonCon=     1 RMS=6.45D-04 Max=1.56D-02 NDo=     1
 LinEq1:  Iter=  3 NonCon=     1 RMS=2.85D-04 Max=8.23D-03 NDo=     1
 LinEq1:  Iter=  4 NonCon=     1 RMS=8.88D-05 Max=2.15D-03 NDo=     1
 LinEq1:  Iter=  5 NonCon=     1 RMS=3.74D-05 Max=1.86D-03 NDo=     1
 LinEq1:  Iter=  6 NonCon=     1 RMS=1.48D-05 Max=5.83D-04 NDo=     1
 LinEq1:  Iter=  7 NonCon=     1 RMS=5.69D-06 Max=1.10D-04 NDo=     1
 LinEq1:  Iter=  8 NonCon=     1 RMS=2.29D-06 Max=5.79D-05 NDo=     1
[...]
    17  H    3.464775   0.000000
    18  H    4.100793   2.216595   0.000000
    19  H    2.998234   4.370193   3.600555   0.000000
    20  H    4.392124   4.532277   3.010580   1.768499   0.000000
    21  H    5.097881   6.558276   5.166199   2.499097   2.522623
    22  H    5.258594   6.112130   4.354822   3.070067   2.463307
    23  H    3.682867   6.225045   5.437082   2.703555   3.843893
    24  H    5.128263   7.174806   5.938369   3.848970   4.318728
    25  H    3.818411   6.000029   5.303762   4.172317   4.986923
    26  H    4.501785   5.698617   4.415176   4.033867   4.181493
    27  H    1.089948   4.256260   5.119874   3.613536   5.185053
                   21         22         23         24         25
    21  H    0.000000
    22  H    1.758756   0.000000
    23  H    2.469741   3.062642   0.000000
    24  H    2.516925   2.460397   1.764399   0.000000
    25  H    4.312269   3.839712   2.444547   2.519443   0.000000
    26  H    3.845911   2.703571   3.060339   2.493488   1.768454
    27  H    5.662341   6.072749   4.072326   5.677848   4.429487
                   26         27
    26  H    0.000000
    27  H    5.371423   0.000000
 Symmetry turned off by external request.
 Stoichiometry    C9H13N3O2
 Framework group  C1[X(C9H13N3O2)]
 Deg. of freedom    75
 Full point group                 C1      NOp   1
 Rotational constants (GHZ):           1.6697000           0.4203650           0.3729126

 **********************************************************************

            Population analysis using the SCF Density.

 **********************************************************************

 Alpha  occ. eigenvalues --  -20.59288 -20.58985 -15.84691 -15.64030 -15.56132
 Alpha  occ. eigenvalues --  -11.35056 -11.29653 -11.29636 -11.28722 -11.27180
 Alpha  occ. eigenvalues --  -11.23663 -11.23182 -11.22686 -11.22092  -1.57133
 Alpha  occ. eigenvalues --   -1.36752  -1.30858  -1.23049  -1.14712  -1.09821
 Alpha  occ. eigenvalues --   -1.02794  -1.01277  -0.94493  -0.89718  -0.85435
 Alpha  occ. eigenvalues --   -0.82502  -0.78576  -0.77445  -0.75197  -0.71987
 Alpha  occ. eigenvalues --   -0.69901  -0.69320  -0.67724  -0.64862  -0.63910
 Alpha  occ. eigenvalues --   -0.62019  -0.60520  -0.57853  -0.56914  -0.55081
 Alpha  occ. eigenvalues --   -0.54486  -0.50680  -0.50218  -0.48736  -0.48130
 Alpha  occ. eigenvalues --   -0.47389  -0.46092  -0.46047  -0.43654  -0.41894
 Alpha  occ. eigenvalues --   -0.39500  -0.33893
 Alpha virt. eigenvalues --    0.07249   0.11466   0.17152   0.21836   0.24407
 Alpha virt. eigenvalues --    0.26016   0.26729   0.28596   0.29237   0.29535
 Alpha virt. eigenvalues --    0.30418   0.31834   0.31869   0.32772   0.34088
 Alpha virt. eigenvalues --    0.34434   0.35852   0.37354   0.38629   0.40442
 Alpha virt. eigenvalues --    0.41234   0.42218   0.44864   0.46096   0.46751
 Alpha virt. eigenvalues --    0.47064   0.48988   0.53800   0.57813   0.60047
 Alpha virt. eigenvalues --    0.63830   0.69487   0.70047   0.72837   0.74334
 Alpha virt. eigenvalues --    0.74833   0.75670   0.76458   0.78546   0.79733
 Alpha virt. eigenvalues --    0.81505   0.83711   0.85644   0.86126   0.88622
 Alpha virt. eigenvalues --    0.89543   0.91111   0.92063   0.92923   0.94474
 Alpha virt. eigenvalues --    0.95510   0.97714   1.00194   1.02100   1.02307
 Alpha virt. eigenvalues --    1.03259   1.05810   1.07055   1.07747   1.08777
 Alpha virt. eigenvalues --    1.10391   1.10533   1.11930   1.12096   1.13834
 Alpha virt. eigenvalues --    1.14152   1.15059   1.15366   1.17006   1.18615
 Alpha virt. eigenvalues --    1.19115   1.21079   1.21436   1.23028   1.24128
 Alpha virt. eigenvalues --    1.24819   1.26446   1.27420   1.28197   1.29342
 Alpha virt. eigenvalues --    1.29781   1.33841   1.35162   1.36831   1.40500
 Alpha virt. eigenvalues --    1.42428   1.48580   1.48954   1.49354   1.53258
 Alpha virt. eigenvalues --    1.54862   1.58094   1.61962   1.64009   1.65768
 Alpha virt. eigenvalues --    1.67286   1.68183   1.72506   1.76391   1.78280
 Alpha virt. eigenvalues --    1.81861   1.84182   1.86916   1.90292   1.92604
 Alpha virt. eigenvalues --    1.94652   1.95866   1.99552   2.00985   2.03123
 Alpha virt. eigenvalues --    2.04201   2.06480   2.08305   2.09777   2.12096
 Alpha virt. eigenvalues --    2.13129   2.15542   2.17034   2.19998   2.21656
 Alpha virt. eigenvalues --    2.23120   2.24230   2.24735   2.28403   2.29188
 Alpha virt. eigenvalues --    2.32288   2.33656   2.34552   2.36851   2.37700
 Alpha virt. eigenvalues --    2.39455   2.42354   2.44361   2.45423   2.48068
 Alpha virt. eigenvalues --    2.50591   2.52733   2.54083   2.55698   2.60295
 Alpha virt. eigenvalues --    2.62470   2.65958   2.67030   2.69324   2.70394
 Alpha virt. eigenvalues --    2.72107   2.72840   2.77612   2.78564   2.83233
 Alpha virt. eigenvalues --    2.87762   2.88690   2.92786   2.93269   2.96182
 Alpha virt. eigenvalues --    2.99549   3.01061   3.04057   3.06011   3.07869
 Alpha virt. eigenvalues --    3.09398   3.15024   3.21324   3.24090   3.27420
 Alpha virt. eigenvalues --    3.32096   3.36738   3.38825   3.51952   3.66053
 Alpha virt. eigenvalues --    4.12344   4.26694   4.33800   4.38581   4.45645
 Alpha virt. eigenvalues --    4.55710   4.61531   4.61965   4.73667   4.78934
 Alpha virt. eigenvalues --    4.99555   5.00869   5.06134   5.10171
          Condensed to atoms (all electrons):
               1          2          3          4          5          6
     1  O    8.316737   0.306459  -0.082390  -0.085346   0.004170  -0.000018
     2  N    0.306459   5.725755   0.301792   0.261868  -0.053283   0.001029
     3  O   -0.082390   0.301792   8.348944  -0.093233   0.005807   0.000715
     4  C   -0.085346   0.261868  -0.093233   5.218357   0.561178  -0.051376
     5  C    0.004170  -0.053283   0.005807   0.561178   4.709404   0.323382
     6  N   -0.000018   0.001029   0.000715  -0.051376   0.323382   7.182779
     7  C    0.000003  -0.000155  -0.000002   0.003761  -0.032446   0.171487
     8  H   -0.000000   0.000003  -0.000000  -0.000158   0.002657  -0.048673
     9  C   -0.000000  -0.000005   0.000000   0.000592   0.001535  -0.060440
    10  C    0.000000   0.000000  -0.000000  -0.000023  -0.000083   0.003654
    11  C   -0.000000  -0.000000  -0.000000  -0.000036   0.000026  -0.000207
    12  C   -0.000000   0.000002  -0.000000  -0.000190  -0.000084   0.004121
    13  C   -0.000021  -0.000027  -0.000001  -0.009929  -0.001047  -0.051297
    14  H   -0.000004  -0.000059   0.000001   0.002610   0.006609  -0.007129
    15  N    0.000399   0.002448  -0.000019  -0.062815  -0.007248   0.001388
    16  C    0.002186  -0.029273   0.002546   0.334099  -0.052872  -0.000231
    17  H    0.000173  -0.006327   0.014731  -0.023802   0.376225  -0.034409
    18  H    0.000001  -0.000056   0.000012   0.001745  -0.031563   0.339036
    19  H    0.000000  -0.000001  -0.000000  -0.001045   0.001054  -0.000644
    20  H    0.000000  -0.000000   0.000000  -0.000099   0.000158  -0.000133
    21  H   -0.000000   0.000000  -0.000000   0.000001   0.000001  -0.000074
    22  H   -0.000000   0.000000  -0.000000  -0.000000  -0.000003  -0.000115
    23  H    0.000000  -0.000000   0.000000   0.000041   0.000001  -0.000031
    24  H    0.000000   0.000000   0.000000   0.000000  -0.000000   0.000006
    25  H    0.000000  -0.000000   0.000000   0.000033  -0.000006  -0.000095
    26  H    0.000000  -0.000000   0.000000   0.000004  -0.000000  -0.000060
    27  H    0.005370  -0.000911  -0.000015  -0.063154   0.002710  -0.000007
               7          8          9         10         11         12
     1  O    0.000003  -0.000000  -0.000000   0.000000  -0.000000  -0.000000
     2  N   -0.000155   0.000003  -0.000005   0.000000  -0.000000   0.000002
     3  O   -0.000002  -0.000000   0.000000  -0.000000  -0.000000  -0.000000
     4  C    0.003761  -0.000158   0.000592  -0.000023  -0.000036  -0.000190
     5  C   -0.032446   0.002657   0.001535  -0.000083   0.000026  -0.000084
     6  N    0.171487  -0.048673  -0.060440   0.003654  -0.000207   0.004121
     7  C    5.029848   0.416670   0.349434  -0.055021  -0.008874  -0.062166
     8  H    0.416670   0.535521  -0.052257   0.000318  -0.000264  -0.002009
     9  C    0.349434  -0.052257   5.151425   0.325539  -0.050537  -0.005010
    10  C   -0.055021   0.000318   0.325539   5.120639   0.336612  -0.061159
    11  C   -0.008874  -0.000264  -0.050537   0.336612   5.120968   0.336022
    12  C   -0.062166  -0.002009  -0.005010  -0.061159   0.336022   5.122012
    13  C    0.336647  -0.037663  -0.061504  -0.000016  -0.050583   0.371965
    14  H   -0.047251  -0.000556   0.004381  -0.000395   0.004204  -0.036878
    15  N   -0.058638   0.003876  -0.014082   0.001557  -0.013392  -0.083886
    16  C   -0.000528  -0.000118  -0.000676  -0.000071   0.000053   0.002385
    17  H    0.001841  -0.000073  -0.000043   0.000001   0.000000   0.000000
    18  H   -0.022550  -0.005031   0.001868  -0.000087   0.000003  -0.000122
    19  H   -0.036873   0.004310   0.391434  -0.032760  -0.002182   0.000688
    20  H   -0.041545  -0.002017   0.399370  -0.035079   0.003893  -0.000424
    21  H    0.004617  -0.000068  -0.036400   0.402558  -0.034877   0.004346
    22  H   -0.004909   0.003549  -0.046858   0.397509  -0.045431  -0.001025
    23  H    0.000635   0.000038  -0.001987  -0.039028   0.399135  -0.038072
    24  H   -0.000128  -0.000101   0.004360  -0.038302   0.402330  -0.038586
    25  H    0.005122  -0.000032  -0.000433   0.004186  -0.033252   0.397770
    26  H   -0.003804   0.001658   0.000953  -0.002242  -0.041503   0.396239
    27  H   -0.000395   0.000008  -0.000042   0.000005   0.000014  -0.000031
              13         14         15         16         17         18
     1  O   -0.000021  -0.000004   0.000399   0.002186   0.000173   0.000001
     2  N   -0.000027  -0.000059   0.002448  -0.029273  -0.006327  -0.000056
     3  O   -0.000001   0.000001  -0.000019   0.002546   0.014731   0.000012
     4  C   -0.009929   0.002610  -0.062815   0.334099  -0.023802   0.001745
     5  C   -0.001047   0.006609  -0.007248  -0.052872   0.376225  -0.031563
     6  N   -0.051297  -0.007129   0.001388  -0.000231  -0.034409   0.339036
     7  C    0.336647  -0.047251  -0.058638  -0.000528   0.001841  -0.022550
     8  H   -0.037663  -0.000556   0.003876  -0.000118  -0.000073  -0.005031
     9  C   -0.061504   0.004381  -0.014082  -0.000676  -0.000043   0.001868
    10  C   -0.000016  -0.000395   0.001557  -0.000071   0.000001  -0.000087
    11  C   -0.050583   0.004204  -0.013392   0.000053   0.000000   0.000003
    12  C    0.371965  -0.036878  -0.083886   0.002385   0.000000  -0.000122
    13  C    5.040549   0.404015   0.245654  -0.068377  -0.000091   0.002846
    14  H    0.404015   0.530563  -0.037047  -0.005697   0.000051  -0.000073
    15  N    0.245654  -0.037047   6.969242   0.584970  -0.000065  -0.000120
    16  C   -0.068377  -0.005697   0.584970   4.699559   0.001886  -0.000157
    17  H   -0.000091   0.000051  -0.000065   0.001886   0.383498  -0.003016
    18  H    0.002846  -0.000073  -0.000120  -0.000157  -0.003016   0.313897
    19  H   -0.007752   0.000111   0.007693   0.002476   0.000011  -0.000140
    20  H    0.004347  -0.000067   0.000138  -0.000040  -0.000001   0.000403
    21  H   -0.000432   0.000010  -0.000039   0.000004  -0.000000   0.000002
    22  H    0.000019  -0.000054   0.000024  -0.000001   0.000000  -0.000000
    23  H   -0.007758   0.000002   0.008757   0.000163   0.000000   0.000000
    24  H    0.004700  -0.000058   0.000124   0.000006   0.000000  -0.000000
    25  H   -0.035313  -0.002770   0.000665  -0.000042  -0.000000   0.000003
    26  H   -0.047602  -0.001032   0.005001  -0.000040   0.000000   0.000000
    27  H    0.004980  -0.000152  -0.041502   0.403738  -0.000074   0.000001
              19         20         21         22         23         24
     1  O    0.000000   0.000000  -0.000000  -0.000000   0.000000   0.000000
     2  N   -0.000001  -0.000000   0.000000   0.000000  -0.000000   0.000000
     3  O   -0.000000   0.000000  -0.000000  -0.000000   0.000000   0.000000
     4  C   -0.001045  -0.000099   0.000001  -0.000000   0.000041   0.000000
     5  C    0.001054   0.000158   0.000001  -0.000003   0.000001  -0.000000
     6  N   -0.000644  -0.000133  -0.000074  -0.000115  -0.000031   0.000006
     7  C   -0.036873  -0.041545   0.004617  -0.004909   0.000635  -0.000128
     8  H    0.004310  -0.002017  -0.000068   0.003549   0.000038  -0.000101
     9  C    0.391434   0.399370  -0.036400  -0.046858  -0.001987   0.004360
    10  C   -0.032760  -0.035079   0.402558   0.397509  -0.039028  -0.038302
    11  C   -0.002182   0.003893  -0.034877  -0.045431   0.399135   0.402330
    12  C    0.000688  -0.000424   0.004346  -0.001025  -0.038072  -0.038586
    13  C   -0.007752   0.004347  -0.000432   0.000019  -0.007758   0.004700
    14  H    0.000111  -0.000067   0.000010  -0.000054   0.000002  -0.000058
    15  N    0.007693   0.000138  -0.000039   0.000024   0.008757   0.000124
    16  C    0.002476  -0.000040   0.000004  -0.000001   0.000163   0.000006
    17  H    0.000011  -0.000001  -0.000000   0.000000   0.000000   0.000000
    18  H   -0.000140   0.000403   0.000002  -0.000000   0.000000  -0.000000
    19  H    0.505314  -0.024330  -0.002766   0.003972   0.001536  -0.000068
    20  H   -0.024330   0.535641  -0.002671  -0.002965  -0.000045  -0.000081
    21  H   -0.002766  -0.002671   0.523604  -0.027380  -0.002909  -0.002242
    22  H    0.003972  -0.002965  -0.027380   0.571740   0.004140  -0.003638
    23  H    0.001536  -0.000045  -0.002909   0.004140   0.499218  -0.025429
    24  H   -0.000068  -0.000081  -0.002242  -0.003638  -0.025429   0.537693
    25  H   -0.000028   0.000013  -0.000087  -0.000081  -0.002282  -0.002293
    26  H    0.000020  -0.000030  -0.000081   0.002388   0.004086  -0.003011
    27  H    0.000064   0.000000  -0.000000   0.000000  -0.000036  -0.000000
              25         26         27
     1  O    0.000000   0.000000   0.005370
     2  N   -0.000000  -0.000000  -0.000911
     3  O    0.000000   0.000000  -0.000015
     4  C    0.000033   0.000004  -0.063154
     5  C   -0.000006  -0.000000   0.002710
     6  N   -0.000095  -0.000060  -0.000007
     7  C    0.005122  -0.003804  -0.000395
     8  H   -0.000032   0.001658   0.000008
     9  C   -0.000433   0.000953  -0.000042
    10  C    0.004186  -0.002242   0.000005
    11  C   -0.033252  -0.041503   0.000014
    12  C    0.397770   0.396239  -0.000031
    13  C   -0.035313  -0.047602   0.004980
    14  H   -0.002770  -0.001032  -0.000152
    15  N    0.000665   0.005001  -0.041502
    16  C   -0.000042  -0.000040   0.403738
    17  H   -0.000000   0.000000  -0.000074
    18  H    0.000003   0.000000   0.000001
    19  H   -0.000028   0.000020   0.000064
    20  H    0.000013  -0.000030   0.000000
    21  H   -0.000087  -0.000081  -0.000000
    22  H   -0.000081   0.002388   0.000000
    23  H   -0.002282   0.004086  -0.000036
    24  H   -0.002293  -0.003011  -0.000000
    25  H    0.505812  -0.024069  -0.000016
    26  H   -0.024069   0.563893   0.000001
    27  H   -0.000016   0.000001   0.444594
 Mulliken charges:
               1
     1  O   -0.467718
     2  N    0.490741
     3  O   -0.498888
     4  C    0.006919
     5  C    0.183718
     6  N   -0.772659
     7  C    0.055220
     8  H    0.180415
     9  C   -0.300618
    10  C   -0.328311
    11  C   -0.322123
    12  C   -0.305908
    13  C   -0.036307
    14  H    0.186667
    15  N   -0.513083
    16  C    0.124054
    17  H    0.289483
    18  H    0.403100
    19  H    0.189908
    20  H    0.165566
    21  H    0.174883
    22  H    0.149119
    23  H    0.199825
    24  H    0.164721
    25  H    0.187195
    26  H    0.149231
    27  H    0.244853
 Sum of Mulliken charges =  -0.00000
 Mulliken charges with hydrogens summed into heavy atoms:
               1
     1  O   -0.467718
     2  N    0.490741
     3  O   -0.498888
     4  C    0.006919
     5  C    0.473201
     6  N   -0.369559
     7  C    0.235635
     9  C    0.054856
    10  C   -0.004310
    11  C    0.042423
    12  C    0.030518
    13  C    0.150359
    15  N   -0.513083
    16  C    0.368907
 Electronic spatial extent (au):  <R**2>=           3001.6535
 Charge=             -0.0000 electrons
 Dipole moment (field-independent basis, Debye):
    X=              5.3711    Y=              4.5841    Z=              1.8239  Tot=              7.2931
 Quadrupole moment (field-independent basis, Debye-Ang):
   XX=           -105.8402   YY=            -80.1323   ZZ=            -80.8330
   XY=             -1.3667   XZ=             -1.4320   YZ=              3.5374
 Traceless Quadrupole moment (field-independent basis, Debye-Ang):
   XX=            -16.9050   YY=              8.8028   ZZ=              8.1022
   XY=             -1.3667   XZ=             -1.4320   YZ=              3.5374
 Octapole moment (field-independent basis, Debye-Ang**2):
  XXX=             90.5315  YYY=             31.2616  ZZZ=              4.1026  XYY=             -3.6798
  XXY=              8.2105  XXZ=             10.4358  XZZ=            -10.6207  YZZ=              0.4525
  YYZ=             11.8387  XYZ=             -2.4361
 Hexadecapole moment (field-independent basis, Debye-Ang**3):
 XXXX=          -3364.4436 YYYY=           -612.6448 ZZZZ=           -306.8758 XXXY=            -14.6624
 XXXZ=            -44.3112 YYYX=             -2.6558 YYYZ=             34.8479 ZZZX=            -14.2691
 ZZZY=             11.6667 XXYY=           -629.3878 XXZZ=           -520.7603 YYZZ=           -154.5279
 XXYZ=              5.5526 YYXZ=             -5.4453 ZZXY=              5.2351
 N-N= 9.311067042197D+02 E-N=-3.408919579567D+03  KE= 6.596246388608D+02
 Unable to Open any file for archive entry.
 1\1\GINC-LOTUS\FOpt\RMP2-FC\6-31G(d)\C9H13N3O2\ALEXEY\02-Jul-2023\0\\#
 MP2/6-31G* SCF=Tight Opt=(ModRedun, MaxCycle=20 ) NoSymm\\MolName:\\0,
 1\O,-3.5093165061,-1.3866233374,-0.3199859779\N,-3.1135082249,-0.21063
 90611,-0.2013120994\O,-3.8764304832,0.7737946684,-0.1525638484\C,-1.67
 64536098,0.0002058367,-0.1194938068\C,-1.2988699084,1.2583524888,0.274
 1180462\N,-0.05601874,1.7600461387,0.3816273591\C,1.2125073485,1.03813
 6052,0.3507575872\H,1.8622485248,1.5758708292,1.0565162782\C,1.9054680
 274,1.0314975313,-1.0095026913\C,3.3020463386,0.4195553681,-0.84836360
 26\C,3.2524226583,-0.9696027993,-0.2063953814\C,2.4667855447,-0.963111
 531,1.1068021667\C,1.0573680041,-0.4075097331,0.8699703161\H,0.4833808
 582,-0.3731876774,1.8090472301\N,0.4059435931,-1.3149619735,-0.0653286
 833\C,-0.8429414947,-1.1563226691,-0.3692160781\H,-2.0871391648,1.9241
 947685,0.6141711094\H,-0.0146944364,2.6946719851,0.7711113134\H,1.3035
 415977,0.4476686282,-1.7142917719\H,1.9714079636,2.0545648419,-1.39897
 02195\H,3.7989755006,0.3684291633,-1.8239077997\H,3.9095268202,1.08994
 2173,-0.2237768705\H,2.7661475986,-1.6718097659,-0.8910017197\H,4.2711
 489228,-1.3362766496,-0.0333940062\H,2.3812502985,-1.980073859,1.50329
 09573\H,2.9833077638,-0.3568253774,1.8638726548\H,-1.2961147952,-1.947
 9860392,-0.9657804618\\Version=ES64L-G16RevC.02\HF=-661.2964472\MP2=-6
 63.3316781\RMSD=6.945e-09\RMSF=2.271e-03\Dipole=1.966861,1.6189767,0.6
 543607\PG=C01 [X(C9H13N3O2)]\\@
 The archive entry for this job was punched.


 ALL OUR THINKING ABOUT NATURE MUST NECESSARILY MOVE IN CIRCLES OR SPIRALS;
 FOR WE CAN ONLY UNDERSTAND NATURE IF WE THINK ABOUT HER, AND WE CAN ONLY
 THINK BECAUSE OUR BRAIN IS BUILT IN ACCORDANCE WITH NATURE'S LAWS.

                                             -- TIMOTHY FERRIS, "GALAXIES"
 Job cpu time:       0 days  1 hours 17 minutes 38.3 seconds.
 Elapsed time:       0 days  0 hours 23 minutes 22.3 seconds.
 File lengths (MBytes):  RWF=     36 Int=      0 D2E=      0 Chk=      7 Scr=      1
 Normal termination of Gaussian 16 at Sun Jul  2 22:14:11 2023.
