 Entering Gaussian System, Link 0=g16
 Initial command:
 /home/alexey/programs//g16/l1.exe "/home/alexey/tmp/Gau-1266968.inp" -scrdir="/home/alexey/tmp/"
 Entering Link 1 = /home/alexey/programs//g16/l1.exe PID=   1266970.
  
 Copyright (c) 1988-2021, Gaussian, Inc.  All Rights Reserved.
  
 This is part of the Gaussian(R) 16 program.  It is based on
 the Gaussian(R) 09 system (copyright 2009, Gaussian, Inc.),
 the Gaussian(R) 03 system (copyright 2003, Gaussian, Inc.),
 the Gaussian(R) 98 system (copyright 1998, Gaussian, Inc.),
 the Gaussian(R) 94 system (copyright 1995, Gaussian, Inc.),
 the Gaussian 92(TM) system (copyright 1992, Gaussian, Inc.),
 the Gaussian 90(TM) system (copyright 1990, Gaussian, Inc.),
 the Gaussian 88(TM) system (copyright 1988, Gaussian, Inc.),
 the Gaussian 86(TM) system (copyright 1986, Carnegie Mellon
 University), and the Gaussian 82(TM) system (copyright 1983,
 Carnegie Mellon University). Gaussian is a federally registered
 trademark of Gaussian, Inc.
  
 This software contains proprietary and confidential information,
 including trade secrets, belonging to Gaussian, Inc.
  
 This software is provided under written license and may be
 used, copied, transmitted, or stored only in accord with that
 written license.
  
 The following legend is applicable only to US Government
 contracts under FAR:
  
                    RESTRICTED RIGHTS LEGEND
  
 Use, reproduction and disclosure by the US Government is
 subject to restrictions as set forth in subparagraphs (a)
 and (c) of the Commercial Computer Software - Restricted
 Rights clause in FAR 52.227-19.
  
 Gaussian, Inc.
 340 Quinnipiac St., Bldg. 40, Wallingford CT 06492
  
  
 ---------------------------------------------------------------
 Warning -- This program may not be used in any manner that
 competes with the business of Gaussian, Inc. or will provide
 assistance to any competitor of Gaussian, Inc.  The licensee
 of this program is prohibited from giving any competitor of
 Gaussian, Inc. access to this program.  By using this program,
 the user acknowledges that Gaussian, Inc. is engaged in the
 business of creating and licensing software in the field of
 computational chemistry and represents and warrants to the
 licensee that it is not a competitor of Gaussian, Inc. and that
 it will not use this program in any manner prohibited above.
 ---------------------------------------------------------------
  

 Cite this work as:
 Gaussian 16, Revision C.02,
 M. J. Frisch, G. W. Trucks, H. B. Schlegel, G. E. Scuseria, 
 M. A. Robb, J. R. Cheeseman, G. Scalmani, V. Barone, 
 G. A. Petersson, H. Nakatsuji, X. Li, M. Caricato, A. V. Marenich, 
 J. Bloino, B. G. Janesko, R. Gomperts, B. Mennucci, H. P. Hratchian, 
 J. V. Ortiz, A. F. Izmaylov, J. L. Sonnenberg, D. Williams-Young, 
 F. Ding, F. Lipparini, F. Egidi, J. Goings, B. Peng, A. Petrone, 
 T. Henderson, D. Ranasinghe, V. G. Zakrzewski, J. Gao, N. Rega, 
 G. Zheng, W. Liang, M. Hada, M. Ehara, K. Toyota, R. Fukuda, 
 J. Hasegawa, M. Ishida, T. Nakajima, Y. Honda, O. Kitao, H. Nakai, 
 T. Vreven, K. Throssell, J. A. Montgomery, Jr., J. E. Peralta, 
 F. Ogliaro, M. J. Bearpark, J. J. Heyd, E. N. Brothers, K. N. Kudin, 
 V. N. Staroverov, T. A. Keith, R. Kobayashi, J. Normand, 
 K. Raghavachari, A. P. Rendell, J. C. Burant, S. S. Iyengar, 
 J. Tomasi, M. Cossi, J. M. Millam, M. Klene, C. Adamo, R. Cammi, 
 J. W. Ochterski, R. L. Martin, K. Morokuma, O. Farkas, 
 J. B. Foresman, and D. J. Fox, Gaussian, Inc., Wallingford CT, 2019.
 
 ******************************************
 Gaussian 16:  ES64L-G16RevC.02  7-Dec-2021
                 1-Jul-2023 
 ******************************************
 %mem=8GB
 %NPROCS=4
 Will use up to    4 processors via shared memory.
 %NoSave
 ---------------------------------------------------------
 #MP2/6-31G* SCF=Tight Opt=(ModRedun, MaxCycle=20 ) NoSymm
 ---------------------------------------------------------
 1/6=20,18=120,19=15,38=1/1,3;
 2/9=110,12=2,15=1,17=6,18=5,40=1/2;
 3/5=1,6=6,7=1,11=9,25=1,30=1,71=1/1,2,3;
 4//1;
 5/5=2,32=2,38=5/2;
 8/6=4,10=2/1;
 9/15=2,16=-3/6;
 10/5=1,31=1/2;
 6/7=2,8=2,9=2,10=2/1;
 7/12=2,30=1/1,2,3,16;
 1/6=20,18=20,19=15/3(2);
 2/9=110,15=1/2;
 99//99;
 2/9=110,15=1/2;
 3/5=1,6=6,7=1,11=9,25=1,30=1,71=1/1,2,3;
 4/5=5,16=3,69=1/1;
 5/5=2,32=2,38=5/2;
 8/6=4,10=2/1;
 9/15=2,16=-3/6;
 10/5=1,31=1/2;
 7/12=2,30=1/1,2,3,16;
 1/6=20,18=20,19=15/3(-8);
 2/9=110,15=1/2;
 6/7=2,8=2,9=2,10=2/1;
 99/9=10/99;
 --------
 MolName:
 --------
 Symbolic Z-matrix:
 Charge =  0 Multiplicity = 1
 8                    0    -3.63967  -1.41689  -0.16561 
 7                    0    -3.25543  -0.25903  -0.01015 
 8                    0    -4.01395   0.69337   0.17656 
 6                    0    -1.74968  -0.00573  -0.00405 
 6                    0    -1.34575   1.32643   0.12517 
 7                    0    -0.09086   1.73772   0.48666 
 6                    0     1.19381   0.98054   0.41198 
 1                    0     1.87152   1.46845   1.15973 
 6                    0     1.92664   1.06147  -0.95035 
 6                    0     3.34671   0.48248  -0.80304 
 6                    0     3.30804  -0.94421  -0.2326 
 6                    0     2.48918  -1.00686   1.07482 
 6                    0     1.04316  -0.47896   0.86733 
 1                    0     0.51427  -0.53664   1.84759 
 7                    0     0.37159  -1.3431   -0.10765 
 6                    0    -0.87886  -1.15225  -0.37534 
 1                    0    -2.06924   2.11836  -0.13015 
 1                    0     0.14699   2.73229   0.50768 
 1                    0     1.36378   0.49372  -1.72153 
 1                    0     1.99594   2.11824  -1.28515 
 1                    0     3.85935   0.47955  -1.78982 
 1                    0     3.93469   1.1284   -0.11336 
 1                    0     2.84903  -1.6235   -0.986 
 1                    0     4.34318  -1.3041   -0.04501 
 1                    0     2.4472   -2.05975   1.43033 
 1                    0     2.99553  -0.40512   1.85835 
 1                    0    -1.39617  -1.92186  -0.9684 
 
 The following ModRedundant input section has been read:
 D      16       4       5      17 F                                           
 D       1       2       4      16 F                                           
 D       7      13      15      16 F                                           
 D       7       9      10      11 F                                           
 D       9      10      11      12 F                                           
 D       6       7      13      15 F                                           
 

 GradGradGradGradGradGradGradGradGradGradGradGradGradGradGradGradGradGrad
 Berny optimization.
 Initialization pass.
                           ----------------------------
                           !    Initial Parameters    !
                           ! (Angstroms and Degrees)  !
 --------------------------                            --------------------------
 ! Name  Definition              Value          Derivative Info.                !
 --------------------------------------------------------------------------------
 ! R1    R(1,2)                  1.2298         estimate D2E/DX2                !
 ! R2    R(2,3)                  1.2318         estimate D2E/DX2                !
 ! R3    R(2,4)                  1.5269         estimate D2E/DX2                !
 ! R4    R(4,5)                  1.398          estimate D2E/DX2                !
 ! R5    R(4,16)                 1.4868         estimate D2E/DX2                !
 ! R6    R(5,6)                  1.3692         estimate D2E/DX2                !
 ! R7    R(5,17)                 1.1026         estimate D2E/DX2                !
 ! R8    R(6,7)                  1.4931         estimate D2E/DX2                !
 ! R9    R(6,18)                 1.0228         estimate D2E/DX2                !
 ! R10   R(7,8)                  1.1209         estimate D2E/DX2                !
 ! R11   R(7,9)                  1.549          estimate D2E/DX2                !
 ! R12   R(7,13)                 1.5363         estimate D2E/DX2                !
 ! R13   R(9,10)                 1.5406         estimate D2E/DX2                !
 ! R14   R(9,19)                 1.1108         estimate D2E/DX2                !
 ! R15   R(9,20)                 1.1107         estimate D2E/DX2                !
 ! R16   R(10,11)                1.537          estimate D2E/DX2                !
 ! R17   R(10,21)                1.112          estimate D2E/DX2                !
 ! R18   R(10,22)                1.1129         estimate D2E/DX2                !
 ! R19   R(11,12)                1.544          estimate D2E/DX2                !
 ! R20   R(11,23)                1.1134         estimate D2E/DX2                !
 ! R21   R(11,24)                1.1119         estimate D2E/DX2                !
 ! R22   R(12,13)                1.5533         estimate D2E/DX2                !
 ! R23   R(12,25)                1.1121         estimate D2E/DX2                !
 ! R24   R(12,26)                1.1101         estimate D2E/DX2                !
 ! R25   R(13,14)                1.1153         estimate D2E/DX2                !
 ! R26   R(13,15)                1.4657         estimate D2E/DX2                !
 ! R27   R(15,16)                1.2929         estimate D2E/DX2                !
 ! R28   R(16,27)                1.1007         estimate D2E/DX2                !
 ! A1    A(1,2,3)              123.6912         estimate D2E/DX2                !
 ! A2    A(1,2,4)              117.6969         estimate D2E/DX2                !
 ! A3    A(3,2,4)              118.58           estimate D2E/DX2                !
 ! A4    A(2,4,5)              116.3186         estimate D2E/DX2                !
 ! A5    A(2,4,16)             116.657          estimate D2E/DX2                !
 ! A6    A(5,4,16)             126.0604         estimate D2E/DX2                !
 ! A7    A(4,5,6)              125.1318         estimate D2E/DX2                !
 ! A8    A(4,5,17)             118.255          estimate D2E/DX2                !
 ! A9    A(6,5,17)             116.5371         estimate D2E/DX2                !
 ! A10   A(5,6,7)              128.5404         estimate D2E/DX2                !
 ! A11   A(5,6,18)             120.7076         estimate D2E/DX2                !
 ! A12   A(7,6,18)             107.1012         estimate D2E/DX2                !
 ! A13   A(6,7,8)              105.4324         estimate D2E/DX2                !
 ! A14   A(6,7,9)              115.1219         estimate D2E/DX2                !
 ! A15   A(6,7,13)             112.4937         estimate D2E/DX2                !
 ! A16   A(8,7,9)              106.1354         estimate D2E/DX2                !
 ! A17   A(8,7,13)             105.9671         estimate D2E/DX2                !
 ! A18   A(9,7,13)             110.8974         estimate D2E/DX2                !
 ! A19   A(7,9,10)             109.4109         estimate D2E/DX2                !
 ! A20   A(7,9,19)             110.1301         estimate D2E/DX2                !
 ! A21   A(7,9,20)             110.1405         estimate D2E/DX2                !
 ! A22   A(10,9,19)            109.9599         estimate D2E/DX2                !
 ! A23   A(10,9,20)            109.2007         estimate D2E/DX2                !
 ! A24   A(19,9,20)            107.9777         estimate D2E/DX2                !
 ! A25   A(9,10,11)            111.1703         estimate D2E/DX2                !
 ! A26   A(9,10,21)            109.9423         estimate D2E/DX2                !
 ! A27   A(9,10,22)            109.1546         estimate D2E/DX2                !
 ! A28   A(11,10,21)           109.7855         estimate D2E/DX2                !
 ! A29   A(11,10,22)           108.7856         estimate D2E/DX2                !
 ! A30   A(21,10,22)           107.932          estimate D2E/DX2                !
 ! A31   A(10,11,12)           111.4255         estimate D2E/DX2                !
 ! A32   A(10,11,23)           108.9986         estimate D2E/DX2                !
 ! A33   A(10,11,24)           109.8555         estimate D2E/DX2                !
 ! A34   A(12,11,23)           109.2436         estimate D2E/DX2                !
 ! A35   A(12,11,24)           109.7408         estimate D2E/DX2                !
 ! A36   A(23,11,24)           107.487          estimate D2E/DX2                !
 ! A37   A(11,12,13)           111.5203         estimate D2E/DX2                !
 ! A38   A(11,12,25)           109.2167         estimate D2E/DX2                !
 ! A39   A(11,12,26)           109.4975         estimate D2E/DX2                !
 ! A40   A(13,12,25)           109.2282         estimate D2E/DX2                !
 ! A41   A(13,12,26)           109.5531         estimate D2E/DX2                !
 ! A42   A(25,12,26)           107.7449         estimate D2E/DX2                !
 ! A43   A(7,13,12)            105.7343         estimate D2E/DX2                !
 ! A44   A(7,13,14)            110.8629         estimate D2E/DX2                !
 ! A45   A(7,13,15)            114.0711         estimate D2E/DX2                !
 ! A46   A(12,13,14)           107.8468         estimate D2E/DX2                !
 ! A47   A(12,13,15)           108.3626         estimate D2E/DX2                !
 ! A48   A(14,13,15)           109.6864         estimate D2E/DX2                !
 ! A49   A(13,15,16)           119.592          estimate D2E/DX2                !
 ! A50   A(4,16,15)            128.9438         estimate D2E/DX2                !
 ! A51   A(4,16,27)            113.4803         estimate D2E/DX2                !
 ! A52   A(15,16,27)           117.5721         estimate D2E/DX2                !
 ! D1    D(1,2,4,5)            177.7183         estimate D2E/DX2                !
 ! D2    D(1,2,4,16)             8.2586         Frozen                          !
 ! D3    D(3,2,4,5)             -4.2613         estimate D2E/DX2                !
 ! D4    D(3,2,4,16)          -173.721          estimate D2E/DX2                !
 ! D5    D(2,4,5,6)            162.6199         estimate D2E/DX2                !
 ! D6    D(2,4,5,17)           -20.6692         estimate D2E/DX2                !
 ! D7    D(16,4,5,6)           -29.0476         estimate D2E/DX2                !
 ! D8    D(16,4,5,17)          147.6633         Frozen                          !
 ! D9    D(2,4,16,15)         -158.8027         estimate D2E/DX2                !
 ! D10   D(2,4,16,27)           21.9391         estimate D2E/DX2                !
 ! D11   D(5,4,16,15)           32.8996         estimate D2E/DX2                !
 ! D12   D(5,4,16,27)         -146.3586         estimate D2E/DX2                !
 ! D13   D(4,5,6,7)             20.8467         estimate D2E/DX2                !
 ! D14   D(4,5,6,18)           176.4057         estimate D2E/DX2                !
 ! D15   D(17,5,6,7)          -155.915          estimate D2E/DX2                !
 ! D16   D(17,5,6,18)           -0.3559         estimate D2E/DX2                !
 ! D17   D(5,6,7,8)           -157.2327         estimate D2E/DX2                !
 ! D18   D(5,6,7,9)             86.1604         estimate D2E/DX2                !
 ! D19   D(5,6,7,13)           -42.197          estimate D2E/DX2                !
 ! D20   D(18,6,7,8)            44.6184         estimate D2E/DX2                !
 ! D21   D(18,6,7,9)           -71.9884         estimate D2E/DX2                !
 ! D22   D(18,6,7,13)          159.6541         estimate D2E/DX2                !
 ! D23   D(6,7,9,10)           168.8415         estimate D2E/DX2                !
 ! D24   D(6,7,9,19)           -70.1851         estimate D2E/DX2                !
 ! D25   D(6,7,9,20)            48.7991         estimate D2E/DX2                !
 ! D26   D(8,7,9,10)            52.6348         estimate D2E/DX2                !
 ! D27   D(8,7,9,19)           173.6082         estimate D2E/DX2                !
 ! D28   D(8,7,9,20)           -67.4076         estimate D2E/DX2                !
 ! D29   D(13,7,9,10)          -62.0098         estimate D2E/DX2                !
 ! D30   D(13,7,9,19)           58.9637         estimate D2E/DX2                !
 ! D31   D(13,7,9,20)          177.9478         estimate D2E/DX2                !
 ! D32   D(6,7,13,12)         -166.0098         estimate D2E/DX2                !
 ! D33   D(6,7,13,14)          -49.3867         estimate D2E/DX2                !
 ! D34   D(6,7,13,15)           75.0223         Frozen                          !
 ! D35   D(8,7,13,12)          -51.2982         estimate D2E/DX2                !
 ! D36   D(8,7,13,14)           65.3248         estimate D2E/DX2                !
 ! D37   D(8,7,13,15)         -170.2662         estimate D2E/DX2                !
 ! D38   D(9,7,13,12)           63.4517         estimate D2E/DX2                !
 ! D39   D(9,7,13,14)         -179.9253         estimate D2E/DX2                !
 ! D40   D(9,7,13,15)          -55.5163         estimate D2E/DX2                !
 ! D41   D(7,9,10,11)           54.812          Frozen                          !
 ! D42   D(7,9,10,21)          176.5927         estimate D2E/DX2                !
 ! D43   D(7,9,10,22)          -65.1942         estimate D2E/DX2                !
 ! D44   D(19,9,10,11)         -66.2647         estimate D2E/DX2                !
 ! D45   D(19,9,10,21)          55.5161         estimate D2E/DX2                !
 ! D46   D(19,9,10,22)         173.7292         estimate D2E/DX2                !
 ! D47   D(20,9,10,11)         175.4287         estimate D2E/DX2                !
 ! D48   D(20,9,10,21)         -62.7906         estimate D2E/DX2                !
 ! D49   D(20,9,10,22)          55.4225         estimate D2E/DX2                !
 ! D50   D(9,10,11,12)         -52.8221         Frozen                          !
 ! D51   D(9,10,11,23)          67.8121         estimate D2E/DX2                !
 ! D52   D(9,10,11,24)        -174.6574         estimate D2E/DX2                !
 ! D53   D(21,10,11,12)       -174.6941         estimate D2E/DX2                !
 ! D54   D(21,10,11,23)        -54.0599         estimate D2E/DX2                !
 ! D55   D(21,10,11,24)         63.4706         estimate D2E/DX2                !
 ! D56   D(22,10,11,12)         67.4027         estimate D2E/DX2                !
 ! D57   D(22,10,11,23)       -171.9631         estimate D2E/DX2                !
 ! D58   D(22,10,11,24)        -54.4326         estimate D2E/DX2                !
 ! D59   D(10,11,12,13)         56.6864         estimate D2E/DX2                !
 ! D60   D(10,11,12,25)        177.5066         estimate D2E/DX2                !
 ! D61   D(10,11,12,26)        -64.7305         estimate D2E/DX2                !
 ! D62   D(23,11,12,13)        -63.804          estimate D2E/DX2                !
 ! D63   D(23,11,12,25)         57.0162         estimate D2E/DX2                !
 ! D64   D(23,11,12,26)        174.7791         estimate D2E/DX2                !
 ! D65   D(24,11,12,13)        178.5881         estimate D2E/DX2                !
 ! D66   D(24,11,12,25)        -60.5917         estimate D2E/DX2                !
 ! D67   D(24,11,12,26)         57.1712         estimate D2E/DX2                !
 ! D68   D(11,12,13,7)         -60.4933         estimate D2E/DX2                !
 ! D69   D(11,12,13,14)       -179.1402         estimate D2E/DX2                !
 ! D70   D(11,12,13,15)         62.1902         estimate D2E/DX2                !
 ! D71   D(25,12,13,7)         178.6932         estimate D2E/DX2                !
 ! D72   D(25,12,13,14)         60.0463         estimate D2E/DX2                !
 ! D73   D(25,12,13,15)        -58.6233         estimate D2E/DX2                !
 ! D74   D(26,12,13,7)          60.8912         estimate D2E/DX2                !
 ! D75   D(26,12,13,14)        -57.7556         estimate D2E/DX2                !
 ! D76   D(26,12,13,15)       -176.4253         estimate D2E/DX2                !
 ! D77   D(7,13,15,16)         -67.1604         Frozen                          !
 ! D78   D(12,13,15,16)        175.374          estimate D2E/DX2                !
 ! D79   D(14,13,15,16)         57.8758         estimate D2E/DX2                !
 ! D80   D(13,15,16,4)          11.4843         estimate D2E/DX2                !
 ! D81   D(13,15,16,27)       -169.2832         estimate D2E/DX2                !
 --------------------------------------------------------------------------------
 Trust Radius=3.00D-01 FncErr=1.00D-07 GrdErr=1.00D-07 EigMax=2.50D+02 EigMin=1.00D-04
 Number of steps in this run=     20 maximum allowed number of steps=    162.
 GradGradGradGradGradGradGradGradGradGradGradGradGradGradGradGradGradGrad

                          Input orientation:                          
 ---------------------------------------------------------------------
 Center     Atomic      Atomic             Coordinates (Angstroms)
 Number     Number       Type             X           Y           Z
 ---------------------------------------------------------------------
      1          8           0       -3.639670   -1.416890   -0.165610
      2          7           0       -3.255430   -0.259030   -0.010150
      3          8           0       -4.013950    0.693370    0.176560
      4          6           0       -1.749680   -0.005730   -0.004050
      5          6           0       -1.345750    1.326430    0.125170
      6          7           0       -0.090860    1.737720    0.486660
      7          6           0        1.193810    0.980540    0.411980
      8          1           0        1.871520    1.468450    1.159730
      9          6           0        1.926640    1.061470   -0.950350
     10          6           0        3.346710    0.482480   -0.803040
     11          6           0        3.308040   -0.944210   -0.232600
     12          6           0        2.489180   -1.006860    1.074820
     13          6           0        1.043160   -0.478960    0.867330
     14          1           0        0.514270   -0.536640    1.847590
     15          7           0        0.371590   -1.343100   -0.107650
     16          6           0       -0.878860   -1.152250   -0.375340
     17          1           0       -2.069240    2.118360   -0.130150
     18          1           0        0.146990    2.732290    0.507680
     19          1           0        1.363780    0.493720   -1.721530
     20          1           0        1.995940    2.118240   -1.285150
     21          1           0        3.859350    0.479550   -1.789820
     22          1           0        3.934690    1.128400   -0.113360
     23          1           0        2.849030   -1.623500   -0.986000
     24          1           0        4.343180   -1.304100   -0.045010
     25          1           0        2.447200   -2.059750    1.430330
     26          1           0        2.995530   -0.405120    1.858350
     27          1           0       -1.396170   -1.921860   -0.968400
 ---------------------------------------------------------------------
                    Distance matrix (angstroms):
                    1          2          3          4          5
     1  O    0.000000
     2  N    1.229816   0.000000
     3  O    2.170337   1.231779   0.000000
     4  C    2.364220   1.526919   2.376611   0.000000
     5  C    3.587816   2.485734   2.742754   1.398037   0.000000
     6  N    4.792815   3.774697   4.071543   2.456033   1.369154
     7  C    5.426215   4.637937   5.220982   3.132083   2.579005
     8  H    6.360419   5.535199   6.017153   4.079299   3.382501
     9  C    6.143443   5.429691   6.057725   3.943314   3.454777
    10  C    7.267973   6.690797   7.428553   5.181691   4.857263
    11  C    6.964093   6.602885   7.514028   5.149127   5.190527
    12  C    6.266546   5.893806   6.781471   4.487110   4.588329
    13  C    4.886264   4.392746   5.236973   2.963647   3.084984
    14  H    4.699259   4.211758   4.980968   2.972525   3.146019
    15  N    4.012357   3.786818   4.843650   2.509796   3.182743
    16  C    2.781383   2.565013   3.679633   1.486840   2.571449
    17  H    3.868527   2.659592   2.430342   2.151692   1.102624
    18  H    5.657544   4.559891   4.645456   3.369863   2.085912
    19  H    5.577260   4.983227   5.706364   3.590657   3.383084
    20  H    6.746155   5.903721   6.347096   4.492453   3.712527
    21  H    7.903787   7.371080   8.117957   5.906411   5.610478
    22  H    7.990755   7.323486   7.965813   5.797436   5.289533
    23  H    6.543619   6.330758   7.336207   4.972880   5.247186
    24  H    7.984558   7.670219   8.595383   6.229798   6.269974
    25  H    6.325368   6.151225   7.134288   4.887765   5.249393
    26  H    7.010419   6.525882   7.291633   5.113224   4.984866
    27  H    2.435726   2.672096   3.873388   2.174050   3.427802
                    6          7          8          9         10
     6  N    0.000000
     7  C    1.493076   0.000000
     8  H    2.092000   1.120927   0.000000
     9  C    2.567609   1.549042   2.149676   0.000000
    10  C    3.880186   2.521768   2.645900   1.540626   0.000000
    11  C    4.388918   2.930890   3.134183   2.538933   1.536991
    12  C    3.812513   2.463148   2.552621   2.948856   2.545555
    13  C    2.518845   1.536288   2.136372   2.541146   3.003472
    14  H    2.718644   2.196494   2.517075   3.518126   4.010880
    15  N    3.171516   2.519001   3.429410   2.985009   3.559164
    16  C    3.117036   3.076463   4.097450   3.619672   4.550902
    17  H    2.106971   3.498004   4.197114   4.213882   5.697491
    18  H    1.022831   2.042944   2.235277   2.843351   4.125268
    19  H    2.922262   2.194937   3.083757   1.110797   2.185352
    20  H    2.763845   2.195000   2.532814   1.110701   2.175482
    21  H    4.729642   3.493425   3.691780   2.186026   1.112000
    22  H    4.115379   2.794686   2.448073   2.176533   1.112920
    23  H    4.702072   3.387495   3.888424   2.839214   2.171707
    24  H    5.403337   3.917518   3.904809   3.500747   2.181612
    25  H    4.664015   3.442584   3.585084   3.959878   3.501427
    26  H    3.999887   2.694111   2.293847   3.343981   2.827394
    27  H    4.148923   4.127635   5.167295   4.465607   5.320066
                   11         12         13         14         15
    11  C    0.000000
    12  C    1.543957   0.000000
    13  C    2.560466   1.553288   0.000000
    14  H    3.506915   2.172222   1.115330   0.000000
    15  N    2.966052   2.448567   1.465718   2.119835   0.000000
    16  C    4.194495   3.669850   2.385730   2.694662   1.292945
    17  H    6.189101   5.656690   4.174694   4.199405   4.235548
    18  H    4.904784   4.448454   3.353296   3.551923   4.127697
    19  H    2.839842   3.367171   2.784080   3.810765   2.638742
    20  H    3.494005   3.947023   3.505197   4.365523   4.000737
    21  H    2.180819   3.506129   3.988748   5.045092   4.279745
    22  H    2.168553   2.839121   3.450551   4.279831   4.336361
    23  H    1.113435   2.180990   2.829482   3.829047   2.643451
    24  H    1.111857   2.186249   3.521839   4.339525   3.972275
    25  H    2.179636   1.112082   2.187966   2.496035   2.680882
    26  H    2.181823   1.110135   2.190735   2.484766   3.410282
    27  H    4.860740   4.484185   3.376714   3.674019   2.049592
                   16         17         18         19         20
    16  C    0.000000
    17  H    3.489128   0.000000
    18  H    4.113605   2.386506   0.000000
    19  H    3.090450   4.117957   3.385432   0.000000
    20  H    4.448408   4.226075   2.647624   1.796975   0.000000
    21  H    5.207126   6.370901   4.912735   2.496544   2.532251
    22  H    5.332941   6.085021   4.159907   3.098162   2.472170
    23  H    3.806855   6.238860   5.339008   2.688790   3.849399
    24  H    5.234680   7.269086   5.848583   3.862603   4.331269
    25  H    3.891873   6.347435   5.394988   4.198599   5.003306
    26  H    4.534145   5.997831   4.447677   4.035599   4.153085
    27  H    1.100740   4.180797   5.120671   3.744270   5.284804
                   21         22         23         24         25
    21  H    0.000000
    22  H    1.799222   0.000000
    23  H    2.467730   3.084333   0.000000
    24  H    2.541626   2.467507   1.794425   0.000000
    25  H    4.337232   3.841862   2.488058   2.518407   0.000000
    26  H    3.852009   2.668585   3.097780   2.499421   1.794900
    27  H    5.836265   6.201068   4.255708   5.845889   4.532594
                   26         27
    26  H    0.000000
    27  H    5.438570   0.000000
 Symmetry turned off by external request.
 Stoichiometry    C9H13N3O2
 Framework group  C1[X(C9H13N3O2)]
 Deg. of freedom    75
 Full point group                 C1      NOp   1
 Rotational constants (GHZ):           1.6713481           0.4017798           0.3560422
 Standard basis: 6-31G(d) (6D, 7F)
   236 basis functions,   444 primitive gaussians,   236 cartesian basis functions
    52 alpha electrons       52 beta electrons
       nuclear repulsion energy       917.8625819041 Hartrees.
 NAtoms=   27 NActive=   27 NUniq=   27 SFac= 1.00D+00 NAtFMM=   60 NAOKFM=F Big=F
 Integral buffers will be    131072 words long.
 Raffenetti 1 integral format.
 Two-electron integral symmetry is turned off.
 One-electron integrals computed using PRISM.
 NBasis=   236 RedAO= T EigKep=  1.35D-03  NBF=   236
 NBsUse=   236 1.00D-06 EigRej= -1.00D+00 NBFU=   236
 ExpMin= 1.61D-01 ExpMax= 5.48D+03 ExpMxC= 8.25D+02 IAcc=3 IRadAn=         5 AccDes= 0.00D+00
 Harris functional with IExCor=  205 and IRadAn=       5 diagonalized for initial guess.
 HarFok:  IExCor=  205 AccDes= 0.00D+00 IRadAn=         5 IDoV= 1 UseB2=F ITyADJ=14
 ICtDFT=  3500011 ScaDFX=  1.000000  1.000000  1.000000  1.000000
 FoFCou: FMM=F IPFlag=           0 FMFlag=      100000 FMFlg1=           0
         NFxFlg=           0 DoJE=T BraDBF=F KetDBF=T FulRan=T
         wScrn=  0.000000 ICntrl=       500 IOpCl=  0 I1Cent=   200000004 NGrid=           0
         NMat0=    1 NMatS0=      1 NMatT0=    0 NMatD0=    1 NMtDS0=    0 NMtDT0=    0
 Symmetry not used in FoFCou.
 Keep R1 ints in memory in canonical form, NReq=397720213.
 Requested convergence on RMS density matrix=1.00D-08 within 128 cycles.
 Requested convergence on MAX density matrix=1.00D-06.
 Requested convergence on             energy=1.00D-06.
 No special actions if energy rises.
 SCF Done:  E(RHF) =  -661.274590006     A.U. after   16 cycles
            NFock= 16  Conv=0.44D-08     -V/T= 2.0036
 ExpMin= 1.61D-01 ExpMax= 5.48D+03 ExpMxC= 8.25D+02 IAcc=3 IRadAn=         5 AccDes= 0.00D+00
 HarFok:  IExCor=  205 AccDes= 0.00D+00 IRadAn=         5 IDoV=-2 UseB2=F ITyADJ=14
 ICtDFT= 12500011 ScaDFX=  1.000000  1.000000  1.000000  1.000000
 Range of M.O.s used for correlation:    15   236
 NBasis=   236 NAE=    52 NBE=    52 NFC=    14 NFV=     0
 NROrb=    222 NOA=    38 NOB=    38 NVA=   184 NVB=   184
 Fully direct method using O(ONN) memory.
 JobTyp=1 Pass  1:  I=  15 to  52 NPSUse=  4 ParTrn=T ParDer=T DoDerP=T.
 Spin components of T(2) and E(2):
     alpha-alpha T2 =       0.9210758253D-01 E2=     -0.2719789025D+00
     alpha-beta  T2 =       0.4997985730D+00 E2=     -0.1494030079D+01
     beta-beta   T2 =       0.9210758253D-01 E2=     -0.2719789025D+00
 ANorm=    0.1297695549D+01
 E2 =    -0.2037987884D+01 EUMP2 =    -0.66331257789010D+03
          IDoAtm=111111111111111111111111111
          Differentiating once with respect to electric field.
                with respect to dipole field.
          Differentiating once with respect to nuclear coordinates.
 Keep R1 ints in memory in canonical form, NReq=397723379.
          There are     1 degrees of freedom in the 1st order CPHF.  IDoFFX=0 NUNeed=     1.
 LinEq1:  Iter=  0 NonCon=     1 RMS=4.66D-03 Max=1.19D-01 NDo=     1
 AX will form     1 AO Fock derivatives at one time.
 LinEq1:  Iter=  1 NonCon=     1 RMS=1.58D-03 Max=3.27D-02 NDo=     1
 LinEq1:  Iter=  2 NonCon=     1 RMS=6.49D-04 Max=1.92D-02 NDo=     1
 LinEq1:  Iter=  3 NonCon=     1 RMS=3.00D-04 Max=1.09D-02 NDo=     1
 LinEq1:  Iter=  4 NonCon=     1 RMS=9.27D-05 Max=2.42D-03 NDo=     1
 LinEq1:  Iter=  5 NonCon=     1 RMS=3.89D-05 Max=1.98D-03 NDo=     1
 LinEq1:  Iter=  6 NonCon=     1 RMS=1.56D-05 Max=5.25D-04 NDo=     1
 LinEq1:  Iter=  7 NonCon=     1 RMS=6.03D-06 Max=8.75D-05 NDo=     1
 LinEq1:  Iter=  8 NonCon=     1 RMS=2.33D-06 Max=5.23D-05 NDo=     1
 LinEq1:  Iter=  9 NonCon=     1 RMS=8.46D-07 Max=2.35D-05 NDo=     1
 LinEq1:  Iter= 10 NonCon=     1 RMS=4.10D-07 Max=1.40D-05 NDo=     1
 LinEq1:  Iter= 11 NonCon=     1 RMS=1.55D-07 Max=5.61D-06 NDo=     1
 LinEq1:  Iter= 12 NonCon=     1 RMS=5.60D-08 Max=8.89D-07 NDo=     1
 LinEq1:  Iter= 13 NonCon=     1 RMS=1.85D-08 Max=3.51D-07 NDo=     1
 LinEq1:  Iter= 14 NonCon=     1 RMS=6.00D-09 Max=1.35D-07 NDo=     1
 LinEq1:  Iter= 15 NonCon=     1 RMS=2.16D-09 Max=6.39D-08 NDo=     1
 LinEq1:  Iter= 16 NonCon=     1 RMS=7.35D-10 Max=7.85D-09 NDo=     1
 LinEq1:  Iter= 17 NonCon=     1 RMS=2.34D-10 Max=3.96D-09 NDo=     1
 LinEq1:  Iter= 18 NonCon=     0 RMS=7.76D-11 Max=8.91D-10 NDo=     1
 Linear equations converged to 1.000D-10 1.000D-09 after    18 iterations.
 End of Minotr F.D. properties file   721 does not exist.
 End of Minotr F.D. properties file   722 does not exist.
 End of Minotr F.D. properties file   788 does not exist.

 **********************************************************************

            Population analysis using the SCF Density.

 **********************************************************************

 Alpha  occ. eigenvalues --  -20.59495 -20.59127 -15.85007 -15.63990 -15.56331
 Alpha  occ. eigenvalues --  -11.36250 -11.30444 -11.30287 -11.29704 -11.27523
 Alpha  occ. eigenvalues --  -11.24788 -11.23976 -11.23314 -11.22848  -1.58205
 Alpha  occ. eigenvalues --   -1.37713  -1.29049  -1.22547  -1.13338  -1.08386
 Alpha  occ. eigenvalues --   -1.01783  -1.00706  -0.93700  -0.88872  -0.84988
 Alpha  occ. eigenvalues --   -0.81543  -0.77839  -0.77023  -0.74275  -0.71569
 Alpha  occ. eigenvalues --   -0.69993  -0.69599  -0.67222  -0.64383  -0.63432
 Alpha  occ. eigenvalues --   -0.62642  -0.59631  -0.56894  -0.56668  -0.54731
 Alpha  occ. eigenvalues --   -0.54477  -0.50487  -0.49610  -0.48281  -0.47904
 Alpha  occ. eigenvalues --   -0.47497  -0.46252  -0.45601  -0.43796  -0.41817
 Alpha  occ. eigenvalues --   -0.39575  -0.33504
 Alpha virt. eigenvalues --    0.07310   0.12028   0.17200   0.20808   0.22627
 Alpha virt. eigenvalues --    0.24197   0.26945   0.28054   0.28399   0.28739
 Alpha virt. eigenvalues --    0.29977   0.31100   0.31744   0.32354   0.33240
 Alpha virt. eigenvalues --    0.33870   0.34601   0.35878   0.37416   0.38808
 Alpha virt. eigenvalues --    0.40223   0.41544   0.44243   0.45118   0.45496
 Alpha virt. eigenvalues --    0.47168   0.49722   0.52772   0.56351   0.58846
 Alpha virt. eigenvalues --    0.63515   0.68673   0.69296   0.72343   0.74056
 Alpha virt. eigenvalues --    0.74996   0.75722   0.75988   0.78001   0.78570
 Alpha virt. eigenvalues --    0.80261   0.84104   0.84516   0.85747   0.87105
 Alpha virt. eigenvalues --    0.88514   0.90513   0.90974   0.92041   0.93979
 Alpha virt. eigenvalues --    0.94784   0.97597   0.98618   1.00287   1.02005
 Alpha virt. eigenvalues --    1.02797   1.04681   1.05340   1.06790   1.08296
 Alpha virt. eigenvalues --    1.09456   1.10435   1.11534   1.12283   1.13059
 Alpha virt. eigenvalues --    1.13480   1.13797   1.14962   1.15751   1.16978
 Alpha virt. eigenvalues --    1.17255   1.18510   1.19698   1.21649   1.22520
 Alpha virt. eigenvalues --    1.24453   1.24980   1.25857   1.26522   1.27595
 Alpha virt. eigenvalues --    1.30042   1.31208   1.34020   1.37111   1.39440
 Alpha virt. eigenvalues --    1.40641   1.44354   1.48586   1.49827   1.51049
 Alpha virt. eigenvalues --    1.55758   1.58222   1.60133   1.61505   1.67587
 Alpha virt. eigenvalues --    1.68630   1.69014   1.71639   1.74369   1.76791
 Alpha virt. eigenvalues --    1.78920   1.81185   1.85849   1.87039   1.91687
 Alpha virt. eigenvalues --    1.94001   1.95423   1.97679   1.99263   1.99648
 Alpha virt. eigenvalues --    2.02761   2.04100   2.07129   2.09265   2.11733
 Alpha virt. eigenvalues --    2.12348   2.12931   2.17350   2.18454   2.19323
 Alpha virt. eigenvalues --    2.21001   2.22668   2.23893   2.25577   2.26515
 Alpha virt. eigenvalues --    2.29942   2.31753   2.32760   2.35086   2.36064
 Alpha virt. eigenvalues --    2.39614   2.40447   2.42262   2.44180   2.46681
 Alpha virt. eigenvalues --    2.48632   2.50290   2.50898   2.55886   2.58537
 Alpha virt. eigenvalues --    2.60575   2.63393   2.66548   2.67945   2.69132
 Alpha virt. eigenvalues --    2.70227   2.70866   2.74534   2.77312   2.81505
 Alpha virt. eigenvalues --    2.83421   2.85557   2.91070   2.91220   2.94751
 Alpha virt. eigenvalues --    2.97056   2.98297   3.01901   3.04470   3.05714
 Alpha virt. eigenvalues --    3.07911   3.14428   3.17623   3.22659   3.27010
 Alpha virt. eigenvalues --    3.32280   3.34194   3.37636   3.42911   3.58251
 Alpha virt. eigenvalues --    4.10245   4.23896   4.31104   4.34077   4.43290
 Alpha virt. eigenvalues --    4.52277   4.59530   4.61610   4.70230   4.78191
 Alpha virt. eigenvalues --    4.94703   4.99261   5.02367   5.10573
          Condensed to atoms (all electrons):
               1          2          3          4          5          6
     1  O    8.304326   0.311478  -0.088905  -0.079640   0.003637  -0.000012
     2  N    0.311478   5.683823   0.309842   0.266191  -0.046266   0.001050
     3  O   -0.088905   0.309842   8.332793  -0.088075   0.008702   0.000344
     4  C   -0.079640   0.266191  -0.088075   5.261675   0.566424  -0.056288
     5  C    0.003637  -0.046266   0.008702   0.566424   4.671729   0.310767
     6  N   -0.000012   0.001050   0.000344  -0.056288   0.310767   7.157981
     7  C    0.000003  -0.000081   0.000003   0.004292  -0.028144   0.206353
     8  H   -0.000000   0.000001  -0.000000  -0.000307   0.003599  -0.046033
     9  C   -0.000000  -0.000002   0.000000   0.000749  -0.000878  -0.057537
    10  C   -0.000000   0.000000  -0.000000  -0.000032   0.000010   0.003353
    11  C   -0.000000  -0.000000  -0.000000  -0.000011   0.000014  -0.000159
    12  C   -0.000000   0.000001  -0.000000  -0.000136  -0.000236   0.003704
    13  C   -0.000019  -0.000023  -0.000004  -0.009637   0.000116  -0.050138
    14  H   -0.000001  -0.000083   0.000000   0.002756   0.002895  -0.005057
    15  N    0.000223   0.001713  -0.000013  -0.063915  -0.003669   0.001203
    16  C    0.002891  -0.027424   0.002162   0.318175  -0.043106  -0.000716
    17  H    0.000104  -0.004785   0.010223  -0.025098   0.373927  -0.034078
    18  H    0.000000  -0.000037   0.000007   0.001855  -0.024908   0.329233
    19  H    0.000000  -0.000002   0.000000  -0.000977   0.001388   0.000007
    20  H    0.000000  -0.000000   0.000000  -0.000018   0.000078  -0.000683
    21  H   -0.000000   0.000000  -0.000000   0.000001   0.000000  -0.000063
    22  H   -0.000000   0.000000  -0.000000  -0.000000  -0.000001  -0.000088
    23  H    0.000000  -0.000000   0.000000   0.000023  -0.000001  -0.000023
    24  H    0.000000   0.000000   0.000000   0.000000  -0.000000   0.000005
    25  H    0.000000  -0.000000   0.000000   0.000016   0.000002  -0.000073
    26  H    0.000000  -0.000000   0.000000   0.000005   0.000001  -0.000069
    27  H    0.006112  -0.000633   0.000033  -0.066925   0.001536   0.000024
               7          8          9         10         11         12
     1  O    0.000003  -0.000000  -0.000000  -0.000000  -0.000000  -0.000000
     2  N   -0.000081   0.000001  -0.000002   0.000000  -0.000000   0.000001
     3  O    0.000003  -0.000000   0.000000  -0.000000  -0.000000  -0.000000
     4  C    0.004292  -0.000307   0.000749  -0.000032  -0.000011  -0.000136
     5  C   -0.028144   0.003599  -0.000878   0.000010   0.000014  -0.000236
     6  N    0.206353  -0.046033  -0.057537   0.003353  -0.000159   0.003704
     7  C    5.034518   0.413207   0.343105  -0.049148  -0.007981  -0.064718
     8  H    0.413207   0.542032  -0.058204   0.001066  -0.000298  -0.003042
     9  C    0.343105  -0.058204   5.177551   0.318816  -0.053290  -0.005710
    10  C   -0.049148   0.001066   0.318816   5.126161   0.332534  -0.060408
    11  C   -0.007981  -0.000298  -0.053290   0.332534   5.124728   0.330226
    12  C   -0.064718  -0.003042  -0.005710  -0.060408   0.330226   5.139068
    13  C    0.323380  -0.038400  -0.055434  -0.000884  -0.047680   0.367968
    14  H   -0.040498  -0.001101   0.003844  -0.000394   0.003988  -0.040882
    15  N   -0.057347   0.003777  -0.011515   0.001199  -0.007572  -0.074353
    16  C   -0.002937   0.000051  -0.000841  -0.000025  -0.000014   0.002451
    17  H    0.001489  -0.000036  -0.000102   0.000001   0.000000   0.000001
    18  H   -0.029820  -0.003543   0.000636  -0.000089   0.000009  -0.000148
    19  H   -0.035869   0.004009   0.387228  -0.032691  -0.002195   0.000569
    20  H   -0.042361  -0.001863   0.397035  -0.036925   0.004124  -0.000381
    21  H    0.004072  -0.000076  -0.035787   0.399950  -0.035748   0.004229
    22  H   -0.004394   0.003538  -0.045844   0.396056  -0.045558  -0.001215
    23  H    0.000446   0.000035  -0.002032  -0.040099   0.396605  -0.036520
    24  H   -0.000152  -0.000106   0.004431  -0.038575   0.400252  -0.037865
    25  H    0.005093  -0.000006  -0.000385   0.004111  -0.033779   0.395106
    26  H   -0.004495   0.001537   0.001106  -0.002463  -0.042556   0.394584
    27  H   -0.000398   0.000008  -0.000065   0.000005   0.000005  -0.000024
              13         14         15         16         17         18
     1  O   -0.000019  -0.000001   0.000223   0.002891   0.000104   0.000000
     2  N   -0.000023  -0.000083   0.001713  -0.027424  -0.004785  -0.000037
     3  O   -0.000004   0.000000  -0.000013   0.002162   0.010223   0.000007
     4  C   -0.009637   0.002756  -0.063915   0.318175  -0.025098   0.001855
     5  C    0.000116   0.002895  -0.003669  -0.043106   0.373927  -0.024908
     6  N   -0.050138  -0.005057   0.001203  -0.000716  -0.034078   0.329233
     7  C    0.323380  -0.040498  -0.057347  -0.002937   0.001489  -0.029820
     8  H   -0.038400  -0.001101   0.003777   0.000051  -0.000036  -0.003543
     9  C   -0.055434   0.003844  -0.011515  -0.000841  -0.000102   0.000636
    10  C   -0.000884  -0.000394   0.001199  -0.000025   0.000001  -0.000089
    11  C   -0.047680   0.003988  -0.007572  -0.000014   0.000000   0.000009
    12  C    0.367968  -0.040882  -0.074353   0.002451   0.000001  -0.000148
    13  C    5.020469   0.404792   0.244605  -0.069363  -0.000008   0.003890
    14  H    0.404792   0.515770  -0.035597  -0.004442   0.000042  -0.000045
    15  N    0.244605  -0.035597   6.946883   0.586092  -0.000048  -0.000130
    16  C   -0.069363  -0.004442   0.586092   4.707476   0.002009  -0.000202
    17  H   -0.000008   0.000042  -0.000048   0.002009   0.392517  -0.002155
    18  H    0.003890  -0.000045  -0.000130  -0.000202  -0.002155   0.326246
    19  H   -0.005718   0.000063   0.006464   0.002634   0.000015  -0.000109
    20  H    0.003932  -0.000051   0.000071  -0.000035  -0.000002   0.002176
    21  H   -0.000415   0.000008  -0.000035   0.000002  -0.000000  -0.000000
    22  H    0.000331  -0.000043   0.000002  -0.000001  -0.000000   0.000004
    23  H   -0.005900   0.000011   0.006951   0.000045   0.000000   0.000000
    24  H    0.004152  -0.000058   0.000041   0.000005   0.000000  -0.000000
    25  H   -0.034145  -0.002723   0.000945  -0.000051  -0.000000   0.000003
    26  H   -0.045118  -0.000883   0.004190  -0.000051   0.000000  -0.000001
    27  H    0.004864  -0.000177  -0.039276   0.402852  -0.000081   0.000001
              19         20         21         22         23         24
     1  O    0.000000   0.000000  -0.000000  -0.000000   0.000000   0.000000
     2  N   -0.000002  -0.000000   0.000000   0.000000  -0.000000   0.000000
     3  O    0.000000   0.000000  -0.000000  -0.000000   0.000000   0.000000
     4  C   -0.000977  -0.000018   0.000001  -0.000000   0.000023   0.000000
     5  C    0.001388   0.000078   0.000000  -0.000001  -0.000001  -0.000000
     6  N    0.000007  -0.000683  -0.000063  -0.000088  -0.000023   0.000005
     7  C   -0.035869  -0.042361   0.004072  -0.004394   0.000446  -0.000152
     8  H    0.004009  -0.001863  -0.000076   0.003538   0.000035  -0.000106
     9  C    0.387228   0.397035  -0.035787  -0.045844  -0.002032   0.004431
    10  C   -0.032691  -0.036925   0.399950   0.396056  -0.040099  -0.038575
    11  C   -0.002195   0.004124  -0.035748  -0.045558   0.396605   0.400252
    12  C    0.000569  -0.000381   0.004229  -0.001215  -0.036520  -0.037865
    13  C   -0.005718   0.003932  -0.000415   0.000331  -0.005900   0.004152
    14  H    0.000063  -0.000051   0.000008  -0.000043   0.000011  -0.000058
    15  N    0.006464   0.000071  -0.000035   0.000002   0.006951   0.000041
    16  C    0.002634  -0.000035   0.000002  -0.000001   0.000045   0.000005
    17  H    0.000015  -0.000002  -0.000000  -0.000000   0.000000   0.000000
    18  H   -0.000109   0.002176  -0.000000   0.000004   0.000000  -0.000000
    19  H    0.507568  -0.024074  -0.002605   0.003767   0.001659  -0.000072
    20  H   -0.024074   0.548774  -0.002667  -0.002960  -0.000049  -0.000090
    21  H   -0.002605  -0.002667   0.525704  -0.024683  -0.002803  -0.002074
    22  H    0.003767  -0.002960  -0.024683   0.568946   0.004056  -0.003591
    23  H    0.001659  -0.000049  -0.002803   0.004056   0.509046  -0.024969
    24  H   -0.000072  -0.000090  -0.002074  -0.003591  -0.024969   0.541328
    25  H   -0.000028   0.000011  -0.000086  -0.000083  -0.002083  -0.002409
    26  H    0.000022  -0.000035  -0.000073   0.002469   0.003831  -0.002757
    27  H    0.000079   0.000000  -0.000000   0.000000  -0.000021  -0.000000
              25         26         27
     1  O    0.000000   0.000000   0.006112
     2  N   -0.000000  -0.000000  -0.000633
     3  O    0.000000   0.000000   0.000033
     4  C    0.000016   0.000005  -0.066925
     5  C    0.000002   0.000001   0.001536
     6  N   -0.000073  -0.000069   0.000024
     7  C    0.005093  -0.004495  -0.000398
     8  H   -0.000006   0.001537   0.000008
     9  C   -0.000385   0.001106  -0.000065
    10  C    0.004111  -0.002463   0.000005
    11  C   -0.033779  -0.042556   0.000005
    12  C    0.395106   0.394584  -0.000024
    13  C   -0.034145  -0.045118   0.004864
    14  H   -0.002723  -0.000883  -0.000177
    15  N    0.000945   0.004190  -0.039276
    16  C   -0.000051  -0.000051   0.402852
    17  H   -0.000000   0.000000  -0.000081
    18  H    0.000003  -0.000001   0.000001
    19  H   -0.000028   0.000022   0.000079
    20  H    0.000011  -0.000035   0.000000
    21  H   -0.000086  -0.000073  -0.000000
    22  H   -0.000083   0.002469   0.000000
    23  H   -0.002083   0.003831  -0.000021
    24  H   -0.002409  -0.002757  -0.000000
    25  H    0.509714  -0.023146  -0.000011
    26  H   -0.023146   0.563235   0.000001
    27  H   -0.000011   0.000001   0.447709
 Mulliken charges:
               1
     1  O   -0.460196
     2  N    0.505236
     3  O   -0.487112
     4  C   -0.031104
     5  C    0.202385
     6  N   -0.763007
     7  C    0.032381
     8  H    0.180153
     9  C   -0.306872
    10  C   -0.321528
    11  C   -0.315642
    12  C   -0.312268
    13  C   -0.015612
    14  H    0.197864
    15  N   -0.510889
    16  C    0.122365
    17  H    0.286066
    18  H    0.397129
    19  H    0.188869
    20  H    0.155993
    21  H    0.173148
    22  H    0.149292
    23  H    0.191794
    24  H    0.162503
    25  H    0.184006
    26  H    0.150667
    27  H    0.244381
 Sum of Mulliken charges =  -0.00000
 Mulliken charges with hydrogens summed into heavy atoms:
               1
     1  O   -0.460196
     2  N    0.505236
     3  O   -0.487112
     4  C   -0.031104
     5  C    0.488451
     6  N   -0.365879
     7  C    0.212534
     9  C    0.037990
    10  C    0.000913
    11  C    0.038654
    12  C    0.022406
    13  C    0.182252
    15  N   -0.510889
    16  C    0.366745
 Electronic spatial extent (au):  <R**2>=           3118.7067
 Charge=              0.0000 electrons
 Dipole moment (field-independent basis, Debye):
    X=              5.5599    Y=              4.7546    Z=              0.0964  Tot=              7.3163
 Quadrupole moment (field-independent basis, Debye-Ang):
   XX=           -106.1667   YY=            -79.6317   ZZ=            -82.4080
   XY=             -1.6156   XZ=              2.6933   YZ=             -0.3115
 Traceless Quadrupole moment (field-independent basis, Debye-Ang):
   XX=            -16.7646   YY=              9.7704   ZZ=              6.9941
   XY=             -1.6156   XZ=              2.6933   YZ=             -0.3115
 Octapole moment (field-independent basis, Debye-Ang**2):
  XXX=            104.2150  YYY=             37.9104  ZZZ=             -8.5253  XYY=             -1.9121
  XXY=             11.1832  XXZ=             -5.4137  XZZ=             -7.1504  YZZ=             -2.1614
  YYZ=              0.1748  XYZ=              2.1563
 Hexadecapole moment (field-independent basis, Debye-Ang**3):
 XXXX=          -3555.1058 YYYY=           -620.2726 ZZZZ=           -297.8512 XXXY=            -34.6482
 XXXZ=             35.7015 YYYX=            -15.9143 YYYZ=             19.2041 ZZZX=             20.4189
 ZZZY=             11.0419 XXYY=           -656.0947 XXZZ=           -543.1114 YYZZ=           -163.5080
 XXYZ=             -3.3558 YYXZ=             17.4561 ZZXY=              4.8338
 N-N= 9.178625819041D+02 E-N=-3.381778597962D+03  KE= 6.588766078385D+02
 Calling FoFJK, ICntrl=  10002127 FMM=F ISym2X=0 I1Cent= 0 IOpClX= 0 NMat=1 NMatS=1 NMatT=0.
 -------------------------------------------------------------------
 Center     Atomic                   Forces (Hartrees/Bohr)
 Number     Number              X              Y              Z
 -------------------------------------------------------------------
      1        8           0.001802395   -0.019216939   -0.002558538
      2        7           0.040384275    0.013258036   -0.008055687
      3        8          -0.004708362    0.016651775    0.002466733
      4        6          -0.006763608    0.003977932   -0.002912437
      5        6           0.004992425   -0.014778137   -0.001524555
      6        7           0.016814219   -0.002174516   -0.014831766
      7        6          -0.004559891    0.003258860    0.008444145
      8        1          -0.011413963   -0.001991032   -0.007505882
      9        6          -0.004755976    0.001425733   -0.002784574
     10        6           0.002657576   -0.001279823    0.001208703
     11        6          -0.000887115   -0.004626138   -0.002292312
     12        6           0.000636400   -0.008957804   -0.003255409
     13        6           0.009292512   -0.003939211    0.004208586
     14        1           0.001273551    0.004379063   -0.010091568
     15        7           0.000367382   -0.001127049    0.002858529
     16        6          -0.016925208    0.007960746    0.010266739
     17        1           0.003374960   -0.006135795    0.016905086
     18        1          -0.017115489   -0.002331118   -0.005078197
     19        1           0.003151309    0.005626289    0.007652040
     20        1          -0.003144473   -0.007640808    0.002612116
     21        1          -0.004222295    0.002301660    0.009693188
     22        1          -0.004142534   -0.003824419   -0.007339539
     23        1           0.004081035    0.005996270    0.009331042
     24        1          -0.009411481    0.002595344   -0.001919305
     25        1          -0.000910921    0.010624851   -0.002291675
     26        1          -0.004761926   -0.004676649   -0.004272421
     27        1           0.004895202    0.004642880    0.001066960
 -------------------------------------------------------------------
 Cartesian Forces:  Max     0.040384275 RMS     0.008638806

 GradGradGradGradGradGradGradGradGradGradGradGradGradGradGradGradGradGrad
 Berny optimization.
 FormGI is forming the generalized inverse of G from B-inverse, IUseBI=4.
 Internal  Forces:  Max     0.038700005 RMS     0.006924989
 Search for a local minimum.
 Step number   1 out of a maximum of   20
 All quantities printed in internal units (Hartrees-Bohrs-Radians)
 Mixed Optimization -- RFO/linear search
 Second derivative matrix not updated -- first step.
 ITU=  0
     Eigenvalues ---    0.00234   0.00774   0.01145   0.01218   0.01268
     Eigenvalues ---    0.01512   0.01541   0.01656   0.02011   0.02135
     Eigenvalues ---    0.02685   0.03681   0.04505   0.04699   0.04834
     Eigenvalues ---    0.05068   0.05138   0.05304   0.05856   0.06241
     Eigenvalues ---    0.07173   0.07691   0.07705   0.07824   0.07991
     Eigenvalues ---    0.08042   0.08050   0.10446   0.11704   0.12231
     Eigenvalues ---    0.12943   0.14482   0.15131   0.15980   0.16000
     Eigenvalues ---    0.19783   0.22040   0.22462   0.24614   0.25000
     Eigenvalues ---    0.25000   0.25367   0.26124   0.26651   0.27982
     Eigenvalues ---    0.28086   0.28460   0.29710   0.31470   0.31807
     Eigenvalues ---    0.32042   0.32239   0.32293   0.32381   0.32389
     Eigenvalues ---    0.32404   0.32516   0.32526   0.32586   0.33362
     Eigenvalues ---    0.33394   0.33600   0.35205   0.43889   0.44337
     Eigenvalues ---    0.49780   0.67108   0.90349   0.911631000.00000
     Eigenvalues --- 1000.000001000.000001000.000001000.000001000.00000
     Eigenvalues --- 1000.000001000.000001000.000001000.000001000.00000
     Eigenvalues --- 1000.000001000.000001000.000001000.000001000.00000
     Eigenvalues --- 1000.000001000.000001000.000001000.000001000.00000
     Eigenvalues --- 1000.000001000.000001000.000001000.000001000.00000
     Eigenvalues --- 1000.000001000.000001000.000001000.000001000.00000
     Eigenvalues --- 1000.000001000.000001000.000001000.000001000.00000
     Eigenvalues --- 1000.000001000.000001000.000001000.000001000.00000
     Eigenvalues --- 1000.000001000.000001000.000001000.000001000.00000
     Eigenvalues --- 1000.000001000.000001000.000001000.000001000.00000
     Eigenvalues --- 1000.000001000.000001000.000001000.000001000.00000
     Eigenvalues --- 1000.000001000.000001000.000001000.000001000.00000
     Eigenvalues --- 1000.000001000.000001000.000001000.000001000.00000
     Eigenvalues --- 1000.000001000.000001000.000001000.000001000.00000
     Eigenvalues --- 1000.000001000.000001000.000001000.000001000.00000
     Eigenvalues --- 1000.000001000.000001000.000001000.000001000.00000
     Eigenvalues --- 1000.000001000.000001000.000001000.000001000.00000
     Eigenvalues --- 1000.000001000.000001000.000001000.000001000.00000
     Eigenvalues --- 1000.00000
 RFO step:  Lambda=-2.66462584D-02 EMin= 2.34303200D-03
 Linear search not attempted -- first point.
 Iteration  1 RMS(Cart)=  0.07361497 RMS(Int)=  0.00215210
 Iteration  2 RMS(Cart)=  0.00330779 RMS(Int)=  0.00044858
 Iteration  3 RMS(Cart)=  0.00000816 RMS(Int)=  0.00044855
 Iteration  4 RMS(Cart)=  0.00000001 RMS(Int)=  0.00044855
 Iteration  1 RMS(Cart)=  0.00009894 RMS(Int)=  0.00009537
 Iteration  2 RMS(Cart)=  0.00005015 RMS(Int)=  0.00010520
 Iteration  3 RMS(Cart)=  0.00003035 RMS(Int)=  0.00011791
 Iteration  4 RMS(Cart)=  0.00002165 RMS(Int)=  0.00012768
 Iteration  5 RMS(Cart)=  0.00001695 RMS(Int)=  0.00013494
 Iteration  6 RMS(Cart)=  0.00001383 RMS(Int)=  0.00014045
 Iteration  7 RMS(Cart)=  0.00001149 RMS(Int)=  0.00014476
 Iteration  8 RMS(Cart)=  0.00000962 RMS(Int)=  0.00014819
 Iteration  9 RMS(Cart)=  0.00000808 RMS(Int)=  0.00015097
 Iteration 10 RMS(Cart)=  0.00000681 RMS(Int)=  0.00015326
 Iteration 11 RMS(Cart)=  0.00000574 RMS(Int)=  0.00015516
 Iteration 12 RMS(Cart)=  0.00000484 RMS(Int)=  0.00015675
 Iteration 13 RMS(Cart)=  0.00000408 RMS(Int)=  0.00015808
 Iteration 14 RMS(Cart)=  0.00000344 RMS(Int)=  0.00015920
 Iteration 15 RMS(Cart)=  0.00000291 RMS(Int)=  0.00016014
 Iteration 16 RMS(Cart)=  0.00000245 RMS(Int)=  0.00016094
 Iteration 17 RMS(Cart)=  0.00000207 RMS(Int)=  0.00016161
 Iteration 18 RMS(Cart)=  0.00000175 RMS(Int)=  0.00016218
 Iteration 19 RMS(Cart)=  0.00000147 RMS(Int)=  0.00016267
 Iteration 20 RMS(Cart)=  0.00000124 RMS(Int)=  0.00016308
 Iteration 21 RMS(Cart)=  0.00000105 RMS(Int)=  0.00016342
 Iteration 22 RMS(Cart)=  0.00000089 RMS(Int)=  0.00016371
 Variable       Old X    -DE/DX   Delta X   Delta X   Delta X     New X
                                 (Linear)    (Quad)   (Total)
    R1        2.32402   0.01785   0.00000   0.01903   0.01903   2.34304
    R2        2.32772   0.01615   0.00000   0.01736   0.01736   2.34509
    R3        2.88546  -0.03870   0.00000  -0.11954  -0.11954   2.76592
    R4        2.64191  -0.02869   0.00000  -0.06131  -0.06101   2.58090
    R5        2.80972  -0.02176   0.00000  -0.06359  -0.06288   2.74684
    R6        2.58733  -0.02474   0.00000  -0.04676  -0.04695   2.54038
    R7        2.08366  -0.01054   0.00000  -0.02922  -0.02922   2.05444
    R8        2.82150  -0.01789   0.00000  -0.04740  -0.04803   2.77347
    R9        1.93287  -0.00635   0.00000  -0.01364  -0.01364   1.91923
   R10        2.11824  -0.01277   0.00000  -0.03742  -0.03742   2.08082
   R11        2.92727  -0.01311   0.00000  -0.04240  -0.04244   2.88482
   R12        2.90316  -0.00186   0.00000  -0.00142  -0.00154   2.90162
   R13        2.91136  -0.00420   0.00000  -0.01388  -0.01394   2.89743
   R14        2.09910  -0.00979   0.00000  -0.02781  -0.02781   2.07129
   R15        2.09892  -0.00825   0.00000  -0.02345  -0.02345   2.07547
   R16        2.90449  -0.00157   0.00000  -0.00749  -0.00754   2.89696
   R17        2.10137  -0.01055   0.00000  -0.03011  -0.03011   2.07127
   R18        2.10311  -0.00896   0.00000  -0.02562  -0.02562   2.07749
   R19        2.91766  -0.00914   0.00000  -0.03036  -0.03031   2.88734
   R20        2.10409  -0.01165   0.00000  -0.03339  -0.03339   2.07070
   R21        2.10110  -0.00993   0.00000  -0.02830  -0.02830   2.07280
   R22        2.93529  -0.01107   0.00000  -0.03653  -0.03648   2.89881
   R23        2.10153  -0.01076   0.00000  -0.03070  -0.03070   2.07083
   R24        2.09785  -0.00772   0.00000  -0.02191  -0.02191   2.07594
   R25        2.10767  -0.00970   0.00000  -0.02795  -0.02795   2.07972
   R26        2.76981  -0.00595   0.00000  -0.01146  -0.01183   2.75797
   R27        2.44331  -0.00587   0.00000  -0.00842  -0.00801   2.43530
   R28        2.08010  -0.00612   0.00000  -0.01688  -0.01688   2.06322
    A1        2.15882   0.01119   0.00000   0.04110   0.04056   2.19937
    A2        2.05420  -0.00687   0.00000  -0.02417  -0.02472   2.02948
    A3        2.06961  -0.00433   0.00000  -0.01502  -0.01556   2.05405
    A4        2.03014  -0.00839   0.00000  -0.03572  -0.03742   1.99273
    A5        2.03605  -0.00240   0.00000  -0.01468  -0.01632   2.01973
    A6        2.20017   0.01048   0.00000   0.03257   0.03118   2.23135
    A7        2.18396   0.00512   0.00000   0.01911   0.01915   2.20312
    A8        2.06394  -0.00086   0.00000  -0.00040  -0.00083   2.06311
    A9        2.03396  -0.00413   0.00000  -0.02074  -0.02110   2.01286
   A10        2.24345  -0.00487   0.00000  -0.01229  -0.01345   2.23000
   A11        2.10674  -0.01374   0.00000  -0.07641  -0.07641   2.03033
   A12        1.86927   0.01913   0.00000   0.09802   0.09878   1.96805
   A13        1.84014  -0.00236   0.00000  -0.01749  -0.01738   1.82276
   A14        2.00926  -0.00141   0.00000  -0.02635  -0.02635   1.98290
   A15        1.96339   0.00212   0.00000   0.01226   0.01140   1.97479
   A16        1.85241   0.00318   0.00000   0.02357   0.02339   1.87580
   A17        1.84947   0.00113   0.00000   0.02835   0.02807   1.87754
   A18        1.93552  -0.00232   0.00000  -0.01433  -0.01381   1.92171
   A19        1.90958  -0.00017   0.00000  -0.00568  -0.00584   1.90374
   A20        1.92213  -0.00052   0.00000  -0.01296  -0.01294   1.90919
   A21        1.92232  -0.00170   0.00000  -0.00626  -0.00624   1.91608
   A22        1.91916  -0.00045   0.00000   0.00427   0.00423   1.92339
   A23        1.90591   0.00329   0.00000   0.02554   0.02555   1.93146
   A24        1.88457  -0.00042   0.00000  -0.00450  -0.00473   1.87983
   A25        1.94029  -0.00054   0.00000   0.00667   0.00658   1.94686
   A26        1.91885  -0.00097   0.00000  -0.00811  -0.00813   1.91072
   A27        1.90511   0.00027   0.00000  -0.00313  -0.00321   1.90190
   A28        1.91612   0.00062   0.00000   0.00685   0.00690   1.92302
   A29        1.89867   0.00179   0.00000   0.01116   0.01117   1.90984
   A30        1.88377  -0.00116   0.00000  -0.01392  -0.01401   1.86976
   A31        1.94474   0.00133   0.00000   0.00786   0.00794   1.95268
   A32        1.90238   0.00013   0.00000   0.00443   0.00444   1.90682
   A33        1.91734   0.00046   0.00000   0.00488   0.00484   1.92218
   A34        1.90666  -0.00131   0.00000  -0.01517  -0.01521   1.89145
   A35        1.91534  -0.00071   0.00000   0.00006  -0.00003   1.91531
   A36        1.87600   0.00005   0.00000  -0.00255  -0.00259   1.87342
   A37        1.94640  -0.00378   0.00000  -0.02275  -0.02267   1.92373
   A38        1.90619   0.00246   0.00000   0.01411   0.01392   1.92011
   A39        1.91109   0.00190   0.00000   0.01720   0.01712   1.92821
   A40        1.90639   0.00078   0.00000  -0.00202  -0.00193   1.90446
   A41        1.91206  -0.00028   0.00000  -0.00272  -0.00262   1.90944
   A42        1.88050  -0.00097   0.00000  -0.00317  -0.00335   1.87715
   A43        1.84541   0.00551   0.00000   0.02528   0.02521   1.87062
   A44        1.93492  -0.00440   0.00000  -0.02539  -0.02585   1.90907
   A45        1.99092  -0.00080   0.00000  -0.00358  -0.00339   1.98753
   A46        1.88228   0.00202   0.00000   0.02894   0.02919   1.91148
   A47        1.89128  -0.00415   0.00000  -0.02943  -0.02930   1.86198
   A48        1.91439   0.00207   0.00000   0.00664   0.00665   1.92104
   A49        2.08727  -0.00536   0.00000  -0.01388  -0.01460   2.07267
   A50        2.25049  -0.00321   0.00000  -0.01821  -0.01791   2.23259
   A51        1.98061   0.00326   0.00000   0.01780   0.01691   1.99751
   A52        2.05202  -0.00010   0.00000  -0.00021  -0.00110   2.05092
    D1        3.10177   0.00010   0.00000  -0.09260  -0.08983   3.01194
    D2        0.14414   0.00064   0.00000   0.00000  -0.00000   0.14414
    D3       -0.07437   0.00013   0.00000  -0.03250  -0.03112  -0.10549
    D4       -3.03200   0.00067   0.00000   0.06011   0.05871  -2.97329
    D5        2.83825   0.00626   0.00000   0.15373   0.15466   2.99291
    D6       -0.36075   0.00897   0.00000   0.10919   0.10996  -0.25078
    D7       -0.50698   0.00384   0.00000   0.04453   0.04470  -0.46228
    D8        2.57721   0.00655   0.00000   0.00000   0.00000   2.57721
    D9       -2.77163  -0.00525   0.00000  -0.10596  -0.10645  -2.87808
   D10        0.38291  -0.00123   0.00000  -0.04538  -0.04627   0.33664
   D11        0.57421  -0.00222   0.00000   0.00570   0.00701   0.58121
   D12       -2.55444   0.00181   0.00000   0.06628   0.06718  -2.48726
   D13        0.36384  -0.00619   0.00000  -0.10046  -0.09981   0.26404
   D14        3.07886  -0.00041   0.00000  -0.04992  -0.05087   3.02799
   D15       -2.72123  -0.00894   0.00000  -0.05719  -0.05679  -2.77802
   D16       -0.00621  -0.00316   0.00000  -0.00665  -0.00786  -0.01407
   D17       -2.74423   0.00043   0.00000   0.03817   0.03837  -2.70585
   D18        1.50378  -0.00116   0.00000   0.03506   0.03491   1.53869
   D19       -0.73648   0.00146   0.00000   0.06780   0.06724  -0.66923
   D20        0.77874   0.00096   0.00000   0.02387   0.02354   0.80228
   D21       -1.25644  -0.00063   0.00000   0.02076   0.02008  -1.23636
   D22        2.78649   0.00199   0.00000   0.05350   0.05241   2.83890
   D23        2.94684   0.00207   0.00000   0.02636   0.02610   2.97294
   D24       -1.22496   0.00107   0.00000   0.01985   0.01961  -1.20535
   D25        0.85170  -0.00083   0.00000   0.00234   0.00217   0.85388
   D26        0.91865   0.00364   0.00000   0.04687   0.04687   0.96552
   D27        3.03004   0.00265   0.00000   0.04035   0.04039   3.07042
   D28       -1.17649   0.00075   0.00000   0.02284   0.02295  -1.15354
   D29       -1.08227   0.00169   0.00000   0.00749   0.00758  -1.07469
   D30        1.02911   0.00069   0.00000   0.00098   0.00110   1.03021
   D31        3.10578  -0.00121   0.00000  -0.01653  -0.01634   3.08943
   D32       -2.89742  -0.00075   0.00000  -0.02151  -0.02144  -2.91886
   D33       -0.86196   0.00254   0.00000   0.01424   0.01397  -0.84799
   D34        1.30939   0.00116   0.00000   0.00000  -0.00001   1.30938
   D35       -0.89532  -0.00183   0.00000  -0.01955  -0.01949  -0.91481
   D36        1.14013   0.00146   0.00000   0.01620   0.01593   1.15606
   D37       -2.97171   0.00008   0.00000   0.00196   0.00194  -2.96976
   D38        1.10744   0.00141   0.00000   0.01683   0.01687   1.12431
   D39       -3.14029   0.00470   0.00000   0.05259   0.05229  -3.08800
   D40       -0.96894   0.00331   0.00000   0.03835   0.03831  -0.93064
   D41        0.95665   0.00098   0.00000   0.00000  -0.00000   0.95665
   D42        3.08212   0.00074   0.00000   0.00758   0.00753   3.08966
   D43       -1.13785  -0.00108   0.00000  -0.01599  -0.01596  -1.15381
   D44       -1.15654   0.00202   0.00000   0.01695   0.01701  -1.13953
   D45        0.96894   0.00178   0.00000   0.02453   0.02454   0.99348
   D46        3.03215  -0.00004   0.00000   0.00096   0.00105   3.03320
   D47        3.06181   0.00082   0.00000   0.00457   0.00452   3.06633
   D48       -1.09590   0.00058   0.00000   0.01215   0.01206  -1.08384
   D49        0.96731  -0.00124   0.00000  -0.01142  -0.01143   0.95587
   D50       -0.92192  -0.00091   0.00000   0.00000  -0.00000  -0.92192
   D51        1.18354  -0.00162   0.00000  -0.01102  -0.01102   1.17252
   D52       -3.04835  -0.00122   0.00000  -0.00869  -0.00872  -3.05707
   D53       -3.04899   0.00025   0.00000   0.00114   0.00115  -3.04784
   D54       -0.94352  -0.00046   0.00000  -0.00988  -0.00987  -0.95340
   D55        1.10777  -0.00005   0.00000  -0.00755  -0.00757   1.10020
   D56        1.17640   0.00025   0.00000   0.00747   0.00750   1.18390
   D57       -3.00132  -0.00046   0.00000  -0.00355  -0.00352  -3.00484
   D58       -0.95003  -0.00005   0.00000  -0.00122  -0.00122  -0.95125
   D59        0.98936  -0.00145   0.00000  -0.01170  -0.01172   0.97765
   D60        3.09807  -0.00127   0.00000  -0.01941  -0.01952   3.07855
   D61       -1.12976   0.00010   0.00000  -0.00503  -0.00496  -1.13472
   D62       -1.11359  -0.00159   0.00000  -0.01220  -0.01218  -1.12577
   D63        0.99512  -0.00141   0.00000  -0.01991  -0.01999   0.97513
   D64        3.05047  -0.00004   0.00000  -0.00553  -0.00542   3.04505
   D65        3.11695  -0.00048   0.00000  -0.00024  -0.00024   3.11671
   D66       -1.05753  -0.00029   0.00000  -0.00794  -0.00805  -1.06557
   D67        0.99783   0.00107   0.00000   0.00644   0.00652   1.00435
   D68       -1.05581   0.00034   0.00000  -0.00413  -0.00399  -1.05980
   D69       -3.12659   0.00158   0.00000  -0.00218  -0.00253  -3.12911
   D70        1.08542   0.00028   0.00000  -0.00997  -0.00999   1.07544
   D71        3.11878  -0.00083   0.00000  -0.00586  -0.00569   3.11309
   D72        1.04801   0.00041   0.00000  -0.00390  -0.00423   1.04378
   D73       -1.02317  -0.00089   0.00000  -0.01169  -0.01169  -1.03486
   D74        1.06275   0.00005   0.00000   0.00075   0.00099   1.06374
   D75       -1.00803   0.00130   0.00000   0.00271   0.00245  -1.00557
   D76       -3.07920  -0.00000   0.00000  -0.00508  -0.00500  -3.08421
   D77       -1.17217   0.00600   0.00000   0.00000  -0.00001  -1.17218
   D78        3.06085   0.00239   0.00000  -0.00958  -0.00977   3.05109
   D79        1.01012   0.00120   0.00000  -0.03110  -0.03144   0.97868
   D80        0.20044  -0.00004   0.00000  -0.00719  -0.00804   0.19240
   D81       -2.95455  -0.00419   0.00000  -0.06976  -0.06970  -3.02425
         Item               Value     Threshold  Converged?
 Maximum Force            0.038700     0.000450     NO 
 RMS     Force            0.006918     0.000300     NO 
 Maximum Displacement     0.334548     0.001800     NO 
 RMS     Displacement     0.074317     0.001200     NO 
 Predicted change in Energy=-1.584283D-02
 GradGradGradGradGradGradGradGradGradGradGradGradGradGradGradGradGradGrad

                          Input orientation:                          
 ---------------------------------------------------------------------
 Center     Atomic      Atomic             Coordinates (Angstroms)
 Number     Number       Type             X           Y           Z
 ---------------------------------------------------------------------
      1          8           0       -3.486249   -1.382766   -0.342645
      2          7           0       -3.117447   -0.231031   -0.069140
      3          8           0       -3.855249    0.755997    0.077219
      4          6           0       -1.673888   -0.026059    0.059044
      5          6           0       -1.305061    1.281215    0.201439
      6          7           0       -0.073312    1.731595    0.496601
      7          6           0        1.193031    0.992339    0.434151
      8          1           0        1.849291    1.511009    1.150235
      9          6           0        1.868975    1.051815   -0.933336
     10          6           0        3.279744    0.461912   -0.821064
     11          6           0        3.252838   -0.954169   -0.234472
     12          6           0        2.485978   -1.009060    1.085921
     13          6           0        1.063839   -0.466288    0.896096
     14          1           0        0.526525   -0.499166    1.855993
     15          7           0        0.408927   -1.337537   -0.074486
     16          6           0       -0.839873   -1.150514   -0.331948
     17          1           0       -2.039068    2.050017   -0.026809
     18          1           0        0.057480    2.738294    0.466294
     19          1           0        1.276411    0.480709   -1.657280
     20          1           0        1.910601    2.092298   -1.282483
     21          1           0        3.751720    0.452528   -1.810262
     22          1           0        3.889063    1.112646   -0.177735
     23          1           0        2.765249   -1.630554   -0.945430
     24          1           0        4.275910   -1.320067   -0.084187
     25          1           0        2.430587   -2.042995    1.444770
     26          1           0        3.002306   -0.418629    1.855072
     27          1           0       -1.337328   -1.880520   -0.973566
 ---------------------------------------------------------------------
                    Distance matrix (angstroms):
                    1          2          3          4          5
     1  O    0.000000
     2  N    1.239885   0.000000
     3  O    2.210601   1.240966   0.000000
     4  C    2.299274   1.463662   2.317386   0.000000
     5  C    3.485744   2.375888   2.606674   1.365751   0.000000
     6  N    4.695926   3.665886   3.928196   2.417157   1.344309
     7  C    5.304734   4.508897   5.066398   3.065463   2.525483
     8  H    6.250649   5.402782   5.853476   3.995756   3.301962
     9  C    5.912235   5.220817   5.820264   3.833864   3.378585
    10  C    7.029252   6.478396   7.197328   5.054818   4.768354
    11  C    6.753569   6.413330   7.317563   5.021969   5.095233
    12  C    6.152070   5.773896   6.659134   4.396050   4.516597
    13  C    4.803927   4.297695   5.134391   2.896482   3.024567
    14  H    4.660162   4.129959   4.892792   2.880047   3.043355
    15  N    3.904658   3.695902   4.752798   2.464939   3.141934
    16  C    2.656570   2.470195   3.590919   1.453566   2.532628
    17  H    3.738728   2.523465   2.232448   2.109697   1.087162
    18  H    5.495046   4.379924   4.403445   3.287117   2.012397
    19  H    5.280506   4.725966   5.423856   3.450630   3.280189
    20  H    6.487323   5.670214   6.072851   4.374437   3.633230
    21  H    7.609889   7.119285   7.843511   5.758522   5.504970
    22  H    7.787780   7.135015   7.756712   5.683234   5.210673
    23  H    6.285378   6.110046   7.111429   4.825900   5.134308
    24  H    7.766714   7.473149   8.393560   6.090573   6.164048
    25  H    6.216085   6.029579   7.015432   4.778597   5.152796
    26  H    6.918155   6.417878   7.180987   5.024602   4.917050
    27  H    2.294271   2.589908   3.794113   2.149088   3.373165
                    6          7          8          9         10
     6  N    0.000000
     7  C    1.467658   0.000000
     8  H    2.042620   1.101123   0.000000
     9  C    2.505852   1.526583   2.133662   0.000000
    10  C    3.819858   2.492246   2.651946   1.533252   0.000000
    11  C    4.337173   2.911831   3.156653   2.535243   1.533003
    12  C    3.795847   2.470247   2.600049   2.950474   2.535827
    13  C    2.506671   1.535473   2.142714   2.509920   2.953037
    14  H    2.680306   2.165745   2.507709   3.462379   3.958601
    15  N    3.158838   2.510349   3.418889   2.928884   3.469436
    16  C    3.095263   3.051462   4.063517   3.542566   4.450887
    17  H    2.059016   3.431855   4.098206   4.134126   5.607377
    18  H    1.015612   2.082994   2.276969   2.843358   4.149963
    19  H    2.832961   2.154715   3.044970   1.096079   2.170933
    20  H    2.689081   2.161399   2.501953   1.098290   2.178444
    21  H    4.646342   3.446111   3.674801   2.161683   1.096067
    22  H    4.066724   2.767213   2.466347   2.157635   1.099362
    23  H    4.630434   3.354800   3.885898   2.828172   2.158376
    24  H    5.344687   3.888450   3.927756   3.484281   2.170434
    25  H    4.627749   3.430183   3.613253   3.943177   3.482762
    26  H    3.991031   2.698764   2.355789   3.349905   2.830906
    27  H    4.099573   4.078934   5.115421   4.345180   5.179537
                   11         12         13         14         15
    11  C    0.000000
    12  C    1.527916   0.000000
    13  C    2.511559   1.533986   0.000000
    14  H    3.465524   2.166209   1.100541   0.000000
    15  N    2.874091   2.401788   1.459456   2.107948   0.000000
    16  C    4.098577   3.618238   2.366511   2.660522   1.288706
    17  H    6.088721   5.574241   4.100193   4.077443   4.179769
    18  H    4.933119   4.508237   3.386271   3.554210   4.126542
    19  H    2.826574   3.347778   2.731614   3.723649   2.561988
    20  H    3.490112   3.944467   3.465483   4.298997   3.934215
    21  H    2.170436   3.482273   3.923430   4.974840   4.170314
    22  H    2.163267   2.840266   3.409991   4.247428   4.257394
    23  H    1.095765   2.142577   2.764331   3.760305   2.529161
    24  H    1.096879   2.160957   3.465154   4.300705   3.867035
    25  H    2.163676   1.095839   2.157556   2.485552   2.625438
    26  H    2.171581   1.098543   2.163229   2.477091   3.360536
    27  H    4.740677   4.429289   3.355784   3.659028   2.037788
                   16         17         18         19         20
    16  C    0.000000
    17  H    3.431410   0.000000
    18  H    4.070043   2.261059   0.000000
    19  H    2.982624   4.014170   3.330472   0.000000
    20  H    4.357115   4.144682   2.628610   1.771973   0.000000
    21  H    5.083097   6.266251   4.904574   2.480192   2.521332
    22  H    5.244855   6.003681   4.211714   3.068281   2.468704
    23  H    3.688319   6.121432   5.330272   2.679701   3.834534
    24  H    5.124585   7.158192   5.879496   3.835936   4.321438
    25  H    3.827422   6.236675   5.426765   4.162201   4.980857
    26  H    4.481188   5.920401   4.535071   4.015487   4.164232
    27  H    1.091808   4.103402   5.035089   3.588105   5.140793
                   21         22         23         24         25
    21  H    0.000000
    22  H    1.766286   0.000000
    23  H    2.461766   3.062264   0.000000
    24  H    2.529072   2.465054   1.766420   0.000000
    25  H    4.309091   3.836371   2.448502   2.503108   0.000000
    26  H    3.841252   2.695078   3.060681   2.489053   1.770247
    27  H    5.660529   6.075159   4.110281   5.710827   4.480171
                   26         27
    26  H    0.000000
    27  H    5.382447   0.000000
 Symmetry turned off by external request.
 Stoichiometry    C9H13N3O2
 Framework group  C1[X(C9H13N3O2)]
 Deg. of freedom    75
 Full point group                 C1      NOp   1
 Rotational constants (GHZ):           1.6730996           0.4240091           0.3747916
 Standard basis: 6-31G(d) (6D, 7F)
   236 basis functions,   444 primitive gaussians,   236 cartesian basis functions
    52 alpha electrons       52 beta electrons
       nuclear repulsion energy       932.9074433776 Hartrees.
 NAtoms=   27 NActive=   27 NUniq=   27 SFac= 1.00D+00 NAtFMM=   60 NAOKFM=F Big=F
 Integral buffers will be    131072 words long.
 Raffenetti 1 integral format.
 Two-electron integral symmetry is turned off.
 One-electron integrals computed using PRISM.
 NBasis=   236 RedAO= T EigKep=  1.17D-03  NBF=   236
 NBsUse=   236 1.00D-06 EigRej= -1.00D+00 NBFU=   236
 Initial guess from the checkpoint file:  "/home/alexey/tmp/Gau-1266970.chk"
 B after Tr=     0.060641    0.008142   -0.014224
         Rot=    0.999979   -0.003701    0.005184    0.001269 Ang=  -0.74 deg.
 ExpMin= 1.61D-01 ExpMax= 5.48D+03 ExpMxC= 8.25D+02 IAcc=3 IRadAn=         5 AccDes= 0.00D+00
 Harris functional with IExCor=  205 and IRadAn=       5 diagonalized for initial guess.
 HarFok:  IExCor=  205 AccDes= 0.00D+00 IRadAn=         5 IDoV= 1 UseB2=F ITyADJ=14
 ICtDFT=  3500011 ScaDFX=  1.000000  1.000000  1.000000  1.000000
 FoFCou: FMM=F IPFlag=           0 FMFlag=      100000 FMFlg1=           0
         NFxFlg=           0 DoJE=T BraDBF=F KetDBF=T FulRan=T
         wScrn=  0.000000 ICntrl=       500 IOpCl=  0 I1Cent=   200000004 NGrid=           0
         NMat0=    1 NMatS0=      1 NMatT0=    0 NMatD0=    1 NMtDS0=    0 NMtDT0=    0
 Symmetry not used in FoFCou.
 Keep R1 ints in memory in canonical form, NReq=397720213.
 Requested convergence on RMS density matrix=1.00D-08 within 128 cycles.
 Requested convergence on MAX density matrix=1.00D-06.
 Requested convergence on             energy=1.00D-06.
 No special actions if energy rises.
 SCF Done:  E(RHF) =  -661.293191782     A.U. after   15 cycles
            NFock= 15  Conv=0.63D-08     -V/T= 2.0024
 ExpMin= 1.61D-01 ExpMax= 5.48D+03 ExpMxC= 8.25D+02 IAcc=3 IRadAn=         5 AccDes= 0.00D+00
 HarFok:  IExCor=  205 AccDes= 0.00D+00 IRadAn=         5 IDoV=-2 UseB2=F ITyADJ=14
 ICtDFT= 12500011 ScaDFX=  1.000000  1.000000  1.000000  1.000000
 Range of M.O.s used for correlation:    15   236
 NBasis=   236 NAE=    52 NBE=    52 NFC=    14 NFV=     0
 NROrb=    222 NOA=    38 NOB=    38 NVA=   184 NVB=   184
 Fully direct method using O(ONN) memory.
 JobTyp=1 Pass  1:  I=  15 to  52 NPSUse=  4 ParTrn=T ParDer=T DoDerP=T.
 Spin components of T(2) and E(2):
     alpha-alpha T2 =       0.9141557286D-01 E2=     -0.2725763242D+00
     alpha-beta  T2 =       0.4916251055D+00 E2=     -0.1488515194D+01
     beta-beta   T2 =       0.9141557286D-01 E2=     -0.2725763242D+00
 ANorm=    0.1294007825D+01
 E2 =    -0.2033667843D+01 EUMP2 =    -0.66332685962449D+03
          IDoAtm=111111111111111111111111111
          Differentiating once with respect to electric field.
                with respect to dipole field.
          Differentiating once with respect to nuclear coordinates.
 Keep R1 ints in memory in canonical form, NReq=397723379.
          There are     1 degrees of freedom in the 1st order CPHF.  IDoFFX=0 NUNeed=     1.
[...]
    16  C    0.000000
    17  H    3.418316   0.000000
    18  H    4.047550   2.235838   0.000000
    19  H    2.980635   4.161101   3.373817   0.000000
    20  H    4.353735   4.304635   2.706637   1.769000   0.000000
    21  H    5.092449   6.399041   4.966972   2.498710   2.518760
    22  H    5.234594   6.050103   4.253358   3.070232   2.458257
    23  H    3.707191   6.191430   5.374347   2.705470   3.842087
    24  H    5.138103   7.186690   5.914776   3.850467   4.314693
    25  H    3.823748   6.162266   5.431125   4.171280   4.982773
    26  H    4.484873   5.858507   4.561066   4.038511   4.182155
    27  H    1.089349   4.102587   4.996141   3.555536   5.109089
                   21         22         23         24         25
    21  H    0.000000
    22  H    1.759064   0.000000
    23  H    2.469250   3.062060   0.000000
    24  H    2.517717   2.459283   1.764766   0.000000
    25  H    4.311686   3.839371   2.443438   2.520073   0.000000
    26  H    3.847781   2.705402   3.060700   2.490448   1.767675
    27  H    5.650764   6.051677   4.122126   5.723017   4.488239
                   26         27
    26  H    0.000000
    27  H    5.389149   0.000000
 Symmetry turned off by external request.
 Stoichiometry    C9H13N3O2
 Framework group  C1[X(C9H13N3O2)]
 Deg. of freedom    75
 Full point group                 C1      NOp   1
 Rotational constants (GHZ):           1.6891908           0.4202845           0.3733776

 **********************************************************************

            Population analysis using the SCF Density.

 **********************************************************************

 Alpha  occ. eigenvalues --  -20.59027 -20.58724 -15.84479 -15.64398 -15.56073
 Alpha  occ. eigenvalues --  -11.35413 -11.29675 -11.29626 -11.28477 -11.27153
 Alpha  occ. eigenvalues --  -11.23930 -11.23308 -11.22735 -11.22133  -1.56904
 Alpha  occ. eigenvalues --   -1.36508  -1.31215  -1.23131  -1.14746  -1.09833
 Alpha  occ. eigenvalues --   -1.02876  -1.01355  -0.94389  -0.89536  -0.85768
 Alpha  occ. eigenvalues --   -0.82393  -0.78443  -0.77402  -0.75313  -0.72023
 Alpha  occ. eigenvalues --   -0.69479  -0.69446  -0.67810  -0.64891  -0.63698
 Alpha  occ. eigenvalues --   -0.63123  -0.60238  -0.57318  -0.57135  -0.55152
 Alpha  occ. eigenvalues --   -0.54740  -0.50867  -0.49999  -0.48547  -0.48055
 Alpha  occ. eigenvalues --   -0.47241  -0.46230  -0.46086  -0.43517  -0.41721
 Alpha  occ. eigenvalues --   -0.40112  -0.33710
 Alpha virt. eigenvalues --    0.07488   0.12028   0.17287   0.21526   0.23090
 Alpha virt. eigenvalues --    0.24763   0.27364   0.28298   0.28951   0.29774
 Alpha virt. eigenvalues --    0.30654   0.31758   0.32198   0.32663   0.33753
 Alpha virt. eigenvalues --    0.34323   0.35674   0.37348   0.38521   0.40196
 Alpha virt. eigenvalues --    0.41691   0.42646   0.45067   0.46058   0.46729
 Alpha virt. eigenvalues --    0.47066   0.48926   0.53862   0.56741   0.59138
 Alpha virt. eigenvalues --    0.64242   0.69049   0.70042   0.72804   0.74037
 Alpha virt. eigenvalues --    0.75321   0.75845   0.76971   0.78734   0.78942
 Alpha virt. eigenvalues --    0.81268   0.85225   0.85657   0.86522   0.88311
 Alpha virt. eigenvalues --    0.89135   0.90606   0.91891   0.92568   0.94537
 Alpha virt. eigenvalues --    0.95884   0.97880   0.98232   1.00684   1.02160
 Alpha virt. eigenvalues --    1.03125   1.05664   1.05913   1.07108   1.08806
 Alpha virt. eigenvalues --    1.09872   1.11606   1.11742   1.12530   1.13911
 Alpha virt. eigenvalues --    1.14573   1.14709   1.16123   1.16482   1.17810
 Alpha virt. eigenvalues --    1.18936   1.19475   1.21151   1.22695   1.23660
 Alpha virt. eigenvalues --    1.24854   1.27148   1.27341   1.27954   1.29402
 Alpha virt. eigenvalues --    1.30572   1.32283   1.35771   1.36958   1.40386
 Alpha virt. eigenvalues --    1.41159   1.42014   1.48325   1.52949   1.53550
 Alpha virt. eigenvalues --    1.53824   1.58633   1.61299   1.61557   1.67410
 Alpha virt. eigenvalues --    1.68314   1.69452   1.74042   1.74463   1.78220
 Alpha virt. eigenvalues --    1.81443   1.84845   1.87389   1.90178   1.93890
 Alpha virt. eigenvalues --    1.96411   1.97439   1.98734   2.00914   2.02207
 Alpha virt. eigenvalues --    2.04449   2.06353   2.08861   2.09464   2.13285
 Alpha virt. eigenvalues --    2.14073   2.14865   2.19375   2.20463   2.21746
 Alpha virt. eigenvalues --    2.24029   2.25021   2.26625   2.28153   2.29713
 Alpha virt. eigenvalues --    2.31488   2.33441   2.33718   2.35771   2.38552
 Alpha virt. eigenvalues --    2.39182   2.42657   2.43345   2.43851   2.48302
 Alpha virt. eigenvalues --    2.50205   2.51693   2.53197   2.56331   2.61641
 Alpha virt. eigenvalues --    2.62395   2.64989   2.67316   2.70275   2.71321
 Alpha virt. eigenvalues --    2.71963   2.73961   2.76774   2.78707   2.85465
 Alpha virt. eigenvalues --    2.87471   2.88699   2.92356   2.93091   2.96129
 Alpha virt. eigenvalues --    2.98926   3.01438   3.04259   3.04782   3.07642
 Alpha virt. eigenvalues --    3.09514   3.14926   3.20967   3.25151   3.27180
 Alpha virt. eigenvalues --    3.34377   3.37969   3.40109   3.50821   3.62502
 Alpha virt. eigenvalues --    4.13496   4.27439   4.30907   4.37762   4.46847
 Alpha virt. eigenvalues --    4.56473   4.62109   4.63471   4.73222   4.79908
 Alpha virt. eigenvalues --    4.98018   5.00660   5.03488   5.12157
          Condensed to atoms (all electrons):
               1          2          3          4          5          6
     1  O    8.316956   0.305926  -0.079995  -0.083953   0.004302  -0.000021
     2  N    0.305926   5.738531   0.294654   0.259300  -0.047679   0.001285
     3  O   -0.079995   0.294654   8.352297  -0.090664   0.004085   0.000747
     4  C   -0.083953   0.259300  -0.090664   5.249421   0.543933  -0.052924
     5  C    0.004302  -0.047679   0.004085   0.543933   4.703450   0.317548
     6  N   -0.000021   0.001285   0.000747  -0.052924   0.317548   7.194188
     7  C    0.000004  -0.000115   0.000004   0.004715  -0.027616   0.171402
     8  H   -0.000000   0.000002   0.000000  -0.000335   0.003431  -0.052009
     9  C   -0.000000  -0.000003  -0.000000   0.001157  -0.000337  -0.063511
    10  C    0.000000   0.000000   0.000000  -0.000051  -0.000019   0.003842
    11  C   -0.000000  -0.000000  -0.000000  -0.000021   0.000021  -0.000167
    12  C    0.000000   0.000002  -0.000000  -0.000029  -0.000237   0.003500
    13  C   -0.000029  -0.000064  -0.000006  -0.013240  -0.000893  -0.043133
    14  H   -0.000004  -0.000146   0.000001   0.003255   0.004574  -0.006164
    15  N    0.000402   0.002280  -0.000019  -0.065971  -0.004866   0.001379
    16  C    0.000058  -0.031717   0.002916   0.332985  -0.051999  -0.002180
    17  H    0.000181  -0.007511   0.015338  -0.026679   0.377890  -0.036402
    18  H    0.000001  -0.000057   0.000012   0.001514  -0.030693   0.336485
    19  H    0.000001  -0.000005   0.000000  -0.001272   0.001301   0.000060
    20  H    0.000000  -0.000000   0.000000  -0.000057   0.000144  -0.000948
    21  H   -0.000000   0.000000   0.000000   0.000001   0.000000  -0.000080
    22  H   -0.000000   0.000000  -0.000000  -0.000000  -0.000003  -0.000114
    23  H    0.000000  -0.000000   0.000000   0.000034  -0.000001  -0.000030
    24  H    0.000000   0.000000   0.000000   0.000000  -0.000000   0.000006
    25  H    0.000000  -0.000000   0.000000   0.000013   0.000006  -0.000083
    26  H    0.000000  -0.000000   0.000000   0.000007  -0.000000  -0.000058
    27  H    0.007149  -0.000973   0.000046  -0.061568   0.001723   0.000106
               7          8          9         10         11         12
     1  O    0.000004  -0.000000  -0.000000   0.000000  -0.000000   0.000000
     2  N   -0.000115   0.000002  -0.000003   0.000000  -0.000000   0.000002
     3  O    0.000004   0.000000  -0.000000   0.000000  -0.000000  -0.000000
     4  C    0.004715  -0.000335   0.001157  -0.000051  -0.000021  -0.000029
     5  C   -0.027616   0.003431  -0.000337  -0.000019   0.000021  -0.000237
     6  N    0.171402  -0.052009  -0.063511   0.003842  -0.000167   0.003500
     7  C    5.017162   0.419290   0.350416  -0.054189  -0.009247  -0.059825
     8  H    0.419290   0.538788  -0.057514   0.001153  -0.000394  -0.002309
     9  C    0.350416  -0.057514   5.167646   0.324292  -0.050365  -0.005950
    10  C   -0.054189   0.001153   0.324292   5.116742   0.337464  -0.060645
    11  C   -0.009247  -0.000394  -0.050365   0.337464   5.118977   0.335997
    12  C   -0.059825  -0.002309  -0.005950  -0.060645   0.335997   5.114872
    13  C    0.338164  -0.038537  -0.058264  -0.000737  -0.050822   0.370773
    14  H   -0.046559  -0.000984   0.004497  -0.000417   0.004169  -0.035236
    15  N   -0.057315   0.003858  -0.014671   0.001490  -0.012844  -0.079946
    16  C   -0.004027   0.000163  -0.001910   0.000014  -0.000023   0.003021
    17  H    0.001674  -0.000037  -0.000122   0.000002   0.000000   0.000000
    18  H   -0.021728  -0.003570   0.000733  -0.000080   0.000005  -0.000107
    19  H   -0.037107   0.004386   0.389027  -0.031110  -0.002247   0.000722
    20  H   -0.043676  -0.002165   0.399601  -0.035430   0.003970  -0.000409
    21  H    0.004584  -0.000083  -0.036390   0.402341  -0.034892   0.004345
    22  H   -0.004763   0.003575  -0.047146   0.398200  -0.045274  -0.001016
    23  H    0.000519   0.000031  -0.001935  -0.038985   0.399282  -0.037666
    24  H   -0.000135  -0.000104   0.004437  -0.038590   0.402330  -0.038737
    25  H    0.005195  -0.000021  -0.000403   0.004187  -0.033543   0.399000
    26  H   -0.004013   0.001756   0.000974  -0.002221  -0.041403   0.397124
    27  H   -0.000430   0.000010  -0.000080   0.000009   0.000008  -0.000039
              13         14         15         16         17         18
     1  O   -0.000029  -0.000004   0.000402   0.000058   0.000181   0.000001
     2  N   -0.000064  -0.000146   0.002280  -0.031717  -0.007511  -0.000057
     3  O   -0.000006   0.000001  -0.000019   0.002916   0.015338   0.000012
     4  C   -0.013240   0.003255  -0.065971   0.332985  -0.026679   0.001514
     5  C   -0.000893   0.004574  -0.004866  -0.051999   0.377890  -0.030693
     6  N   -0.043133  -0.006164   0.001379  -0.002180  -0.036402   0.336485
     7  C    0.338164  -0.046559  -0.057315  -0.004027   0.001674  -0.021728
     8  H   -0.038537  -0.000984   0.003858   0.000163  -0.000037  -0.003570
     9  C   -0.058264   0.004497  -0.014671  -0.001910  -0.000122   0.000733
    10  C   -0.000737  -0.000417   0.001490   0.000014   0.000002  -0.000080
    11  C   -0.050822   0.004169  -0.012844  -0.000023   0.000000   0.000005
    12  C    0.370773  -0.035236  -0.079946   0.003021   0.000000  -0.000107
    13  C    5.042308   0.402415   0.246993  -0.073516   0.000036   0.003070
    14  H    0.402415   0.521994  -0.037780  -0.003869   0.000108  -0.000110
    15  N    0.246993  -0.037780   6.964984   0.577794  -0.000087  -0.000148
    16  C   -0.073516  -0.003869   0.577794   4.741528   0.002357  -0.000241
    17  H    0.000036   0.000108  -0.000087   0.002357   0.386069  -0.002708
    18  H    0.003070  -0.000110  -0.000148  -0.000241  -0.002708   0.311916
    19  H   -0.007305   0.000103   0.007674   0.003419   0.000025  -0.000151
    20  H    0.004339  -0.000065   0.000115  -0.000033   0.000008   0.001622
    21  H   -0.000433   0.000010  -0.000042   0.000003  -0.000000   0.000000
    22  H    0.000077  -0.000055   0.000014  -0.000002   0.000000   0.000003
    23  H   -0.007222   0.000004   0.008387   0.000037   0.000000   0.000000
    24  H    0.004698  -0.000054   0.000147   0.000008   0.000000  -0.000000
    25  H   -0.035954  -0.002905   0.000207  -0.000008  -0.000000   0.000002
    26  H   -0.047059  -0.001054   0.004752  -0.000083   0.000000  -0.000001
    27  H    0.005074  -0.000196  -0.038603   0.401757  -0.000100   0.000002
              19         20         21         22         23         24
     1  O    0.000001   0.000000  -0.000000  -0.000000   0.000000   0.000000
     2  N   -0.000005  -0.000000   0.000000   0.000000  -0.000000   0.000000
     3  O    0.000000   0.000000   0.000000  -0.000000   0.000000   0.000000
     4  C   -0.001272  -0.000057   0.000001  -0.000000   0.000034   0.000000
     5  C    0.001301   0.000144   0.000000  -0.000003  -0.000001  -0.000000
     6  N    0.000060  -0.000948  -0.000080  -0.000114  -0.000030   0.000006
     7  C   -0.037107  -0.043676   0.004584  -0.004763   0.000519  -0.000135
     8  H    0.004386  -0.002165  -0.000083   0.003575   0.000031  -0.000104
     9  C    0.389027   0.399601  -0.036390  -0.047146  -0.001935   0.004437
    10  C   -0.031110  -0.035430   0.402341   0.398200  -0.038985  -0.038590
    11  C   -0.002247   0.003970  -0.034892  -0.045274   0.399282   0.402330
    12  C    0.000722  -0.000409   0.004345  -0.001016  -0.037666  -0.038737
    13  C   -0.007305   0.004339  -0.000433   0.000077  -0.007222   0.004698
    14  H    0.000103  -0.000065   0.000010  -0.000055   0.000004  -0.000054
    15  N    0.007674   0.000115  -0.000042   0.000014   0.008387   0.000147
    16  C    0.003419  -0.000033   0.000003  -0.000002   0.000037   0.000008
    17  H    0.000025   0.000008  -0.000000   0.000000   0.000000   0.000000
    18  H   -0.000151   0.001622   0.000000   0.000003   0.000000  -0.000000
    19  H    0.504060  -0.025315  -0.002807   0.003935   0.001482  -0.000064
    20  H   -0.025315   0.547432  -0.002716  -0.003029  -0.000045  -0.000085
    21  H   -0.002807  -0.002716   0.524141  -0.027369  -0.002881  -0.002241
    22  H    0.003935  -0.003029  -0.027369   0.569988   0.004123  -0.003674
    23  H    0.001482  -0.000045  -0.002881   0.004123   0.498308  -0.025451
    24  H   -0.000064  -0.000085  -0.002241  -0.003674  -0.025451   0.538274
    25  H   -0.000030   0.000012  -0.000086  -0.000080  -0.002346  -0.002293
    26  H    0.000019  -0.000030  -0.000081   0.002368   0.004036  -0.003061
    27  H    0.000103   0.000000  -0.000000   0.000000  -0.000032  -0.000000
              25         26         27
     1  O    0.000000   0.000000   0.007149
     2  N   -0.000000  -0.000000  -0.000973
     3  O    0.000000   0.000000   0.000046
     4  C    0.000013   0.000007  -0.061568
     5  C    0.000006  -0.000000   0.001723
     6  N   -0.000083  -0.000058   0.000106
     7  C    0.005195  -0.004013  -0.000430
     8  H   -0.000021   0.001756   0.000010
     9  C   -0.000403   0.000974  -0.000080
    10  C    0.004187  -0.002221   0.000009
    11  C   -0.033543  -0.041403   0.000008
    12  C    0.399000   0.397124  -0.000039
    13  C   -0.035954  -0.047059   0.005074
    14  H   -0.002905  -0.001054  -0.000196
    15  N    0.000207   0.004752  -0.038603
    16  C   -0.000008  -0.000083   0.401757
    17  H   -0.000000   0.000000  -0.000100
    18  H    0.000002  -0.000001   0.000002
    19  H   -0.000030   0.000019   0.000103
    20  H    0.000012  -0.000030   0.000000
    21  H   -0.000086  -0.000081  -0.000000
    22  H   -0.000080   0.002368   0.000000
    23  H   -0.002346   0.004036  -0.000032
    24  H   -0.002293  -0.003061  -0.000000
    25  H    0.505796  -0.024014  -0.000010
    26  H   -0.024014   0.560203   0.000001
    27  H   -0.000010   0.000001   0.431380
 Mulliken charges:
               1
     1  O   -0.470976
     2  N    0.486289
     3  O   -0.499416
     4  C    0.000430
     5  C    0.201934
     6  N   -0.772726
     7  C    0.057616
     8  H    0.181620
     9  C   -0.304179
    10  C   -0.327262
    11  C   -0.320981
    12  C   -0.307208
    13  C   -0.040733
    14  H    0.194469
    15  N   -0.508184
    16  C    0.103548
    17  H    0.289959
    18  H    0.404227
    19  H    0.191099
    20  H    0.156760
    21  H    0.174676
    22  H    0.150243
    23  H    0.200352
    24  H    0.164589
    25  H    0.187356
    26  H    0.151837
    27  H    0.254661
 Sum of Mulliken charges =  -0.00000
 Mulliken charges with hydrogens summed into heavy atoms:
               1
     1  O   -0.470976
     2  N    0.486289
     3  O   -0.499416
     4  C    0.000430
     5  C    0.491893
     6  N   -0.368499
     7  C    0.239236
     9  C    0.043679
    10  C   -0.002342
    11  C    0.043960
    12  C    0.031985
    13  C    0.153735
    15  N   -0.508184
    16  C    0.358209
 Electronic spatial extent (au):  <R**2>=           2997.3777
 Charge=             -0.0000 electrons
 Dipole moment (field-independent basis, Debye):
    X=              5.5198    Y=              4.9500    Z=              0.5490  Tot=              7.4345
 Quadrupole moment (field-independent basis, Debye-Ang):
   XX=           -106.4312   YY=            -78.6308   ZZ=            -82.2730
   XY=             -2.0904   XZ=              1.5239   YZ=             -0.2993
 Traceless Quadrupole moment (field-independent basis, Debye-Ang):
   XX=            -17.3195   YY=             10.4809   ZZ=              6.8387
   XY=             -2.0904   XZ=              1.5239   YZ=             -0.2993
 Octapole moment (field-independent basis, Debye-Ang**2):
  XXX=             93.8104  YYY=             39.0806  ZZZ=             -8.2227  XYY=             -5.5568
  XXY=             10.6114  XXZ=             -2.0748  XZZ=             -8.4633  YZZ=             -1.4336
  YYZ=              2.1806  XYZ=              3.1664
 Hexadecapole moment (field-independent basis, Debye-Ang**3):
 XXXX=          -3376.4739 YYYY=           -593.3578 ZZZZ=           -304.1247 XXXY=            -26.7788
 XXXZ=             22.7666 YYYX=            -12.4509 YYYZ=             12.0241 ZZZX=             20.0015
 ZZZY=              4.4166 XXYY=           -622.7255 XXZZ=           -526.6872 YYZZ=           -160.5774
 XXYZ=            -14.0896 YYXZ=             10.8945 ZZXY=              4.8493
 N-N= 9.321269793831D+02 E-N=-3.410949903456D+03  KE= 6.596288024482D+02
 Unable to Open any file for archive entry.
 1\1\GINC-LOTUS\FOpt\RMP2-FC\6-31G(d)\C9H13N3O2\ALEXEY\01-Jul-2023\0\\#
 MP2/6-31G* SCF=Tight Opt=(ModRedun, MaxCycle=20 ) NoSymm\\MolName:\\0,
 1\O,-3.5035225496,-1.3703777803,-0.4049673981\N,-3.1136801377,-0.25093
 55043,-0.019160428\O,-3.8852305737,0.6805641533,0.28447285\C,-1.680126
 0201,-0.0488950576,0.1110368647\C,-1.3090091005,1.2648101026,0.2691549
 722\N,-0.0633819798,1.7440330734,0.3978184451\C,1.1935415199,1.0061949
 608,0.376847889\H,1.8394878416,1.5231007215,1.103619854\C,1.9062199603
 ,1.0423786246,-0.974713836\C,3.3076242939,0.4430080773,-0.810214414\C,
 3.2639844823,-0.9624060776,-0.2047170103\C,2.4598924272,-0.9967255567,
 1.0966786684\C,1.0485822598,-0.4479858902,0.8615711699\H,0.4673527226,
 -0.4475387837,1.797907103\N,0.4102178748,-1.3252383324,-0.1210968162\C
 ,-0.8359382181,-1.1167056433,-0.4007197306\H,-2.0741508002,2.024252976
 4,0.1341555366\H,0.0205117961,2.754436066,0.4137816135\H,1.3211279022,
 0.4738136289,-1.7051338943\H,1.9713822975,2.0769734778,-1.3357989484\H
 ,3.8182003202,0.4228095656,-1.7798216726\H,3.8982752918,1.1036952617,-
 0.1598557513\H,2.7962994871,-1.6517704405,-0.9143558578\H,4.2843182044
 ,-1.3213510189,-0.0249607744\H,2.3765464674,-2.0251071952,1.4636298037
 \H,2.961617914,-0.4093371891,1.8779390784\H,-1.3191436836,-1.82267622,
 -1.0751073166\\Version=ES64L-G16RevC.02\HF=-661.2945889\MP2=-663.32977
 92\RMSD=3.989e-09\RMSF=2.908e-03\Dipole=2.0225898,1.7391082,0.218793\P
 G=C01 [X(C9H13N3O2)]\\@
 The archive entry for this job was punched.


 Some scientists claim that hydrogen, because it is so
 plentiful, is the basic building block of the universe. 
 I dispute that. I say that stupidity is far more
 abundant than hydrogen, and THAT is the basic building 
 block of the universe.
                   --Frank Zappa
 Job cpu time:       0 days  1 hours 29 minutes 22.3 seconds.
 Elapsed time:       0 days  0 hours 26 minutes 45.2 seconds.
 File lengths (MBytes):  RWF=     36 Int=      0 D2E=      0 Chk=      7 Scr=      1
 Normal termination of Gaussian 16 at Sat Jul  1 05:01:17 2023.
