 Entering Gaussian System, Link 0=g16
 Initial command:
 /home/alexey/programs//g16/l1.exe "/home/alexey/tmp/Gau-1400446.inp" -scrdir="/home/alexey/tmp/"
 Entering Link 1 = /home/alexey/programs//g16/l1.exe PID=   1400448.
  
 Copyright (c) 1988-2021, Gaussian, Inc.  All Rights Reserved.
  
 This is part of the Gaussian(R) 16 program.  It is based on
 the Gaussian(R) 09 system (copyright 2009, Gaussian, Inc.),
 the Gaussian(R) 03 system (copyright 2003, Gaussian, Inc.),
 the Gaussian(R) 98 system (copyright 1998, Gaussian, Inc.),
 the Gaussian(R) 94 system (copyright 1995, Gaussian, Inc.),
 the Gaussian 92(TM) system (copyright 1992, Gaussian, Inc.),
 the Gaussian 90(TM) system (copyright 1990, Gaussian, Inc.),
 the Gaussian 88(TM) system (copyright 1988, Gaussian, Inc.),
 the Gaussian 86(TM) system (copyright 1986, Carnegie Mellon
 University), and the Gaussian 82(TM) system (copyright 1983,
 Carnegie Mellon University). Gaussian is a federally registered
 trademark of Gaussian, Inc.
  
 This software contains proprietary and confidential information,
 including trade secrets, belonging to Gaussian, Inc.
  
 This software is provided under written license and may be
 used, copied, transmitted, or stored only in accord with that
 written license.
  
 The following legend is applicable only to US Government
 contracts under FAR:
  
                    RESTRICTED RIGHTS LEGEND
  
 Use, reproduction and disclosure by the US Government is
 subject to restrictions as set forth in subparagraphs (a)
 and (c) of the Commercial Computer Software - Restricted
 Rights clause in FAR 52.227-19.
  
 Gaussian, Inc.
 340 Quinnipiac St., Bldg. 40, Wallingford CT 06492
  
  
 ---------------------------------------------------------------
 Warning -- This program may not be used in any manner that
 competes with the business of Gaussian, Inc. or will provide
 assistance to any competitor of Gaussian, Inc.  The licensee
 of this program is prohibited from giving any competitor of
 Gaussian, Inc. access to this program.  By using this program,
 the user acknowledges that Gaussian, Inc. is engaged in the
 business of creating and licensing software in the field of
 computational chemistry and represents and warrants to the
 licensee that it is not a competitor of Gaussian, Inc. and that
 it will not use this program in any manner prohibited above.
 ---------------------------------------------------------------
  

 Cite this work as:
 Gaussian 16, Revision C.02,
 M. J. Frisch, G. W. Trucks, H. B. Schlegel, G. E. Scuseria, 
 M. A. Robb, J. R. Cheeseman, G. Scalmani, V. Barone, 
 G. A. Petersson, H. Nakatsuji, X. Li, M. Caricato, A. V. Marenich, 
 J. Bloino, B. G. Janesko, R. Gomperts, B. Mennucci, H. P. Hratchian, 
 J. V. Ortiz, A. F. Izmaylov, J. L. Sonnenberg, D. Williams-Young, 
 F. Ding, F. Lipparini, F. Egidi, J. Goings, B. Peng, A. Petrone, 
 T. Henderson, D. Ranasinghe, V. G. Zakrzewski, J. Gao, N. Rega, 
 G. Zheng, W. Liang, M. Hada, M. Ehara, K. Toyota, R. Fukuda, 
 J. Hasegawa, M. Ishida, T. Nakajima, Y. Honda, O. Kitao, H. Nakai, 
 T. Vreven, K. Throssell, J. A. Montgomery, Jr., J. E. Peralta, 
 F. Ogliaro, M. J. Bearpark, J. J. Heyd, E. N. Brothers, K. N. Kudin, 
 V. N. Staroverov, T. A. Keith, R. Kobayashi, J. Normand, 
 K. Raghavachari, A. P. Rendell, J. C. Burant, S. S. Iyengar, 
 J. Tomasi, M. Cossi, J. M. Millam, M. Klene, C. Adamo, R. Cammi, 
 J. W. Ochterski, R. L. Martin, K. Morokuma, O. Farkas, 
 J. B. Foresman, and D. J. Fox, Gaussian, Inc., Wallingford CT, 2019.
 
 ******************************************
 Gaussian 16:  ES64L-G16RevC.02  7-Dec-2021
                 1-Jul-2023 
 ******************************************
 %mem=8GB
 %NPROCS=4
 Will use up to    4 processors via shared memory.
 %NoSave
 ---------------------------------------------------------
 #MP2/6-31G* SCF=Tight Opt=(ModRedun, MaxCycle=20 ) NoSymm
 ---------------------------------------------------------
 1/6=20,18=120,19=15,38=1/1,3;
 2/9=110,12=2,15=1,17=6,18=5,40=1/2;
 3/5=1,6=6,7=1,11=9,25=1,30=1,71=1/1,2,3;
 4//1;
 5/5=2,32=2,38=5/2;
 8/6=4,10=2/1;
 9/15=2,16=-3/6;
 10/5=1,31=1/2;
 6/7=2,8=2,9=2,10=2/1;
 7/12=2,30=1/1,2,3,16;
 1/6=20,18=20,19=15/3(2);
 2/9=110,15=1/2;
 99//99;
 2/9=110,15=1/2;
 3/5=1,6=6,7=1,11=9,25=1,30=1,71=1/1,2,3;
 4/5=5,16=3,69=1/1;
 5/5=2,32=2,38=5/2;
 8/6=4,10=2/1;
 9/15=2,16=-3/6;
 10/5=1,31=1/2;
 7/12=2,30=1/1,2,3,16;
 1/6=20,18=20,19=15/3(-8);
 2/9=110,15=1/2;
 6/7=2,8=2,9=2,10=2/1;
 99/9=10/99;
 --------
 MolName:
 --------
 Symbolic Z-matrix:
 Charge =  0 Multiplicity = 1
 8                    0    -3.61224  -1.45333  -0.14 
 7                    0    -3.25495  -0.28389  -0.00867 
 8                    0    -4.03648   0.65685   0.13631 
 6                    0    -1.7566    0.00972  -0.05585 
 6                    0    -1.36862   1.32101   0.24215 
 7                    0    -0.08156   1.76804   0.39326 
 6                    0     1.19711   0.99491   0.3633 
 1                    0     1.8601    1.48941   1.11999 
 6                    0     1.96374   1.05042  -0.98174 
 6                    0     3.37497   0.4621   -0.79219 
 6                    0     3.31087  -0.95598  -0.20313 
 6                    0     2.46043  -0.99359   1.08493 
 6                    0     1.02442  -0.45576   0.83729 
 1                    0     0.47328  -0.49757   1.80599 
 7                    0     0.36951  -1.32173  -0.14587 
 6                    0    -0.87123  -1.11883  -0.44554 
 1                    0    -2.15694   2.06624   0.43943 
 1                    0     0.15541   2.75269   0.24988 
 1                    0     1.41505   0.47715  -1.75901 
 1                    0     2.0514    2.10166  -1.32941 
 1                    0     3.91125   0.44127  -1.76612 
 1                    0     3.95148   1.1129   -0.09738 
 1                    0     2.86437  -1.64216  -0.95782 
 1                    0     4.33817  -1.32149   0.01431 
 1                    0     2.40045  -2.04118   1.45328 
 1                    0     2.95361  -0.38572   1.87217 
 1                    0    -1.37401  -1.87015  -1.07355 
 
 The following ModRedundant input section has been read:
 D       2       4       5       6 F                                           
 D       1       2       4      16 F                                           
 D       7      13      15      16 F                                           
 D       7       9      10      11 F                                           
 D       9      10      11      12 F                                           
 D       6       7      13      15 F                                           
 

 GradGradGradGradGradGradGradGradGradGradGradGradGradGradGradGradGradGrad
 Berny optimization.
 Initialization pass.
                           ----------------------------
                           !    Initial Parameters    !
                           ! (Angstroms and Degrees)  !
 --------------------------                            --------------------------
 ! Name  Definition              Value          Derivative Info.                !
 --------------------------------------------------------------------------------
 ! R1    R(1,2)                  1.2298         estimate D2E/DX2                !
 ! R2    R(2,3)                  1.2316         estimate D2E/DX2                !
 ! R3    R(2,4)                  1.5276         estimate D2E/DX2                !
 ! R4    R(4,5)                  1.3996         estimate D2E/DX2                !
 ! R5    R(4,16)                 1.4864         estimate D2E/DX2                !
 ! R6    R(5,6)                  1.3708         estimate D2E/DX2                !
 ! R7    R(5,17)                 1.1026         estimate D2E/DX2                !
 ! R8    R(6,7)                  1.4945         estimate D2E/DX2                !
 ! R9    R(6,18)                 1.0229         estimate D2E/DX2                !
 ! R10   R(7,8)                  1.121          estimate D2E/DX2                !
 ! R11   R(7,9)                  1.5492         estimate D2E/DX2                !
 ! R12   R(7,13)                 1.5359         estimate D2E/DX2                !
 ! R13   R(9,10)                 1.5407         estimate D2E/DX2                !
 ! R14   R(9,19)                 1.1108         estimate D2E/DX2                !
 ! R15   R(9,20)                 1.1107         estimate D2E/DX2                !
 ! R16   R(10,11)                1.5369         estimate D2E/DX2                !
 ! R17   R(10,21)                1.112          estimate D2E/DX2                !
 ! R18   R(10,22)                1.113          estimate D2E/DX2                !
 ! R19   R(11,12)                1.5439         estimate D2E/DX2                !
 ! R20   R(11,23)                1.1134         estimate D2E/DX2                !
 ! R21   R(11,24)                1.1119         estimate D2E/DX2                !
 ! R22   R(12,13)                1.5533         estimate D2E/DX2                !
 ! R23   R(12,25)                1.1121         estimate D2E/DX2                !
 ! R24   R(12,26)                1.1102         estimate D2E/DX2                !
 ! R25   R(13,14)                1.1153         estimate D2E/DX2                !
 ! R26   R(13,15)                1.4647         estimate D2E/DX2                !
 ! R27   R(15,16)                1.2924         estimate D2E/DX2                !
 ! R28   R(16,27)                1.1008         estimate D2E/DX2                !
 ! A1    A(1,2,3)              123.6797         estimate D2E/DX2                !
 ! A2    A(1,2,4)              117.6733         estimate D2E/DX2                !
 ! A3    A(3,2,4)              118.6366         estimate D2E/DX2                !
 ! A4    A(2,4,5)              116.4499         estimate D2E/DX2                !
 ! A5    A(2,4,16)             116.5141         estimate D2E/DX2                !
 ! A6    A(5,4,16)             127.0176         estimate D2E/DX2                !
 ! A7    A(4,5,6)              126.1053         estimate D2E/DX2                !
 ! A8    A(4,5,17)             118.2387         estimate D2E/DX2                !
 ! A9    A(6,5,17)             115.5399         estimate D2E/DX2                !
 ! A10   A(5,6,7)              129.2256         estimate D2E/DX2                !
 ! A11   A(5,6,18)             121.063          estimate D2E/DX2                !
 ! A12   A(7,6,18)             107.275          estimate D2E/DX2                !
 ! A13   A(6,7,8)              105.3239         estimate D2E/DX2                !
 ! A14   A(6,7,9)              114.9772         estimate D2E/DX2                !
 ! A15   A(6,7,13)             112.7196         estimate D2E/DX2                !
 ! A16   A(8,7,9)              106.116          estimate D2E/DX2                !
 ! A17   A(8,7,13)             105.9518         estimate D2E/DX2                !
 ! A18   A(9,7,13)             110.9425         estimate D2E/DX2                !
 ! A19   A(7,9,10)             109.4381         estimate D2E/DX2                !
 ! A20   A(7,9,19)             110.1576         estimate D2E/DX2                !
 ! A21   A(7,9,20)             110.166          estimate D2E/DX2                !
 ! A22   A(10,9,19)            109.9672         estimate D2E/DX2                !
 ! A23   A(10,9,20)            109.1255         estimate D2E/DX2                !
 ! A24   A(19,9,20)            107.9637         estimate D2E/DX2                !
 ! A25   A(9,10,11)            111.1797         estimate D2E/DX2                !
 ! A26   A(9,10,21)            109.9467         estimate D2E/DX2                !
 ! A27   A(9,10,22)            109.1473         estimate D2E/DX2                !
 ! A28   A(11,10,21)           109.7865         estimate D2E/DX2                !
 ! A29   A(11,10,22)           108.776          estimate D2E/DX2                !
 ! A30   A(21,10,22)           107.9337         estimate D2E/DX2                !
 ! A31   A(10,11,12)           111.4203         estimate D2E/DX2                !
 ! A32   A(10,11,23)           108.9997         estimate D2E/DX2                !
 ! A33   A(10,11,24)           109.8613         estimate D2E/DX2                !
 ! A34   A(12,11,23)           109.2425         estimate D2E/DX2                !
 ! A35   A(12,11,24)           109.7412         estimate D2E/DX2                !
 ! A36   A(23,11,24)           107.486          estimate D2E/DX2                !
 ! A37   A(11,12,13)           111.5795         estimate D2E/DX2                !
 ! A38   A(11,12,25)           109.2073         estimate D2E/DX2                !
 ! A39   A(11,12,26)           109.4848         estimate D2E/DX2                !
 ! A40   A(13,12,25)           109.2152         estimate D2E/DX2                !
 ! A41   A(13,12,26)           109.5215         estimate D2E/DX2                !
 ! A42   A(25,12,26)           107.7507         estimate D2E/DX2                !
 ! A43   A(7,13,12)            105.8009         estimate D2E/DX2                !
 ! A44   A(7,13,14)            111.0399         estimate D2E/DX2                !
 ! A45   A(7,13,15)            113.6746         estimate D2E/DX2                !
 ! A46   A(12,13,14)           107.7822         estimate D2E/DX2                !
 ! A47   A(12,13,15)           108.401          estimate D2E/DX2                !
 ! A48   A(14,13,15)           109.8698         estimate D2E/DX2                !
 ! A49   A(13,15,16)           119.4756         estimate D2E/DX2                !
 ! A50   A(4,16,15)            129.067          estimate D2E/DX2                !
 ! A51   A(4,16,27)            113.3118         estimate D2E/DX2                !
 ! A52   A(15,16,27)           117.6208         estimate D2E/DX2                !
 ! D1    D(1,2,4,5)           -173.1922         estimate D2E/DX2                !
 ! D2    D(1,2,4,16)             8.2585         Frozen                          !
 ! D3    D(3,2,4,5)              7.9357         estimate D2E/DX2                !
 ! D4    D(3,2,4,16)          -170.6136         estimate D2E/DX2                !
 ! D5    D(2,4,5,6)            172.8429         Frozen                          !
 ! D6    D(2,4,5,17)            -3.0521         estimate D2E/DX2                !
 ! D7    D(16,4,5,6)            -8.7829         estimate D2E/DX2                !
 ! D8    D(16,4,5,17)          175.3221         estimate D2E/DX2                !
 ! D9    D(2,4,16,15)         -153.7214         estimate D2E/DX2                !
 ! D10   D(2,4,16,27)           26.0563         estimate D2E/DX2                !
 ! D11   D(5,4,16,15)           27.9053         estimate D2E/DX2                !
 ! D12   D(5,4,16,27)         -152.317          estimate D2E/DX2                !
 ! D13   D(4,5,6,7)             -3.9238         estimate D2E/DX2                !
 ! D14   D(4,5,6,18)           155.9993         estimate D2E/DX2                !
 ! D15   D(17,5,6,7)           172.0683         estimate D2E/DX2                !
 ! D16   D(17,5,6,18)          -28.0086         estimate D2E/DX2                !
 ! D17   D(5,6,7,8)           -144.2591         estimate D2E/DX2                !
 ! D18   D(5,6,7,9)             99.3077         estimate D2E/DX2                !
 ! D19   D(5,6,7,13)           -29.1929         estimate D2E/DX2                !
 ! D20   D(18,6,7,8)            53.6763         estimate D2E/DX2                !
 ! D21   D(18,6,7,9)           -62.7568         estimate D2E/DX2                !
 ! D22   D(18,6,7,13)          168.7426         estimate D2E/DX2                !
 ! D23   D(6,7,9,10)           168.7022         estimate D2E/DX2                !
 ! D24   D(6,7,9,19)           -70.2804         estimate D2E/DX2                !
 ! D25   D(6,7,9,20)            48.7196         estimate D2E/DX2                !
 ! D26   D(8,7,9,10)            52.722          estimate D2E/DX2                !
 ! D27   D(8,7,9,19)           173.7394         estimate D2E/DX2                !
 ! D28   D(8,7,9,20)           -67.2606         estimate D2E/DX2                !
 ! D29   D(13,7,9,10)          -61.9162         estimate D2E/DX2                !
 ! D30   D(13,7,9,19)           59.1012         estimate D2E/DX2                !
 ! D31   D(13,7,9,20)          178.1012         estimate D2E/DX2                !
 ! D32   D(6,7,13,12)         -166.1434         estimate D2E/DX2                !
 ! D33   D(6,7,13,14)          -49.469          estimate D2E/DX2                !
 ! D34   D(6,7,13,15)           75.022          Frozen                          !
 ! D35   D(8,7,13,12)          -51.4563         estimate D2E/DX2                !
 ! D36   D(8,7,13,14)           65.2181         estimate D2E/DX2                !
 ! D37   D(8,7,13,15)         -170.2908         estimate D2E/DX2                !
 ! D38   D(9,7,13,12)           63.2844         estimate D2E/DX2                !
 ! D39   D(9,7,13,14)          179.9588         estimate D2E/DX2                !
 ! D40   D(9,7,13,15)          -55.5501         estimate D2E/DX2                !
 ! D41   D(7,9,10,11)           54.8118         Frozen                          !
 ! D42   D(7,9,10,21)          176.603          estimate D2E/DX2                !
 ! D43   D(7,9,10,22)          -65.1836         estimate D2E/DX2                !
 ! D44   D(19,9,10,11)         -66.3209         estimate D2E/DX2                !
 ! D45   D(19,9,10,21)          55.4703         estimate D2E/DX2                !
 ! D46   D(19,9,10,22)         173.6836         estimate D2E/DX2                !
 ! D47   D(20,9,10,11)         175.4301         estimate D2E/DX2                !
 ! D48   D(20,9,10,21)         -62.7787         estimate D2E/DX2                !
 ! D49   D(20,9,10,22)          55.4347         estimate D2E/DX2                !
 ! D50   D(9,10,11,12)         -52.822          Frozen                          !
 ! D51   D(9,10,11,23)          67.8084         estimate D2E/DX2                !
 ! D52   D(9,10,11,24)        -174.6583         estimate D2E/DX2                !
 ! D53   D(21,10,11,12)       -174.7064         estimate D2E/DX2                !
 ! D54   D(21,10,11,23)        -54.0761         estimate D2E/DX2                !
 ! D55   D(21,10,11,24)         63.4573         estimate D2E/DX2                !
 ! D56   D(22,10,11,12)         67.3935         estimate D2E/DX2                !
 ! D57   D(22,10,11,23)       -171.9762         estimate D2E/DX2                !
 ! D58   D(22,10,11,24)        -54.4428         estimate D2E/DX2                !
 ! D59   D(10,11,12,13)         56.6148         estimate D2E/DX2                !
 ! D60   D(10,11,12,25)        177.4504         estimate D2E/DX2                !
 ! D61   D(10,11,12,26)        -64.7926         estimate D2E/DX2                !
 ! D62   D(23,11,12,13)        -63.873          estimate D2E/DX2                !
 ! D63   D(23,11,12,25)         56.9625         estimate D2E/DX2                !
 ! D64   D(23,11,12,26)        174.7196         estimate D2E/DX2                !
 ! D65   D(24,11,12,13)        178.5207         estimate D2E/DX2                !
 ! D66   D(24,11,12,25)        -60.6438         estimate D2E/DX2                !
 ! D67   D(24,11,12,26)         57.1133         estimate D2E/DX2                !
 ! D68   D(11,12,13,7)         -60.3566         estimate D2E/DX2                !
 ! D69   D(11,12,13,14)       -179.2118         estimate D2E/DX2                !
 ! D70   D(11,12,13,15)         61.9155         estimate D2E/DX2                !
 ! D71   D(25,12,13,7)         178.8125         estimate D2E/DX2                !
 ! D72   D(25,12,13,14)         59.9573         estimate D2E/DX2                !
 ! D73   D(25,12,13,15)        -58.9155         estimate D2E/DX2                !
 ! D74   D(26,12,13,7)          61.0295         estimate D2E/DX2                !
 ! D75   D(26,12,13,14)        -57.8257         estimate D2E/DX2                !
 ! D76   D(26,12,13,15)       -176.6985         estimate D2E/DX2                !
 ! D77   D(7,13,15,16)         -67.1602         Frozen                          !
 ! D78   D(12,13,15,16)        175.5045         estimate D2E/DX2                !
 ! D79   D(14,13,15,16)         57.9587         estimate D2E/DX2                !
 ! D80   D(13,15,16,4)           8.4145         estimate D2E/DX2                !
 ! D81   D(13,15,16,27)       -171.3551         estimate D2E/DX2                !
 --------------------------------------------------------------------------------
 Trust Radius=3.00D-01 FncErr=1.00D-07 GrdErr=1.00D-07 EigMax=2.50D+02 EigMin=1.00D-04
 Number of steps in this run=     20 maximum allowed number of steps=    162.
 GradGradGradGradGradGradGradGradGradGradGradGradGradGradGradGradGradGrad

                          Input orientation:                          
 ---------------------------------------------------------------------
 Center     Atomic      Atomic             Coordinates (Angstroms)
 Number     Number       Type             X           Y           Z
 ---------------------------------------------------------------------
      1          8           0       -3.612240   -1.453330   -0.140000
      2          7           0       -3.254950   -0.283890   -0.008670
      3          8           0       -4.036480    0.656850    0.136310
      4          6           0       -1.756600    0.009720   -0.055850
      5          6           0       -1.368620    1.321010    0.242150
      6          7           0       -0.081560    1.768040    0.393260
      7          6           0        1.197110    0.994910    0.363300
      8          1           0        1.860100    1.489410    1.119990
      9          6           0        1.963740    1.050420   -0.981740
     10          6           0        3.374970    0.462100   -0.792190
     11          6           0        3.310870   -0.955980   -0.203130
     12          6           0        2.460430   -0.993590    1.084930
     13          6           0        1.024420   -0.455760    0.837290
     14          1           0        0.473280   -0.497570    1.805990
     15          7           0        0.369510   -1.321730   -0.145870
     16          6           0       -0.871230   -1.118830   -0.445540
     17          1           0       -2.156940    2.066240    0.439430
     18          1           0        0.155410    2.752690    0.249880
     19          1           0        1.415050    0.477150   -1.759010
     20          1           0        2.051400    2.101660   -1.329410
     21          1           0        3.911250    0.441270   -1.766120
     22          1           0        3.951480    1.112900   -0.097380
     23          1           0        2.864370   -1.642160   -0.957820
     24          1           0        4.338170   -1.321490    0.014310
     25          1           0        2.400450   -2.041180    1.453280
     26          1           0        2.953610   -0.385720    1.872170
     27          1           0       -1.374010   -1.870150   -1.073550
 ---------------------------------------------------------------------
                    Distance matrix (angstroms):
                    1          2          3          4          5
     1  O    0.000000
     2  N    1.229835   0.000000
     3  O    2.170066   1.231584   0.000000
     4  C    2.364529   1.527575   2.377721   0.000000
     5  C    3.588430   2.489348   2.751325   1.399576   0.000000
     6  N    4.809084   3.800312   4.116085   2.469645   1.370837
     7  C    5.420059   4.646991   5.249407   3.141765   2.589206
     8  H    6.339858   5.530118   6.035763   4.080760   3.350163
     9  C    6.169995   5.473753   6.116173   3.972563   3.560302
    10  C    7.274292   6.717607   7.471923   5.203831   4.930439
    11  C    6.941239   6.602993   7.529940   5.160767   5.223082
    12  C    6.212015   5.862184   6.770057   4.482338   4.552941
    13  C    4.842402   4.365569   5.228956   2.957777   3.039366
    14  H    4.625130   4.151909   4.945549   2.948925   3.024140
    15  N    3.983928   3.772618   4.838094   2.510220   3.186806
    16  C    2.778197   2.563221   3.675649   1.486393   2.583241
    17  H    3.852403   2.632400   2.368741   2.152870   1.102604
    18  H    5.660194   4.573644   4.688004   3.357549   2.091037
    19  H    5.623308   5.044975   5.774401   3.630235   3.530660
    20  H    6.791868   5.965949   6.426359   4.527586   3.843924
    21  H    7.926959   7.414102   8.175092   5.935974   5.717003
    22  H    7.987316   7.341085   8.004380   5.813855   5.334984
    23  H    6.530771   6.339705   7.355562   4.989551   5.304574
    24  H    7.953000   7.663721   8.606014   6.238851   6.293025
    25  H    6.247924   6.099911   7.102665   4.874908   5.193943
    26  H    6.949749   6.488000   7.277467   5.104871   4.924588
    27  H    2.460676   2.681068   3.865002   2.171635   3.451753
                    6          7          8          9         10
     6  N    0.000000
     7  C    1.494532   0.000000
     8  H    2.091845   1.121011   0.000000
     9  C    2.566877   1.549173   2.149587   0.000000
    10  C    3.880512   2.522324   2.647004   1.540656   0.000000
    11  C    4.391417   2.931688   3.136130   2.539022   1.536897
    12  C    3.816637   2.463911   2.554783   2.948865   2.545387
    13  C    2.523022   1.535881   2.135876   2.541608   3.003790
    14  H    2.727021   2.198359   2.518324   3.519827   4.011398
    15  N    3.168723   2.512170   3.424437   2.977809   3.554233
    16  C    3.108244   3.065966   4.088271   3.609738   4.544196
    17  H    2.097202   3.521817   4.114913   4.475670   5.890007
    18  H    1.022863   2.046410   2.293237   2.772123   4.086353
    19  H    2.922072   2.195398   3.084053   1.110787   2.185464
    20  H    2.761958   2.195444   2.531996   1.110704   2.174534
    21  H    4.729246   3.493924   3.692620   2.186118   1.112012
    22  H    4.115258   2.795121   2.449004   2.176490   1.112953
    23  H    4.704613   3.388105   3.890062   2.839312   2.171648
    24  H    5.405813   3.918388   3.906983   3.500856   2.181603
    25  H    4.668423   3.442953   3.587217   3.959549   3.501176
    26  H    4.004761   2.695945   2.297314   3.344719   2.827571
    27  H    4.130180   4.108986   5.153419   4.436072   5.298242
                   11         12         13         14         15
    11  C    0.000000
    12  C    1.543943   0.000000
    13  C    2.561357   1.553291   0.000000
    14  H    3.506939   2.171343   1.115295   0.000000
    15  N    2.964566   2.448365   1.464723   2.121265   0.000000
    16  C    4.192284   3.668512   2.383024   2.695006   1.292442
    17  H    6.280417   5.576678   4.079195   3.919013   4.266599
    18  H    4.890438   4.477169   3.375556   3.617556   4.099190
    19  H    2.840556   3.368069   2.786339   3.813953   2.632745
    20  H    3.493413   3.946760   3.505663   4.367745   3.993635
    21  H    2.180757   3.506022   3.989510   5.045892   4.275196
    22  H    2.168370   2.838730   3.449925   4.279522   4.331314
    23  H    1.113446   2.180972   2.831145   3.829627   2.643154
    24  H    1.111856   2.186242   3.522460   4.338933   3.971891
    25  H    2.179499   1.112081   2.187798   2.494217   2.683208
    26  H    2.181674   1.110171   2.190355   2.483732   3.409717
    27  H    4.851952   4.486683   3.377022   3.686218   2.049687
                   16         17         18         19         20
    16  C    0.000000
    17  H    3.546955   0.000000
    18  H    4.065251   2.419526   0.000000
    19  H    3.082115   4.485249   3.286398   0.000000
    20  H    4.437854   4.565104   2.552014   1.796811   0.000000
    21  H    5.200957   6.657921   4.849047   2.496468   2.531137
    22  H    5.325445   6.205628   4.149656   3.098172   2.471001
    23  H    3.806706   6.396725   5.302048   2.689593   3.849050
    24  H    5.233582   7.337840   5.843793   3.863211   4.330457
    25  H    3.893602   6.218408   5.428588   4.199024   5.002831
    26  H    4.531957   5.846586   4.506813   4.036977   4.153451
    27  H    1.100757   4.289202   5.045913   3.709249   5.251112
                   21         22         23         24         25
    21  H    0.000000
    22  H    1.799277   0.000000
    23  H    2.467790   3.084237   0.000000
    24  H    2.541557   2.467440   1.794423   0.000000
    25  H    4.337005   3.841674   2.487537   2.518600   0.000000
    26  H    3.852031   2.668470   3.097652   2.498863   1.794994
    27  H    5.810016   6.181613   4.246085   5.840674   4.545401
                   26         27
    26  H    0.000000
    27  H    5.441424   0.000000
 Symmetry turned off by external request.
 Stoichiometry    C9H13N3O2
 Framework group  C1[X(C9H13N3O2)]
 Deg. of freedom    75
 Full point group                 C1      NOp   1
 Rotational constants (GHZ):           1.6748664           0.4007159           0.3552308
 Standard basis: 6-31G(d) (6D, 7F)
   236 basis functions,   444 primitive gaussians,   236 cartesian basis functions
    52 alpha electrons       52 beta electrons
       nuclear repulsion energy       917.5242115422 Hartrees.
 NAtoms=   27 NActive=   27 NUniq=   27 SFac= 1.00D+00 NAtFMM=   60 NAOKFM=F Big=F
 Integral buffers will be    131072 words long.
 Raffenetti 1 integral format.
 Two-electron integral symmetry is turned off.
 One-electron integrals computed using PRISM.
 NBasis=   236 RedAO= T EigKep=  1.28D-03  NBF=   236
 NBsUse=   236 1.00D-06 EigRej= -1.00D+00 NBFU=   236
 ExpMin= 1.61D-01 ExpMax= 5.48D+03 ExpMxC= 8.25D+02 IAcc=3 IRadAn=         5 AccDes= 0.00D+00
 Harris functional with IExCor=  205 and IRadAn=       5 diagonalized for initial guess.
 HarFok:  IExCor=  205 AccDes= 0.00D+00 IRadAn=         5 IDoV= 1 UseB2=F ITyADJ=14
 ICtDFT=  3500011 ScaDFX=  1.000000  1.000000  1.000000  1.000000
 FoFCou: FMM=F IPFlag=           0 FMFlag=      100000 FMFlg1=           0
         NFxFlg=           0 DoJE=T BraDBF=F KetDBF=T FulRan=T
         wScrn=  0.000000 ICntrl=       500 IOpCl=  0 I1Cent=   200000004 NGrid=           0
         NMat0=    1 NMatS0=      1 NMatT0=    0 NMatD0=    1 NMtDS0=    0 NMtDT0=    0
 Symmetry not used in FoFCou.
 Keep R1 ints in memory in canonical form, NReq=397720213.
 Requested convergence on RMS density matrix=1.00D-08 within 128 cycles.
 Requested convergence on MAX density matrix=1.00D-06.
 Requested convergence on             energy=1.00D-06.
 No special actions if energy rises.
 SCF Done:  E(RHF) =  -661.281322989     A.U. after   16 cycles
            NFock= 16  Conv=0.80D-08     -V/T= 2.0037
 ExpMin= 1.61D-01 ExpMax= 5.48D+03 ExpMxC= 8.25D+02 IAcc=3 IRadAn=         5 AccDes= 0.00D+00
 HarFok:  IExCor=  205 AccDes= 0.00D+00 IRadAn=         5 IDoV=-2 UseB2=F ITyADJ=14
 ICtDFT= 12500011 ScaDFX=  1.000000  1.000000  1.000000  1.000000
 Range of M.O.s used for correlation:    15   236
 NBasis=   236 NAE=    52 NBE=    52 NFC=    14 NFV=     0
 NROrb=    222 NOA=    38 NOB=    38 NVA=   184 NVB=   184
 Fully direct method using O(ONN) memory.
 JobTyp=1 Pass  1:  I=  15 to  52 NPSUse=  4 ParTrn=T ParDer=T DoDerP=T.
 Spin components of T(2) and E(2):
     alpha-alpha T2 =       0.9197508873D-01 E2=     -0.2717691826D+00
     alpha-beta  T2 =       0.4996668774D+00 E2=     -0.1493760437D+01
     beta-beta   T2 =       0.9197508873D-01 E2=     -0.2717691826D+00
 ANorm=    0.1297542699D+01
 E2 =    -0.2037298802D+01 EUMP2 =    -0.66331862179126D+03
          IDoAtm=111111111111111111111111111
          Differentiating once with respect to electric field.
                with respect to dipole field.
          Differentiating once with respect to nuclear coordinates.
 Keep R1 ints in memory in canonical form, NReq=397723379.
          There are     1 degrees of freedom in the 1st order CPHF.  IDoFFX=0 NUNeed=     1.
 LinEq1:  Iter=  0 NonCon=     1 RMS=4.61D-03 Max=1.13D-01 NDo=     1
 AX will form     1 AO Fock derivatives at one time.
 LinEq1:  Iter=  1 NonCon=     1 RMS=1.57D-03 Max=3.01D-02 NDo=     1
 LinEq1:  Iter=  2 NonCon=     1 RMS=6.40D-04 Max=1.82D-02 NDo=     1
 LinEq1:  Iter=  3 NonCon=     1 RMS=2.93D-04 Max=9.15D-03 NDo=     1
 LinEq1:  Iter=  4 NonCon=     1 RMS=9.02D-05 Max=2.08D-03 NDo=     1
 LinEq1:  Iter=  5 NonCon=     1 RMS=3.74D-05 Max=1.87D-03 NDo=     1
 LinEq1:  Iter=  6 NonCon=     1 RMS=1.53D-05 Max=5.79D-04 NDo=     1
 LinEq1:  Iter=  7 NonCon=     1 RMS=5.89D-06 Max=1.01D-04 NDo=     1
 LinEq1:  Iter=  8 NonCon=     1 RMS=2.35D-06 Max=5.97D-05 NDo=     1
 LinEq1:  Iter=  9 NonCon=     1 RMS=8.69D-07 Max=2.49D-05 NDo=     1
 LinEq1:  Iter= 10 NonCon=     1 RMS=4.29D-07 Max=1.53D-05 NDo=     1
 LinEq1:  Iter= 11 NonCon=     1 RMS=1.53D-07 Max=5.72D-06 NDo=     1
 LinEq1:  Iter= 12 NonCon=     1 RMS=5.35D-08 Max=7.83D-07 NDo=     1
 LinEq1:  Iter= 13 NonCon=     1 RMS=1.68D-08 Max=2.82D-07 NDo=     1
 LinEq1:  Iter= 14 NonCon=     1 RMS=5.22D-09 Max=1.19D-07 NDo=     1
 LinEq1:  Iter= 15 NonCon=     1 RMS=1.91D-09 Max=4.25D-08 NDo=     1
 LinEq1:  Iter= 16 NonCon=     1 RMS=7.29D-10 Max=1.24D-08 NDo=     1
 LinEq1:  Iter= 17 NonCon=     1 RMS=2.44D-10 Max=3.69D-09 NDo=     1
 LinEq1:  Iter= 18 NonCon=     1 RMS=8.50D-11 Max=1.07D-09 NDo=     1
 LinEq1:  Iter= 19 NonCon=     0 RMS=2.87D-11 Max=4.34D-10 NDo=     1
 Linear equations converged to 1.000D-10 1.000D-09 after    19 iterations.
 End of Minotr F.D. properties file   721 does not exist.
 End of Minotr F.D. properties file   722 does not exist.
 End of Minotr F.D. properties file   788 does not exist.

 **********************************************************************

            Population analysis using the SCF Density.

 **********************************************************************

 Alpha  occ. eigenvalues --  -20.59806 -20.59361 -15.85252 -15.63457 -15.56806
 Alpha  occ. eigenvalues --  -11.35876 -11.30462 -11.30109 -11.30030 -11.27681
 Alpha  occ. eigenvalues --  -11.24647 -11.23892 -11.23399 -11.22857  -1.58457
 Alpha  occ. eigenvalues --   -1.37961  -1.28637  -1.22728  -1.13286  -1.08372
 Alpha  occ. eigenvalues --   -1.01816  -1.00687  -0.93604  -0.88964  -0.84945
 Alpha  occ. eigenvalues --   -0.81546  -0.78003  -0.76977  -0.74318  -0.71161
 Alpha  occ. eigenvalues --   -0.70307  -0.69746  -0.67388  -0.64378  -0.63260
 Alpha  occ. eigenvalues --   -0.61693  -0.60292  -0.57407  -0.56511  -0.54883
 Alpha  occ. eigenvalues --   -0.53680  -0.50723  -0.49421  -0.48462  -0.47809
 Alpha  occ. eigenvalues --   -0.47680  -0.46155  -0.45693  -0.43988  -0.42074
 Alpha  occ. eigenvalues --   -0.39907  -0.33778
 Alpha virt. eigenvalues --    0.07455   0.11804   0.18065   0.21308   0.23326
 Alpha virt. eigenvalues --    0.24226   0.26346   0.27840   0.28555   0.28867
 Alpha virt. eigenvalues --    0.29960   0.31051   0.31843   0.32287   0.33338
 Alpha virt. eigenvalues --    0.33791   0.34299   0.35469   0.37562   0.38595
 Alpha virt. eigenvalues --    0.40589   0.41684   0.44386   0.45239   0.45621
 Alpha virt. eigenvalues --    0.46199   0.49738   0.53152   0.57530   0.58997
 Alpha virt. eigenvalues --    0.63244   0.69088   0.69200   0.72214   0.74023
 Alpha virt. eigenvalues --    0.74905   0.75717   0.75851   0.77841   0.79157
 Alpha virt. eigenvalues --    0.80595   0.83621   0.84935   0.85386   0.87972
 Alpha virt. eigenvalues --    0.89024   0.90189   0.90592   0.91826   0.93913
 Alpha virt. eigenvalues --    0.95050   0.97203   0.98871   1.00423   1.01964
 Alpha virt. eigenvalues --    1.02762   1.05074   1.06538   1.07009   1.08676
 Alpha virt. eigenvalues --    1.09626   1.10451   1.11273   1.12103   1.13245
 Alpha virt. eigenvalues --    1.13838   1.14099   1.15415   1.16344   1.17235
 Alpha virt. eigenvalues --    1.17931   1.19941   1.21278   1.22274   1.23046
 Alpha virt. eigenvalues --    1.23512   1.24139   1.25591   1.27086   1.27602
 Alpha virt. eigenvalues --    1.29346   1.31278   1.33086   1.36192   1.39809
 Alpha virt. eigenvalues --    1.42647   1.46434   1.47233   1.49029   1.52890
 Alpha virt. eigenvalues --    1.54885   1.55577   1.60275   1.61472   1.65669
 Alpha virt. eigenvalues --    1.68589   1.70435   1.72741   1.73387   1.76895
 Alpha virt. eigenvalues --    1.77722   1.79913   1.84407   1.89375   1.92304
 Alpha virt. eigenvalues --    1.93626   1.96035   1.97510   1.99016   2.00915
 Alpha virt. eigenvalues --    2.02918   2.03732   2.06034   2.08929   2.11933
 Alpha virt. eigenvalues --    2.12936   2.13551   2.17687   2.18976   2.19372
 Alpha virt. eigenvalues --    2.20580   2.22046   2.24115   2.25227   2.26312
 Alpha virt. eigenvalues --    2.29413   2.32231   2.33253   2.35583   2.36051
 Alpha virt. eigenvalues --    2.38752   2.39787   2.41616   2.43201   2.46541
 Alpha virt. eigenvalues --    2.48769   2.50290   2.50593   2.56678   2.57298
 Alpha virt. eigenvalues --    2.60711   2.62907   2.65880   2.68539   2.68964
 Alpha virt. eigenvalues --    2.69638   2.70149   2.74572   2.77215   2.81023
 Alpha virt. eigenvalues --    2.84707   2.86755   2.89940   2.91323   2.95154
 Alpha virt. eigenvalues --    2.97476   2.98300   3.02059   3.03746   3.05600
 Alpha virt. eigenvalues --    3.07169   3.12917   3.19046   3.22680   3.27152
 Alpha virt. eigenvalues --    3.30739   3.33786   3.37253   3.43338   3.59870
 Alpha virt. eigenvalues --    4.09972   4.23249   4.31857   4.36346   4.43022
 Alpha virt. eigenvalues --    4.52651   4.59632   4.60296   4.70764   4.77579
 Alpha virt. eigenvalues --    4.96456   4.99236   5.02876   5.09926
          Condensed to atoms (all electrons):
               1          2          3          4          5          6
     1  O    8.299528   0.313893  -0.089754  -0.079438   0.003527  -0.000012
     2  N    0.313893   5.681440   0.308693   0.266683  -0.046350   0.000824
     3  O   -0.089754   0.308693   8.331684  -0.087562   0.008004   0.000462
     4  C   -0.079438   0.266683  -0.087562   5.247008   0.566660  -0.047733
     5  C    0.003527  -0.046350   0.008004   0.566660   4.672199   0.307472
     6  N   -0.000012   0.000824   0.000462  -0.047733   0.307472   7.185134
     7  C    0.000003  -0.000093   0.000002   0.004141  -0.029142   0.199425
     8  H   -0.000000   0.000002  -0.000000  -0.000190   0.002496  -0.049402
     9  C   -0.000000  -0.000003   0.000000   0.000466   0.001451  -0.056557
    10  C   -0.000000   0.000000  -0.000000  -0.000019  -0.000057   0.003348
    11  C   -0.000000  -0.000000  -0.000000  -0.000014   0.000015  -0.000155
    12  C   -0.000000   0.000002  -0.000000  -0.000110  -0.000131   0.003598
    13  C   -0.000020  -0.000026  -0.000003  -0.010195   0.000468  -0.044987
    14  H   -0.000003  -0.000055   0.000000   0.002980   0.004546  -0.005529
    15  N    0.000157   0.001663  -0.000014  -0.061793  -0.003404   0.001719
    16  C    0.003635  -0.027181   0.001938   0.318025  -0.041161  -0.001063
    17  H    0.000129  -0.004172   0.012124  -0.026868   0.377167  -0.033996
    18  H    0.000000  -0.000035   0.000007   0.001084  -0.024619   0.328463
    19  H    0.000000   0.000000   0.000000  -0.000793   0.000746   0.000554
    20  H    0.000000  -0.000000   0.000000  -0.000025   0.000030  -0.001589
    21  H   -0.000000  -0.000000   0.000000   0.000000   0.000001  -0.000060
    22  H   -0.000000   0.000000  -0.000000  -0.000000  -0.000002  -0.000097
    23  H    0.000000  -0.000000   0.000000   0.000025  -0.000000  -0.000024
    24  H    0.000000   0.000000   0.000000   0.000000  -0.000000   0.000004
    25  H    0.000000  -0.000000   0.000000   0.000019  -0.000001  -0.000071
    26  H    0.000000  -0.000000   0.000000   0.000006  -0.000000  -0.000068
    27  H    0.005237  -0.000380  -0.000004  -0.066581   0.002167   0.000038
               7          8          9         10         11         12
     1  O    0.000003  -0.000000  -0.000000  -0.000000  -0.000000  -0.000000
     2  N   -0.000093   0.000002  -0.000003   0.000000  -0.000000   0.000002
     3  O    0.000002  -0.000000   0.000000  -0.000000  -0.000000  -0.000000
     4  C    0.004141  -0.000190   0.000466  -0.000019  -0.000014  -0.000110
     5  C   -0.029142   0.002496   0.001451  -0.000057   0.000015  -0.000131
     6  N    0.199425  -0.049402  -0.056557   0.003348  -0.000155   0.003598
     7  C    5.007050   0.416258   0.341126  -0.049354  -0.007732  -0.064187
     8  H    0.416258   0.546334  -0.060191   0.001414  -0.000323  -0.002858
     9  C    0.341126  -0.060191   5.180868   0.318001  -0.053078  -0.006149
    10  C   -0.049354   0.001414   0.318001   5.126804   0.332721  -0.060213
    11  C   -0.007732  -0.000323  -0.053078   0.332721   5.124198   0.330534
    12  C   -0.064187  -0.002858  -0.006149  -0.060213   0.330534   5.137432
    13  C    0.331185  -0.040071  -0.051054  -0.001615  -0.047880   0.368260
    14  H   -0.040217  -0.000952   0.003860  -0.000391   0.003958  -0.040807
    15  N   -0.058042   0.004016  -0.012775   0.001437  -0.007743  -0.074249
    16  C   -0.002311   0.000022  -0.000884  -0.000027   0.000003   0.002498
    17  H    0.001415  -0.000019  -0.000066   0.000001   0.000000   0.000001
    18  H   -0.028780  -0.002797   0.000815  -0.000118   0.000011  -0.000137
    19  H   -0.035061   0.004081   0.386132  -0.032593  -0.002253   0.000622
    20  H   -0.041725  -0.001847   0.397228  -0.037328   0.004136  -0.000364
    21  H    0.004048  -0.000080  -0.035827   0.400113  -0.035827   0.004214
    22  H   -0.004247   0.003510  -0.045700   0.395980  -0.045624  -0.001224
    23  H    0.000432   0.000034  -0.002004  -0.040091   0.396685  -0.036606
    24  H   -0.000141  -0.000099   0.004397  -0.038487   0.400295  -0.037870
    25  H    0.004989  -0.000006  -0.000371   0.004097  -0.033902   0.395410
    26  H   -0.004459   0.001596   0.001048  -0.002408  -0.042332   0.394664
    27  H   -0.000403   0.000009  -0.000060   0.000005   0.000005  -0.000019
              13         14         15         16         17         18
     1  O   -0.000020  -0.000003   0.000157   0.003635   0.000129   0.000000
     2  N   -0.000026  -0.000055   0.001663  -0.027181  -0.004172  -0.000035
     3  O   -0.000003   0.000000  -0.000014   0.001938   0.012124   0.000007
     4  C   -0.010195   0.002980  -0.061793   0.318025  -0.026868   0.001084
     5  C    0.000468   0.004546  -0.003404  -0.041161   0.377167  -0.024619
     6  N   -0.044987  -0.005529   0.001719  -0.001063  -0.033996   0.328463
     7  C    0.331185  -0.040217  -0.058042  -0.002311   0.001415  -0.028780
     8  H   -0.040071  -0.000952   0.004016   0.000022  -0.000019  -0.002797
     9  C   -0.051054   0.003860  -0.012775  -0.000884  -0.000066   0.000815
    10  C   -0.001615  -0.000391   0.001437  -0.000027   0.000001  -0.000118
    11  C   -0.047880   0.003958  -0.007743   0.000003   0.000000   0.000011
    12  C    0.368260  -0.040807  -0.074249   0.002498   0.000001  -0.000137
    13  C    5.023047   0.402723   0.240081  -0.069574  -0.000042   0.003730
    14  H    0.402723   0.518472  -0.035674  -0.004893   0.000060   0.000007
    15  N    0.240081  -0.035674   6.936453   0.588253  -0.000056  -0.000121
    16  C   -0.069574  -0.004893   0.588253   4.697958   0.001668  -0.000213
    17  H   -0.000042   0.000060  -0.000056   0.001668   0.386020  -0.001927
    18  H    0.003730   0.000007  -0.000121  -0.000213  -0.001927   0.325473
    19  H   -0.006219   0.000065   0.006913   0.002539   0.000012  -0.000126
    20  H    0.003872  -0.000049   0.000079  -0.000032  -0.000002   0.002802
    21  H   -0.000381   0.000009  -0.000030   0.000002  -0.000000  -0.000000
    22  H    0.000319  -0.000044   0.000003  -0.000001   0.000000   0.000002
    23  H   -0.005880   0.000008   0.006792   0.000063   0.000000   0.000000
    24  H    0.004143  -0.000058   0.000044   0.000005   0.000000  -0.000000
    25  H   -0.034428  -0.002661   0.000795  -0.000062  -0.000000   0.000002
    26  H   -0.044844  -0.000896   0.004190  -0.000054   0.000000  -0.000001
    27  H    0.004894  -0.000173  -0.039987   0.402647  -0.000058   0.000002
              19         20         21         22         23         24
     1  O    0.000000   0.000000  -0.000000  -0.000000   0.000000   0.000000
     2  N    0.000000  -0.000000  -0.000000   0.000000  -0.000000   0.000000
     3  O    0.000000   0.000000   0.000000  -0.000000   0.000000   0.000000
     4  C   -0.000793  -0.000025   0.000000  -0.000000   0.000025   0.000000
     5  C    0.000746   0.000030   0.000001  -0.000002  -0.000000  -0.000000
     6  N    0.000554  -0.001589  -0.000060  -0.000097  -0.000024   0.000004
     7  C   -0.035061  -0.041725   0.004048  -0.004247   0.000432  -0.000141
     8  H    0.004081  -0.001847  -0.000080   0.003510   0.000034  -0.000099
     9  C    0.386132   0.397228  -0.035827  -0.045700  -0.002004   0.004397
    10  C   -0.032593  -0.037328   0.400113   0.395980  -0.040091  -0.038487
    11  C   -0.002253   0.004136  -0.035827  -0.045624   0.396685   0.400295
    12  C    0.000622  -0.000364   0.004214  -0.001224  -0.036606  -0.037870
    13  C   -0.006219   0.003872  -0.000381   0.000319  -0.005880   0.004143
    14  H    0.000065  -0.000049   0.000009  -0.000044   0.000008  -0.000058
    15  N    0.006913   0.000079  -0.000030   0.000003   0.006792   0.000044
    16  C    0.002539  -0.000032   0.000002  -0.000001   0.000063   0.000005
    17  H    0.000012  -0.000002  -0.000000   0.000000   0.000000   0.000000
    18  H   -0.000126   0.002802  -0.000000   0.000002   0.000000  -0.000000
    19  H    0.506829  -0.024007  -0.002594   0.003757   0.001642  -0.000070
    20  H   -0.024007   0.549923  -0.002622  -0.002963  -0.000049  -0.000090
    21  H   -0.002594  -0.002622   0.526034  -0.024689  -0.002813  -0.002063
    22  H    0.003757  -0.002963  -0.024689   0.568903   0.004061  -0.003595
    23  H    0.001642  -0.000049  -0.002813   0.004061   0.509527  -0.024981
    24  H   -0.000070  -0.000090  -0.002063  -0.003595  -0.024981   0.541015
    25  H   -0.000027   0.000011  -0.000086  -0.000082  -0.002088  -0.002382
    26  H    0.000023  -0.000035  -0.000074   0.002465   0.003820  -0.002763
    27  H    0.000077   0.000000  -0.000000   0.000000  -0.000022  -0.000000
              25         26         27
     1  O    0.000000   0.000000   0.005237
     2  N   -0.000000  -0.000000  -0.000380
     3  O    0.000000   0.000000  -0.000004
     4  C    0.000019   0.000006  -0.066581
     5  C   -0.000001  -0.000000   0.002167
     6  N   -0.000071  -0.000068   0.000038
     7  C    0.004989  -0.004459  -0.000403
     8  H   -0.000006   0.001596   0.000009
     9  C   -0.000371   0.001048  -0.000060
    10  C    0.004097  -0.002408   0.000005
    11  C   -0.033902  -0.042332   0.000005
    12  C    0.395410   0.394664  -0.000019
    13  C   -0.034428  -0.044844   0.004894
    14  H   -0.002661  -0.000896  -0.000173
    15  N    0.000795   0.004190  -0.039987
    16  C   -0.000062  -0.000054   0.402647
    17  H   -0.000000   0.000000  -0.000058
    18  H    0.000002  -0.000001   0.000002
    19  H   -0.000027   0.000023   0.000077
    20  H    0.000011  -0.000035   0.000000
    21  H   -0.000086  -0.000074  -0.000000
    22  H   -0.000082   0.002465   0.000000
    23  H   -0.002088   0.003820  -0.000022
    24  H   -0.002382  -0.002763  -0.000000
    25  H    0.510129  -0.023089  -0.000010
    26  H   -0.023089   0.561138   0.000001
    27  H   -0.000010   0.000001   0.453893
 Mulliken charges:
               1
     1  O   -0.456886
     2  N    0.505094
     3  O   -0.485579
     4  C   -0.025777
     5  C    0.197918
     6  N   -0.789699
     7  C    0.055821
     8  H    0.179063
     9  C   -0.310672
    10  C   -0.321223
    11  C   -0.315698
    12  C   -0.312310
    13  C   -0.025505
    14  H    0.195713
    15  N   -0.498708
    16  C    0.128199
    17  H    0.288610
    18  H    0.396475
    19  H    0.189752
    20  H    0.154647
    21  H    0.172725
    22  H    0.149269
    23  H    0.191468
    24  H    0.162695
    25  H    0.183813
    26  H    0.152073
    27  H    0.238723
 Sum of Mulliken charges =  -0.00000
 Mulliken charges with hydrogens summed into heavy atoms:
               1
     1  O   -0.456886
     2  N    0.505094
     3  O   -0.485579
     4  C   -0.025777
     5  C    0.486527
     6  N   -0.393225
     7  C    0.234884
     9  C    0.033727
    10  C    0.000770
    11  C    0.038465
    12  C    0.023576
    13  C    0.170208
    15  N   -0.498708
    16  C    0.366923
 Electronic spatial extent (au):  <R**2>=           3124.2636
 Charge=             -0.0000 electrons
 Dipole moment (field-independent basis, Debye):
    X=              5.3842    Y=              4.5438    Z=              0.4427  Tot=              7.0592
 Quadrupole moment (field-independent basis, Debye-Ang):
   XX=           -105.4540   YY=            -80.1760   ZZ=            -82.2914
   XY=             -1.8861   XZ=              1.2319   YZ=              0.1484
 Traceless Quadrupole moment (field-independent basis, Debye-Ang):
   XX=            -16.1469   YY=              9.1311   ZZ=              7.0157
   XY=             -1.8861   XZ=              1.2319   YZ=              0.1484
 Octapole moment (field-independent basis, Debye-Ang**2):
  XXX=            101.2651  YYY=             37.2596  ZZZ=             -5.4469  XYY=             -1.3883
  XXY=             11.9186  XXZ=             -1.4831  XZZ=             -8.2343  YZZ=             -2.9383
  YYZ=              0.6947  XYZ=             -1.5582
 Hexadecapole moment (field-independent basis, Debye-Ang**3):
 XXXX=          -3557.1329 YYYY=           -621.0491 ZZZZ=           -297.6730 XXXY=            -41.9349
 XXXZ=             31.9995 YYYX=            -21.6375 YYYZ=             13.7730 ZZZX=             23.1263
 ZZZY=             10.1542 XXYY=           -656.8141 XXZZ=           -542.8088 YYZZ=           -164.6765
 XXYZ=              3.9542 YYXZ=             12.0831 ZZXY=              2.7411
 N-N= 9.175242115422D+02 E-N=-3.381061345679D+03  KE= 6.588569201057D+02
 Calling FoFJK, ICntrl=  10002127 FMM=F ISym2X=0 I1Cent= 0 IOpClX= 0 NMat=1 NMatS=1 NMatT=0.
 -------------------------------------------------------------------
 Center     Atomic                   Forces (Hartrees/Bohr)
 Number     Number              X              Y              Z
 -------------------------------------------------------------------
      1        8           0.002578899   -0.019318864   -0.002246648
      2        7           0.039182036    0.014432906   -0.005068096
      3        8          -0.005402548    0.015878277    0.003711798
      4        6          -0.003218245    0.008520027    0.010040521
      5        6           0.003351613   -0.017155901   -0.001979465
      6        7           0.014646163   -0.009067909   -0.007913917
      7        6          -0.004727711    0.005030290    0.002895706
      8        1          -0.010339270   -0.001629728   -0.007679546
      9        6          -0.003883333    0.000325676   -0.002160627
     10        6           0.002818639   -0.000922378    0.000971936
     11        6          -0.000981683   -0.004607783   -0.002394487
     12        6           0.000763909   -0.008782821   -0.002949040
     13        6           0.008705130   -0.001961881    0.004653124
     14        1           0.001010401    0.004414802   -0.009900899
     15        7           0.000255791    0.000399114    0.001593977
     16        6          -0.020863907    0.007483446    0.003915136
     17        1           0.007313177   -0.006264938   -0.005178048
     18        1          -0.017641041   -0.001776014    0.004972453
     19        1           0.003086911    0.005842064    0.007712600
     20        1          -0.003255750   -0.007382586    0.002593898
     21        1          -0.004362012    0.002388910    0.009620221
     22        1          -0.003989508   -0.003952639   -0.007412582
     23        1           0.003966220    0.006107850    0.009323341
     24        1          -0.009375967    0.002629558   -0.002136176
     25        1          -0.000778457    0.010604111   -0.002395164
     26        1          -0.004767210   -0.004779451   -0.004376715
     27        1           0.005907756    0.003545863    0.001786700
 -------------------------------------------------------------------
 Cartesian Forces:  Max     0.039182036 RMS     0.008396402

 GradGradGradGradGradGradGradGradGradGradGradGradGradGradGradGradGradGrad
 Berny optimization.
 FormGI is forming the generalized inverse of G from B-inverse, IUseBI=4.
 Internal  Forces:  Max     0.037886866 RMS     0.006895162
 Search for a local minimum.
 Step number   1 out of a maximum of   20
 All quantities printed in internal units (Hartrees-Bohrs-Radians)
 Mixed Optimization -- RFO/linear search
 Second derivative matrix not updated -- first step.
 ITU=  0
     Eigenvalues ---    0.00231   0.00771   0.01104   0.01182   0.01348
     Eigenvalues ---    0.01483   0.01541   0.01733   0.02000   0.02091
     Eigenvalues ---    0.02686   0.03651   0.04506   0.04689   0.04837
     Eigenvalues ---    0.05073   0.05138   0.05303   0.05889   0.06263
     Eigenvalues ---    0.07181   0.07699   0.07723   0.07864   0.07993
     Eigenvalues ---    0.08049   0.08052   0.10457   0.11730   0.12245
     Eigenvalues ---    0.13197   0.15106   0.15484   0.15973   0.16000
     Eigenvalues ---    0.20074   0.22011   0.23138   0.24986   0.25000
     Eigenvalues ---    0.25000   0.25354   0.26200   0.26650   0.27979
     Eigenvalues ---    0.28082   0.28461   0.29649   0.31461   0.31671
     Eigenvalues ---    0.32046   0.32238   0.32289   0.32381   0.32388
     Eigenvalues ---    0.32404   0.32517   0.32526   0.32582   0.33363
     Eigenvalues ---    0.33396   0.33599   0.35319   0.43884   0.44241
     Eigenvalues ---    0.49207   0.66989   0.90429   0.911551000.00000
     Eigenvalues --- 1000.000001000.000001000.000001000.000001000.00000
     Eigenvalues --- 1000.000001000.000001000.000001000.000001000.00000
     Eigenvalues --- 1000.000001000.000001000.000001000.000001000.00000
     Eigenvalues --- 1000.000001000.000001000.000001000.000001000.00000
     Eigenvalues --- 1000.000001000.000001000.000001000.000001000.00000
     Eigenvalues --- 1000.000001000.000001000.000001000.000001000.00000
     Eigenvalues --- 1000.000001000.000001000.000001000.000001000.00000
     Eigenvalues --- 1000.000001000.000001000.000001000.000001000.00000
     Eigenvalues --- 1000.000001000.000001000.000001000.000001000.00000
     Eigenvalues --- 1000.000001000.000001000.000001000.000001000.00000
     Eigenvalues --- 1000.000001000.000001000.000001000.000001000.00000
     Eigenvalues --- 1000.000001000.000001000.000001000.000001000.00000
     Eigenvalues --- 1000.000001000.000001000.000001000.000001000.00000
     Eigenvalues --- 1000.000001000.000001000.000001000.000001000.00000
     Eigenvalues --- 1000.000001000.000001000.000001000.000001000.00000
     Eigenvalues --- 1000.000001000.000001000.000001000.000001000.00000
     Eigenvalues --- 1000.000001000.000001000.000001000.000001000.00000
     Eigenvalues --- 1000.000001000.000001000.000001000.000001000.00000
     Eigenvalues --- 1000.00000
 RFO step:  Lambda=-2.36789025D-02 EMin= 2.31395880D-03
 Linear search not attempted -- first point.
 Iteration  1 RMS(Cart)=  0.05549927 RMS(Int)=  0.00102691
 Iteration  2 RMS(Cart)=  0.00110528 RMS(Int)=  0.00019473
 Iteration  3 RMS(Cart)=  0.00000098 RMS(Int)=  0.00019473
 Iteration  1 RMS(Cart)=  0.00002129 RMS(Int)=  0.00001632
 Iteration  2 RMS(Cart)=  0.00001201 RMS(Int)=  0.00001805
 Iteration  3 RMS(Cart)=  0.00000722 RMS(Int)=  0.00002018
 Iteration  4 RMS(Cart)=  0.00000462 RMS(Int)=  0.00002172
 Iteration  5 RMS(Cart)=  0.00000317 RMS(Int)=  0.00002280
 Iteration  6 RMS(Cart)=  0.00000234 RMS(Int)=  0.00002359
 Iteration  7 RMS(Cart)=  0.00000184 RMS(Int)=  0.00002420
 Iteration  8 RMS(Cart)=  0.00000151 RMS(Int)=  0.00002468
 Iteration  9 RMS(Cart)=  0.00000127 RMS(Int)=  0.00002508
 Iteration 10 RMS(Cart)=  0.00000108 RMS(Int)=  0.00002542
 Iteration 11 RMS(Cart)=  0.00000093 RMS(Int)=  0.00002570
 Variable       Old X    -DE/DX   Delta X   Delta X   Delta X     New X
                                 (Linear)    (Quad)   (Total)
    R1        2.32405   0.01786   0.00000   0.01910   0.01910   2.34315
    R2        2.32736   0.01599   0.00000   0.01724   0.01724   2.34459
    R3        2.88670  -0.03789   0.00000  -0.11834  -0.11834   2.76836
    R4        2.64482  -0.03459   0.00000  -0.07461  -0.07439   2.57042
    R5        2.80888  -0.02155   0.00000  -0.06160  -0.06139   2.74749
    R6        2.59051  -0.02482   0.00000  -0.04811  -0.04803   2.54248
    R7        2.08362  -0.01039   0.00000  -0.02905  -0.02905   2.05457
    R8        2.82426  -0.01932   0.00000  -0.05384  -0.05395   2.77031
    R9        1.93293  -0.00649   0.00000  -0.01404  -0.01404   1.91889
   R10        2.11840  -0.01202   0.00000  -0.03552  -0.03552   2.08288
   R11        2.92751  -0.01295   0.00000  -0.04405  -0.04407   2.88344
   R12        2.90240  -0.00407   0.00000  -0.00802  -0.00807   2.89432
   R13        2.91142  -0.00458   0.00000  -0.01435  -0.01437   2.89705
   R14        2.09908  -0.00994   0.00000  -0.02848  -0.02848   2.07060
   R15        2.09893  -0.00806   0.00000  -0.02309  -0.02309   2.07584
   R16        2.90431  -0.00180   0.00000  -0.00718  -0.00723   2.89708
   R17        2.10140  -0.01057   0.00000  -0.03042  -0.03042   2.07097
   R18        2.10318  -0.00901   0.00000  -0.02598  -0.02598   2.07719
   R19        2.91763  -0.00909   0.00000  -0.02886  -0.02884   2.88879
   R20        2.10411  -0.01167   0.00000  -0.03373  -0.03373   2.07037
   R21        2.10110  -0.00995   0.00000  -0.02860  -0.02860   2.07250
   R22        2.93529  -0.01063   0.00000  -0.03644  -0.03642   2.89887
   R23        2.10153  -0.01074   0.00000  -0.03091  -0.03091   2.07062
   R24        2.09792  -0.00784   0.00000  -0.02243  -0.02243   2.07549
   R25        2.10760  -0.00926   0.00000  -0.02692  -0.02692   2.08068
   R26        2.76793  -0.00531   0.00000  -0.01091  -0.01117   2.75676
   R27        2.44236  -0.00576   0.00000  -0.00768  -0.00769   2.43467
   R28        2.08013  -0.00614   0.00000  -0.01707  -0.01707   2.06306
    A1        2.15862   0.01098   0.00000   0.04041   0.03996   2.19858
    A2        2.05379  -0.00787   0.00000  -0.02846  -0.02890   2.02489
    A3        2.07060  -0.00308   0.00000  -0.01099  -0.01143   2.05917
    A4        2.03243  -0.00740   0.00000  -0.02461  -0.02485   2.00758
    A5        2.03355  -0.00314   0.00000  -0.00877  -0.00902   2.02453
    A6        2.21688   0.01049   0.00000   0.03293   0.03325   2.25013
    A7        2.20095   0.00616   0.00000   0.01930   0.01960   2.22056
    A8        2.06366  -0.00324   0.00000  -0.01043  -0.01059   2.05306
    A9        2.01655  -0.00282   0.00000  -0.00827  -0.00846   2.00809
   A10        2.25541  -0.00568   0.00000  -0.02021  -0.02027   2.23514
   A11        2.11295  -0.01246   0.00000  -0.07210  -0.07233   2.04061
   A12        1.87230   0.01835   0.00000   0.09853   0.09870   1.97100
   A13        1.83825  -0.00185   0.00000  -0.01899  -0.01880   1.81945
   A14        2.00673  -0.00092   0.00000  -0.01311  -0.01310   1.99363
   A15        1.96733   0.00109   0.00000   0.00259   0.00210   1.96943
   A16        1.85207   0.00272   0.00000   0.02426   0.02407   1.87615
   A17        1.84921   0.00094   0.00000   0.01906   0.01892   1.86813
   A18        1.93631  -0.00166   0.00000  -0.00954  -0.00924   1.92707
   A19        1.91006   0.00016   0.00000  -0.00466  -0.00480   1.90526
   A20        1.92261  -0.00072   0.00000  -0.01317  -0.01314   1.90948
   A21        1.92276  -0.00168   0.00000  -0.00703  -0.00703   1.91573
   A22        1.91929  -0.00043   0.00000   0.00561   0.00556   1.92485
   A23        1.90460   0.00307   0.00000   0.02459   0.02460   1.92920
   A24        1.88432  -0.00038   0.00000  -0.00492  -0.00517   1.87915
   A25        1.94045  -0.00086   0.00000   0.00570   0.00557   1.94602
   A26        1.91893  -0.00071   0.00000  -0.00691  -0.00692   1.91201
   A27        1.90498   0.00030   0.00000  -0.00300  -0.00305   1.90193
   A28        1.91614   0.00076   0.00000   0.00710   0.00714   1.92328
   A29        1.89850   0.00174   0.00000   0.01119   0.01123   1.90973
   A30        1.88380  -0.00122   0.00000  -0.01456  -0.01465   1.86915
   A31        1.94465   0.00074   0.00000   0.00504   0.00519   1.94984
   A32        1.90240   0.00056   0.00000   0.00597   0.00591   1.90831
   A33        1.91744   0.00039   0.00000   0.00523   0.00520   1.92265
   A34        1.90664  -0.00118   0.00000  -0.01426  -0.01432   1.89233
   A35        1.91535  -0.00049   0.00000   0.00022   0.00013   1.91548
   A36        1.87599  -0.00005   0.00000  -0.00257  -0.00260   1.87338
   A37        1.94743  -0.00304   0.00000  -0.01803  -0.01807   1.92936
   A38        1.90603   0.00252   0.00000   0.01684   0.01668   1.92271
   A39        1.91087   0.00145   0.00000   0.01322   0.01321   1.92408
   A40        1.90616   0.00025   0.00000  -0.00303  -0.00286   1.90330
   A41        1.91151  -0.00023   0.00000  -0.00470  -0.00465   1.90686
   A42        1.88060  -0.00088   0.00000  -0.00381  -0.00400   1.87661
   A43        1.84657   0.00468   0.00000   0.02346   0.02351   1.87008
   A44        1.93801  -0.00433   0.00000  -0.03082  -0.03122   1.90679
   A45        1.98400   0.00066   0.00000   0.01197   0.01214   1.99614
   A46        1.88115   0.00219   0.00000   0.02963   0.02991   1.91107
   A47        1.89195  -0.00400   0.00000  -0.02876  -0.02881   1.86314
   A48        1.91759   0.00101   0.00000  -0.00323  -0.00307   1.91452
   A49        2.08524  -0.00627   0.00000  -0.01519  -0.01552   2.06972
   A50        2.25264  -0.00492   0.00000  -0.02080  -0.02092   2.23173
   A51        1.97766   0.00562   0.00000   0.02765   0.02718   2.00485
   A52        2.05287  -0.00069   0.00000  -0.00669  -0.00714   2.04573
    D1       -3.02277  -0.00050   0.00000  -0.01736  -0.01702  -3.03980
    D2        0.14414   0.00112   0.00000   0.00000  -0.00000   0.14414
    D3        0.13850  -0.00241   0.00000  -0.07025  -0.07007   0.06843
    D4       -2.97777  -0.00079   0.00000  -0.05288  -0.05305  -3.03082
    D5        3.01668   0.00187   0.00000   0.00000   0.00000   3.01668
    D6       -0.05327   0.00029   0.00000  -0.01010  -0.01016  -0.06343
    D7       -0.15329  -0.00020   0.00000  -0.02029  -0.02055  -0.17384
    D8        3.05995  -0.00179   0.00000  -0.03039  -0.03071   3.02924
    D9       -2.68295  -0.00266   0.00000  -0.03096  -0.03135  -2.71430
   D10        0.45477   0.00006   0.00000   0.01935   0.01926   0.47402
   D11        0.48704  -0.00052   0.00000  -0.01043  -0.01042   0.47662
   D12       -2.65843   0.00220   0.00000   0.03988   0.04019  -2.61825
   D13       -0.06848  -0.00104   0.00000   0.02148   0.02167  -0.04681
   D14        2.72270   0.00305   0.00000   0.06364   0.06291   2.78562
   D15        3.00316   0.00048   0.00000   0.03123   0.03150   3.03466
   D16       -0.48884   0.00457   0.00000   0.07338   0.07274  -0.41610
   D17       -2.51780  -0.00054   0.00000  -0.01766  -0.01733  -2.53512
   D18        1.73325  -0.00216   0.00000  -0.02792  -0.02765   1.70560
   D19       -0.50951   0.00003   0.00000  -0.00484  -0.00486  -0.51437
   D20        0.93683   0.00012   0.00000  -0.03101  -0.03135   0.90548
   D21       -1.09531  -0.00150   0.00000  -0.04127  -0.04167  -1.13698
   D22        2.94511   0.00069   0.00000  -0.01819  -0.01888   2.92623
   D23        2.94441   0.00227   0.00000   0.02497   0.02488   2.96928
   D24       -1.22662   0.00139   0.00000   0.02061   0.02052  -1.20610
   D25        0.85032  -0.00058   0.00000   0.00195   0.00194   0.85226
   D26        0.92017   0.00327   0.00000   0.03956   0.03958   0.95976
   D27        3.03232   0.00239   0.00000   0.03520   0.03523   3.06756
   D28       -1.17392   0.00042   0.00000   0.01655   0.01665  -1.15727
   D29       -1.08064   0.00147   0.00000   0.00837   0.00835  -1.07229
   D30        1.03151   0.00059   0.00000   0.00401   0.00400   1.03551
   D31        3.10845  -0.00138   0.00000  -0.01464  -0.01458   3.09387
   D32       -2.89975  -0.00083   0.00000  -0.01320  -0.01298  -2.91273
   D33       -0.86340   0.00224   0.00000   0.01967   0.01952  -0.84388
   D34        1.30938   0.00065   0.00000   0.00000  -0.00001   1.30937
   D35       -0.89808  -0.00194   0.00000  -0.02333  -0.02321  -0.92129
   D36        1.13827   0.00113   0.00000   0.00954   0.00929   1.14756
   D37       -2.97214  -0.00046   0.00000  -0.01012  -0.01024  -2.98237
   D38        1.10452   0.00097   0.00000   0.01111   0.01122   1.11574
   D39        3.14087   0.00403   0.00000   0.04398   0.04372  -3.09859
   D40       -0.96953   0.00244   0.00000   0.02431   0.02419  -0.94534
   D41        0.95665   0.00071   0.00000   0.00000   0.00001   0.95665
   D42        3.08230   0.00062   0.00000   0.00806   0.00802   3.09032
   D43       -1.13767  -0.00111   0.00000  -0.01551  -0.01548  -1.15315
   D44       -1.15752   0.00177   0.00000   0.01572   0.01580  -1.14172
   D45        0.96814   0.00168   0.00000   0.02378   0.02380   0.99194
   D46        3.03135  -0.00005   0.00000   0.00021   0.00031   3.03166
   D47        3.06183   0.00064   0.00000   0.00367   0.00364   3.06547
   D48       -1.09569   0.00055   0.00000   0.01173   0.01165  -1.08405
   D49        0.96752  -0.00118   0.00000  -0.01184  -0.01184   0.95567
   D50       -0.92192  -0.00079   0.00000   0.00000   0.00001  -0.92191
   D51        1.18348  -0.00142   0.00000  -0.01065  -0.01067   1.17281
   D52       -3.04836  -0.00093   0.00000  -0.00725  -0.00728  -3.05565
   D53       -3.04920   0.00016   0.00000   0.00011   0.00013  -3.04907
   D54       -0.94381  -0.00047   0.00000  -0.01054  -0.01054  -0.95435
   D55        1.10754   0.00002   0.00000  -0.00714  -0.00716   1.10038
   D56        1.17624   0.00017   0.00000   0.00705   0.00709   1.18333
   D57       -3.00155  -0.00046   0.00000  -0.00360  -0.00359  -3.00514
   D58       -0.95021   0.00004   0.00000  -0.00019  -0.00020  -0.95041
   D59        0.98811  -0.00091   0.00000  -0.01157  -0.01163   0.97649
   D60        3.09709  -0.00086   0.00000  -0.01568  -0.01584   3.08126
   D61       -1.13084   0.00039   0.00000  -0.00280  -0.00278  -1.13362
   D62       -1.11479  -0.00130   0.00000  -0.01280  -0.01280  -1.12760
   D63        0.99418  -0.00125   0.00000  -0.01691  -0.01701   0.97717
   D64        3.04943  -0.00000   0.00000  -0.00403  -0.00396   3.04548
   D65        3.11577  -0.00026   0.00000  -0.00144  -0.00144   3.11433
   D66       -1.05843  -0.00022   0.00000  -0.00554  -0.00565  -1.06408
   D67        0.99681   0.00103   0.00000   0.00733   0.00741   1.00422
   D68       -1.05342   0.00008   0.00000  -0.00042  -0.00033  -1.05375
   D69       -3.12784   0.00158   0.00000   0.00838   0.00802  -3.11982
   D70        1.08063   0.00135   0.00000   0.01153   0.01141   1.09204
   D71        3.12087  -0.00129   0.00000  -0.00790  -0.00774   3.11313
   D72        1.04645   0.00021   0.00000   0.00089   0.00061   1.04706
   D73       -1.02827  -0.00002   0.00000   0.00405   0.00400  -1.02427
   D74        1.06517  -0.00025   0.00000   0.00121   0.00141   1.06657
   D75       -1.00925   0.00125   0.00000   0.01000   0.00975  -0.99950
   D76       -3.08397   0.00103   0.00000   0.01316   0.01314  -3.07083
   D77       -1.17217   0.00408   0.00000   0.00000  -0.00001  -1.17217
   D78        3.06313   0.00052   0.00000  -0.01729  -0.01715   3.04598
   D79        1.01157  -0.00036   0.00000  -0.03441  -0.03466   0.97691
   D80        0.14686   0.00143   0.00000   0.02133   0.02103   0.16789
   D81       -2.99071  -0.00140   0.00000  -0.03088  -0.03066  -3.02137
         Item               Value     Threshold  Converged?
 Maximum Force            0.037887     0.000450     NO 
 RMS     Force            0.006984     0.000300     NO 
 Maximum Displacement     0.294173     0.001800     NO 
 RMS     Displacement     0.055645     0.001200     NO 
 Predicted change in Energy=-1.319331D-02
 GradGradGradGradGradGradGradGradGradGradGradGradGradGradGradGradGradGrad

                          Input orientation:                          
 ---------------------------------------------------------------------
 Center     Atomic      Atomic             Coordinates (Angstroms)
 Number     Number       Type             X           Y           Z
 ---------------------------------------------------------------------
      1          8           0       -3.471331   -1.435646   -0.164127
      2          7           0       -3.124197   -0.253529   -0.024295
      3          8           0       -3.880810    0.709585    0.173932
      4          6           0       -1.681843    0.000766   -0.056588
      5          6           0       -1.316929    1.281191    0.221833
      6          7           0       -0.068446    1.753363    0.390670
      7          6           0        1.191577    1.004337    0.370499
      8          1           0        1.822635    1.514937    1.116103
      9          6           0        1.928107    1.053863   -0.964904
     10          6           0        3.327664    0.453029   -0.790288
     11          6           0        3.262564   -0.961269   -0.202220
     12          6           0        2.437165   -1.001691    1.083842
     13          6           0        1.029011   -0.445263    0.837468
     14          1           0        0.457597   -0.461605    1.778494
     15          7           0        0.394337   -1.324462   -0.138409
     16          6           0       -0.844243   -1.126521   -0.432749
     17          1           0       -2.109569    2.008148    0.380981
     18          1           0        0.064062    2.753647    0.276745
     19          1           0        1.362573    0.488199   -1.713758
     20          1           0        1.995781    2.093390   -1.313438
     21          1           0        3.843280    0.437366   -1.757200
     22          1           0        3.913515    1.100031   -0.122145
     23          1           0        2.800985   -1.636414   -0.931228
     24          1           0        4.274404   -1.335578   -0.005070
     25          1           0        2.355971   -2.031832    1.448297
     26          1           0        2.927821   -0.410871    1.868990
     27          1           0       -1.328693   -1.864180   -1.075425
 ---------------------------------------------------------------------
                    Distance matrix (angstroms):
                    1          2          3          4          5
     1  O    0.000000
     2  N    1.239941   0.000000
     3  O    2.209971   1.240705   0.000000
     4  C    2.297195   1.464954   2.321857   0.000000
     5  C    3.488784   2.383729   2.627263   1.360210   0.000000
     6  N    4.696509   3.679324   3.958607   2.423775   1.345423
     7  C    5.289806   4.512648   5.084745   3.073452   2.528113
     8  H    6.194433   5.375791   5.836571   3.993656   3.272800
     9  C    5.999402   5.302810   5.929502   3.868565   3.462699
    10  C    7.084173   6.535479   7.277201   5.083112   4.825193
    11  C    6.750690   6.428317   7.345818   5.039234   5.116660
    12  C    6.054425   5.719830   6.608571   4.389958   4.477481
    13  C    4.715626   4.246002   5.087268   2.889119   2.977094
    14  H    4.489878   4.015295   4.771591   2.856312   2.934191
    15  N    3.867352   3.679674   4.744659   2.464437   3.138095
    16  C    2.658816   2.475305   3.600012   1.453907   2.539486
    17  H    3.743160   2.511753   2.205998   2.098571   1.087231
    18  H    5.499413   4.393032   4.444184   3.276836   2.019474
    19  H    5.428550   4.851344   5.577226   3.500325   3.399276
    20  H    6.607898   5.777897   6.217838   4.414031   3.740424
    21  H    7.716838   7.212907   7.966489   5.797387   5.590740
    22  H    7.808160   7.167362   7.809712   5.702693   5.244872
    23  H    6.322238   6.151640   7.167390   4.851917   5.176793
    24  H    7.748014   7.477332   8.409653   6.104536   6.177538
    25  H    6.075590   5.946690   6.930860   4.764460   5.096129
    26  H    6.792118   6.343201   7.105358   5.012615   4.857377
    27  H    2.367489   2.631141   3.833858   2.154244   3.402408
                    6          7          8          9         10
     6  N    0.000000
     7  C    1.465982   0.000000
     8  H    2.039433   1.102213   0.000000
     9  C    2.512589   1.525853   2.134081   0.000000
    10  C    3.823493   2.492837   2.650866   1.533053   0.000000
    11  C    4.337784   2.912147   3.153247   2.534407   1.533069
    12  C    3.787994   2.466677   2.590773   2.946489   2.534080
    13  C    2.497598   1.531611   2.133041   2.510836   2.956405
    14  H    2.666244   2.161056   2.491748   3.461975   3.958849
    15  N    3.157071   2.513541   3.417020   2.948215   3.491250
    16  C    3.094125   3.054559   4.060601   3.566958   4.475223
    17  H    2.056986   3.450407   4.030619   4.361754   5.775273
    18  H    1.015433   2.083305   2.309004   2.811693   4.133098
    19  H    2.842019   2.154011   3.045319   1.095714   2.171548
    20  H    2.698266   2.160653   2.503449   1.098487   2.176783
    21  H    4.652612   3.446750   3.674240   2.162335   1.095912
    22  H    4.067657   2.767815   2.465194   2.157363   1.099203
    23  H    4.633749   3.355332   3.883265   2.828540   2.159404
    24  H    5.344017   3.888455   3.923473   3.483650   2.170714
    25  H    4.617800   3.425754   3.601996   3.940574   3.482813
    26  H    3.980824   2.694965   2.344571   3.343027   2.824529
    27  H    4.101740   4.082995   5.113912   4.374235   5.208879
                   11         12         13         14         15
    11  C    0.000000
    12  C    1.528683   0.000000
    13  C    2.517136   1.534018   0.000000
    14  H    3.469976   2.166316   1.101049   0.000000
    15  N    2.891834   2.402337   1.458814   2.103103   0.000000
    16  C    4.116590   3.617080   2.363608   2.650754   1.288370
    17  H    6.165823   5.497812   4.009775   3.826625   4.200667
    18  H    4.925486   4.515039   3.388003   3.570428   4.112470
    19  H    2.827662   3.346802   2.737037   3.730540   2.589391
    20  H    3.488622   3.939708   3.464939   4.295818   3.953104
    21  H    2.170570   3.481316   3.928288   4.977161   4.197586
    22  H    2.163124   2.837471   3.410154   4.241992   4.273528
    23  H    1.095595   2.143768   2.772547   3.770177   2.553004
    24  H    1.096721   2.161633   3.469165   4.302667   3.882373
    25  H    2.166154   1.095725   2.156649   2.485652   2.620308
    26  H    2.169079   1.098303   2.161180   2.472402   3.358994
    27  H    4.759977   4.425835   3.351307   3.647315   2.034239
                   16         17         18         19         20
    16  C    0.000000
    17  H    3.476975   0.000000
    18  H    4.047728   2.300284   0.000000
    19  H    3.019659   4.330583   3.283365   0.000000
    20  H    4.382828   4.442097   2.587694   1.771397   0.000000
    21  H    5.115935   6.517330   4.876943   2.481609   2.520435
    22  H    5.262154   6.111902   4.208544   3.068367   2.466504
    23  H    3.714318   6.254459   5.312492   2.682417   3.834824
    24  H    5.140736   7.216970   5.876067   3.837257   4.319928
    25  H    3.820902   6.115689   5.433800   4.163651   4.977387
    26  H    4.476452   5.782830   4.555275   4.011785   4.155463
    27  H    1.091726   4.210203   5.009237   3.630987   5.174083
                   21         22         23         24         25
    21  H    0.000000
    22  H    1.765634   0.000000
    23  H    2.463569   3.062754   0.000000
    24  H    2.529656   2.464983   1.766135   0.000000
    25  H    4.310945   3.834162   2.452862   2.505481   0.000000
    26  H    3.834948   2.686827   3.059291   2.486055   1.769607
    27  H    5.701863   6.097215   4.138467   5.728855   4.469231
                   26         27
    26  H    0.000000
    27  H    5.375835   0.000000
 Symmetry turned off by external request.
 Stoichiometry    C9H13N3O2
 Framework group  C1[X(C9H13N3O2)]
 Deg. of freedom    75
 Full point group                 C1      NOp   1
 Rotational constants (GHZ):           1.6862175           0.4226207           0.3724576
 Standard basis: 6-31G(d) (6D, 7F)
   236 basis functions,   444 primitive gaussians,   236 cartesian basis functions
    52 alpha electrons       52 beta electrons
       nuclear repulsion energy       932.2771237260 Hartrees.
 NAtoms=   27 NActive=   27 NUniq=   27 SFac= 1.00D+00 NAtFMM=   60 NAOKFM=F Big=F
 Integral buffers will be    131072 words long.
 Raffenetti 1 integral format.
 Two-electron integral symmetry is turned off.
 One-electron integrals computed using PRISM.
 NBasis=   236 RedAO= T EigKep=  1.01D-03  NBF=   236
 NBsUse=   236 1.00D-06 EigRej= -1.00D+00 NBFU=   236
 Initial guess from the checkpoint file:  "/home/alexey/tmp/Gau-1400448.chk"
 B after Tr=     0.055954    0.005262    0.002167
         Rot=    0.999999   -0.000840   -0.000028    0.001043 Ang=  -0.15 deg.
 ExpMin= 1.61D-01 ExpMax= 5.48D+03 ExpMxC= 8.25D+02 IAcc=3 IRadAn=         5 AccDes= 0.00D+00
 Harris functional with IExCor=  205 and IRadAn=       5 diagonalized for initial guess.
 HarFok:  IExCor=  205 AccDes= 0.00D+00 IRadAn=         5 IDoV= 1 UseB2=F ITyADJ=14
 ICtDFT=  3500011 ScaDFX=  1.000000  1.000000  1.000000  1.000000
 FoFCou: FMM=F IPFlag=           0 FMFlag=      100000 FMFlg1=           0
         NFxFlg=           0 DoJE=T BraDBF=F KetDBF=T FulRan=T
         wScrn=  0.000000 ICntrl=       500 IOpCl=  0 I1Cent=   200000004 NGrid=           0
         NMat0=    1 NMatS0=      1 NMatT0=    0 NMatD0=    1 NMtDS0=    0 NMtDT0=    0
 Symmetry not used in FoFCou.
 Keep R1 ints in memory in canonical form, NReq=397720213.
 Requested convergence on RMS density matrix=1.00D-08 within 128 cycles.
 Requested convergence on MAX density matrix=1.00D-06.
 Requested convergence on             energy=1.00D-06.
 No special actions if energy rises.
 SCF Done:  E(RHF) =  -661.298266408     A.U. after   15 cycles
            NFock= 15  Conv=0.41D-08     -V/T= 2.0024
 ExpMin= 1.61D-01 ExpMax= 5.48D+03 ExpMxC= 8.25D+02 IAcc=3 IRadAn=         5 AccDes= 0.00D+00
 HarFok:  IExCor=  205 AccDes= 0.00D+00 IRadAn=         5 IDoV=-2 UseB2=F ITyADJ=14
 ICtDFT= 12500011 ScaDFX=  1.000000  1.000000  1.000000  1.000000
 Range of M.O.s used for correlation:    15   236
 NBasis=   236 NAE=    52 NBE=    52 NFC=    14 NFV=     0
 NROrb=    222 NOA=    38 NOB=    38 NVA=   184 NVB=   184
 Fully direct method using O(ONN) memory.
 JobTyp=1 Pass  1:  I=  15 to  52 NPSUse=  4 ParTrn=T ParDer=T DoDerP=T.
 Spin components of T(2) and E(2):
     alpha-alpha T2 =       0.9124750592D-01 E2=     -0.2723310096D+00
     alpha-beta  T2 =       0.4912823983D+00 E2=     -0.1488057067D+01
     beta-beta   T2 =       0.9124750592D-01 E2=     -0.2723310096D+00
 ANorm=    0.1293745497D+01
 E2 =    -0.2032719087D+01 EUMP2 =    -0.66333098549478D+03
          IDoAtm=111111111111111111111111111
          Differentiating once with respect to electric field.
                with respect to dipole field.
          Differentiating once with respect to nuclear coordinates.
 Keep R1 ints in memory in canonical form, NReq=397723379.
          There are     1 degrees of freedom in the 1st order CPHF.  IDoFFX=0 NUNeed=     1.
 LinEq1:  Iter=  0 NonCon=     1 RMS=4.57D-03 Max=1.06D-01 NDo=     1
 AX will form     1 AO Fock derivatives at one time.
 LinEq1:  Iter=  1 NonCon=     1 RMS=1.54D-03 Max=2.62D-02 NDo=     1
 LinEq1:  Iter=  2 NonCon=     1 RMS=6.41D-04 Max=1.80D-02 NDo=     1
 LinEq1:  Iter=  3 NonCon=     1 RMS=2.80D-04 Max=8.27D-03 NDo=     1
 LinEq1:  Iter=  4 NonCon=     1 RMS=8.71D-05 Max=1.94D-03 NDo=     1
 LinEq1:  Iter=  5 NonCon=     1 RMS=3.64D-05 Max=1.80D-03 NDo=     1
 LinEq1:  Iter=  6 NonCon=     1 RMS=1.41D-05 Max=5.31D-04 NDo=     1
 LinEq1:  Iter=  7 NonCon=     1 RMS=5.37D-06 Max=9.95D-05 NDo=     1
 LinEq1:  Iter=  8 NonCon=     1 RMS=2.14D-06 Max=5.33D-05 NDo=     1
[...]
    27  H    4.729411   4.417539   3.357152   3.651828   2.029117
                   16         17         18         19         20
    16  C    0.000000
    17  H    3.465500   0.000000
    18  H    4.093735   2.240882   0.000000
    19  H    2.999291   4.270053   3.469351   0.000000
    20  H    4.384528   4.417785   2.829395   1.768668   0.000000
    21  H    5.103255   6.487697   5.052519   2.499281   2.520317
    22  H    5.254304   6.093801   4.299156   3.070204   2.461438
    23  H    3.695809   6.225611   5.408514   2.702684   3.841973
    24  H    5.134408   7.201204   5.934121   3.848585   4.316665
    25  H    3.817061   6.108629   5.391247   4.169707   4.983814
    26  H    4.494496   5.803537   4.511155   4.033953   4.180541
    27  H    1.090177   4.212531   5.083249   3.602829   5.166929
                   21         22         23         24         25
    21  H    0.000000
    22  H    1.758942   0.000000
    23  H    2.469866   3.062394   0.000000
    24  H    2.517669   2.460156   1.764557   0.000000
    25  H    4.311950   3.838748   2.444268   2.519519   0.000000
    26  H    3.845972   2.703001   3.060445   2.492096   1.768089
    27  H    5.668612   6.071919   4.095874   5.698075   4.447148
                   26         27
    26  H    0.000000
    27  H    5.377250   0.000000
 Symmetry turned off by external request.
 Stoichiometry    C9H13N3O2
 Framework group  C1[X(C9H13N3O2)]
 Deg. of freedom    75
 Full point group                 C1      NOp   1
 Rotational constants (GHZ):           1.6807390           0.4212361           0.3720189

 **********************************************************************

            Population analysis using the SCF Density.

 **********************************************************************

 Alpha  occ. eigenvalues --  -20.59198 -20.58866 -15.84671 -15.64112 -15.56173
 Alpha  occ. eigenvalues --  -11.35006 -11.29617 -11.29604 -11.28575 -11.27123
 Alpha  occ. eigenvalues --  -11.23812 -11.23249 -11.22681 -11.22108  -1.57069
 Alpha  occ. eigenvalues --   -1.36673  -1.30956  -1.23075  -1.14709  -1.09842
 Alpha  occ. eigenvalues --   -1.02810  -1.01351  -0.94493  -0.89682  -0.85618
 Alpha  occ. eigenvalues --   -0.82439  -0.78552  -0.77441  -0.75193  -0.71996
 Alpha  occ. eigenvalues --   -0.69789  -0.69375  -0.67817  -0.64954  -0.63772
 Alpha  occ. eigenvalues --   -0.62400  -0.60319  -0.57732  -0.56974  -0.55041
 Alpha  occ. eigenvalues --   -0.54621  -0.50782  -0.50079  -0.48617  -0.48120
 Alpha  occ. eigenvalues --   -0.47383  -0.46108  -0.46071  -0.43637  -0.41682
 Alpha  occ. eigenvalues --   -0.39870  -0.33832
 Alpha virt. eigenvalues --    0.07495   0.11873   0.17349   0.21751   0.23946
 Alpha virt. eigenvalues --    0.25408   0.27228   0.28787   0.29040   0.29557
 Alpha virt. eigenvalues --    0.30696   0.31657   0.32054   0.32768   0.33898
 Alpha virt. eigenvalues --    0.34334   0.35911   0.37464   0.38425   0.40278
 Alpha virt. eigenvalues --    0.41481   0.42310   0.45007   0.46025   0.46655
 Alpha virt. eigenvalues --    0.47180   0.49003   0.53833   0.57356   0.59499
 Alpha virt. eigenvalues --    0.63796   0.69464   0.69753   0.72817   0.74210
 Alpha virt. eigenvalues --    0.74826   0.75735   0.76755   0.78720   0.79393
 Alpha virt. eigenvalues --    0.81554   0.84448   0.85614   0.85851   0.88685
 Alpha virt. eigenvalues --    0.89077   0.91099   0.91699   0.92851   0.94677
 Alpha virt. eigenvalues --    0.95406   0.97983   0.99588   1.01657   1.02535
 Alpha virt. eigenvalues --    1.02990   1.05957   1.06894   1.07967   1.09054
 Alpha virt. eigenvalues --    1.10471   1.11285   1.11735   1.12722   1.13941
 Alpha virt. eigenvalues --    1.14807   1.14971   1.15943   1.16821   1.18608
 Alpha virt. eigenvalues --    1.18952   1.21111   1.22505   1.23502   1.24110
 Alpha virt. eigenvalues --    1.24762   1.26486   1.27030   1.27381   1.29513
 Alpha virt. eigenvalues --    1.30121   1.32840   1.35685   1.37956   1.41018
 Alpha virt. eigenvalues --    1.42969   1.46968   1.49016   1.49808   1.54640
 Alpha virt. eigenvalues --    1.55932   1.59209   1.59745   1.63629   1.65261
 Alpha virt. eigenvalues --    1.67840   1.69077   1.72523   1.75577   1.77886
 Alpha virt. eigenvalues --    1.81226   1.84701   1.86612   1.91090   1.92733
 Alpha virt. eigenvalues --    1.95469   1.96935   1.99262   2.01355   2.02636
 Alpha virt. eigenvalues --    2.04630   2.06225   2.08290   2.09512   2.12480
 Alpha virt. eigenvalues --    2.13568   2.15239   2.19478   2.19826   2.22164
 Alpha virt. eigenvalues --    2.22299   2.24859   2.25144   2.28238   2.29334
 Alpha virt. eigenvalues --    2.32175   2.34185   2.34661   2.36447   2.37930
 Alpha virt. eigenvalues --    2.40709   2.42251   2.42444   2.45888   2.47938
 Alpha virt. eigenvalues --    2.50610   2.52313   2.52976   2.55641   2.61254
 Alpha virt. eigenvalues --    2.62422   2.65268   2.67356   2.70371   2.70496
 Alpha virt. eigenvalues --    2.72131   2.72510   2.77045   2.78530   2.83592
 Alpha virt. eigenvalues --    2.88564   2.89031   2.92727   2.93348   2.96038
 Alpha virt. eigenvalues --    2.99324   3.00969   3.03789   3.05992   3.07534
 Alpha virt. eigenvalues --    3.09414   3.15403   3.21022   3.24844   3.27382
 Alpha virt. eigenvalues --    3.33244   3.37425   3.38648   3.52258   3.65706
 Alpha virt. eigenvalues --    4.13410   4.28081   4.34943   4.38708   4.45529
 Alpha virt. eigenvalues --    4.56283   4.61879   4.62469   4.73186   4.79485
 Alpha virt. eigenvalues --    4.99456   5.00817   5.05216   5.11219
          Condensed to atoms (all electrons):
               1          2          3          4          5          6
     1  O    8.316370   0.308675  -0.082611  -0.087138   0.004636  -0.000014
     2  N    0.308675   5.717910   0.301969   0.267101  -0.054081   0.000955
     3  O   -0.082611   0.301969   8.354223  -0.093294   0.004282   0.000760
     4  C   -0.087138   0.267101  -0.093294   5.230269   0.563549  -0.047541
     5  C    0.004636  -0.054081   0.004282   0.563549   4.703498   0.316544
     6  N   -0.000014   0.000955   0.000760  -0.047541   0.316544   7.194904
     7  C    0.000004  -0.000138   0.000004   0.004281  -0.030416   0.173005
     8  H   -0.000000   0.000003  -0.000000  -0.000239   0.003417  -0.050747
     9  C   -0.000000  -0.000005   0.000000   0.000615   0.000485  -0.062718
    10  C    0.000000   0.000000   0.000000  -0.000032  -0.000047   0.003822
    11  C   -0.000000  -0.000000  -0.000000  -0.000032   0.000024  -0.000181
    12  C   -0.000000   0.000002  -0.000000  -0.000121  -0.000172   0.003743
    13  C   -0.000030  -0.000047  -0.000005  -0.010746  -0.000631  -0.048255
    14  H   -0.000004  -0.000099   0.000000   0.002831   0.005401  -0.006627
    15  N    0.000266   0.002449  -0.000017  -0.064117  -0.005777   0.001439
    16  C    0.001922  -0.028914   0.002452   0.326718  -0.049014  -0.001539
    17  H    0.000218  -0.007030   0.017236  -0.023725   0.374933  -0.034516
    18  H    0.000001  -0.000052   0.000011   0.001526  -0.031239   0.338138
    19  H    0.000000  -0.000002   0.000000  -0.001222   0.001430  -0.000410
    20  H    0.000000  -0.000000   0.000000  -0.000058   0.000119  -0.000439
    21  H   -0.000000  -0.000000   0.000000   0.000001   0.000001  -0.000079
    22  H   -0.000000   0.000000  -0.000000  -0.000000  -0.000003  -0.000114
    23  H    0.000000  -0.000000   0.000000   0.000042  -0.000000  -0.000030
    24  H    0.000000   0.000000   0.000000   0.000000  -0.000000   0.000006
    25  H    0.000000  -0.000000   0.000000   0.000026  -0.000001  -0.000088
    26  H    0.000000  -0.000000   0.000000   0.000006  -0.000000  -0.000068
    27  H    0.005317  -0.001129  -0.000006  -0.064191   0.002287   0.000009
               7          8          9         10         11         12
     1  O    0.000004  -0.000000  -0.000000   0.000000  -0.000000  -0.000000
     2  N   -0.000138   0.000003  -0.000005   0.000000  -0.000000   0.000002
     3  O    0.000004  -0.000000   0.000000   0.000000  -0.000000  -0.000000
     4  C    0.004281  -0.000239   0.000615  -0.000032  -0.000032  -0.000121
     5  C   -0.030416   0.003417   0.000485  -0.000047   0.000024  -0.000172
     6  N    0.173005  -0.050747  -0.062718   0.003822  -0.000181   0.003743
     7  C    5.015039   0.418417   0.351734  -0.054368  -0.009075  -0.060969
     8  H    0.418417   0.536375  -0.055011   0.000755  -0.000294  -0.002267
     9  C    0.351734  -0.055011   5.160547   0.324757  -0.050680  -0.005380
    10  C   -0.054368   0.000755   0.324757   5.118390   0.337144  -0.061018
    11  C   -0.009075  -0.000294  -0.050680   0.337144   5.120301   0.335604
    12  C   -0.060969  -0.002267  -0.005380  -0.061018   0.335604   5.119065
    13  C    0.336714  -0.037742  -0.060307  -0.000371  -0.050585   0.372184
    14  H   -0.046097  -0.000854   0.004423  -0.000409   0.004198  -0.036480
    15  N   -0.056938   0.003828  -0.014214   0.001526  -0.012985  -0.082041
    16  C   -0.001645   0.000003  -0.001174  -0.000030   0.000034   0.002636
    17  H    0.001600  -0.000039  -0.000074   0.000001   0.000000   0.000000
    18  H   -0.021544  -0.004206   0.001066  -0.000080   0.000004  -0.000111
    19  H   -0.036988   0.004354   0.389989  -0.032033  -0.002204   0.000687
    20  H   -0.042864  -0.002110   0.399423  -0.035171   0.003943  -0.000418
    21  H    0.004580  -0.000078  -0.036346   0.402335  -0.034910   0.004356
    22  H   -0.004833   0.003544  -0.046983   0.397850  -0.045269  -0.001045
    23  H    0.000569   0.000034  -0.001975  -0.039092   0.399194  -0.037955
    24  H   -0.000131  -0.000101   0.004406  -0.038459   0.402361  -0.038596
    25  H    0.005164  -0.000026  -0.000418   0.004193  -0.033425   0.398448
    26  H   -0.003880   0.001698   0.000968  -0.002250  -0.041475   0.396781
    27  H   -0.000416   0.000009  -0.000059   0.000007   0.000012  -0.000035
              13         14         15         16         17         18
     1  O   -0.000030  -0.000004   0.000266   0.001922   0.000218   0.000001
     2  N   -0.000047  -0.000099   0.002449  -0.028914  -0.007030  -0.000052
     3  O   -0.000005   0.000000  -0.000017   0.002452   0.017236   0.000011
     4  C   -0.010746   0.002831  -0.064117   0.326718  -0.023725   0.001526
     5  C   -0.000631   0.005401  -0.005777  -0.049014   0.374933  -0.031239
     6  N   -0.048255  -0.006627   0.001439  -0.001539  -0.034516   0.338138
     7  C    0.336714  -0.046097  -0.056938  -0.001645   0.001600  -0.021544
     8  H   -0.037742  -0.000854   0.003828   0.000003  -0.000039  -0.004206
     9  C   -0.060307   0.004423  -0.014214  -0.001174  -0.000074   0.001066
    10  C   -0.000371  -0.000409   0.001526  -0.000030   0.000001  -0.000080
    11  C   -0.050585   0.004198  -0.012985   0.000034   0.000000   0.000004
    12  C    0.372184  -0.036480  -0.082041   0.002636   0.000000  -0.000111
    13  C    5.040609   0.403875   0.242947  -0.070807  -0.000020   0.003163
    14  H    0.403875   0.522903  -0.036857  -0.004868   0.000085  -0.000087
    15  N    0.242947  -0.036857   6.961505   0.588071  -0.000070  -0.000136
    16  C   -0.070807  -0.004868   0.588071   4.700382   0.002008  -0.000206
    17  H   -0.000020   0.000085  -0.000070   0.002008   0.377935  -0.002799
    18  H    0.003163  -0.000087  -0.000136  -0.000206  -0.002799   0.311276
    19  H   -0.007581   0.000102   0.007620   0.002986   0.000019  -0.000149
    20  H    0.004383  -0.000067   0.000116  -0.000042   0.000000   0.001085
    21  H   -0.000437   0.000010  -0.000042   0.000004  -0.000000   0.000001
    22  H    0.000053  -0.000054   0.000019  -0.000002   0.000000   0.000002
    23  H   -0.007494   0.000004   0.008604   0.000103   0.000000   0.000000
    24  H    0.004685  -0.000057   0.000131   0.000006   0.000000  -0.000000
    25  H   -0.035664  -0.002829   0.000462  -0.000032  -0.000000   0.000002
    26  H   -0.047383  -0.001045   0.004893  -0.000060   0.000000  -0.000000
    27  H    0.005162  -0.000175  -0.041018   0.404297  -0.000073   0.000001
              19         20         21         22         23         24
     1  O    0.000000   0.000000  -0.000000  -0.000000   0.000000   0.000000
     2  N   -0.000002  -0.000000  -0.000000   0.000000  -0.000000   0.000000
     3  O    0.000000   0.000000   0.000000  -0.000000   0.000000   0.000000
     4  C   -0.001222  -0.000058   0.000001  -0.000000   0.000042   0.000000
     5  C    0.001430   0.000119   0.000001  -0.000003  -0.000000  -0.000000
     6  N   -0.000410  -0.000439  -0.000079  -0.000114  -0.000030   0.000006
     7  C   -0.036988  -0.042864   0.004580  -0.004833   0.000569  -0.000131
     8  H    0.004354  -0.002110  -0.000078   0.003544   0.000034  -0.000101
     9  C    0.389989   0.399423  -0.036346  -0.046983  -0.001975   0.004406
    10  C   -0.032033  -0.035171   0.402335   0.397850  -0.039092  -0.038459
    11  C   -0.002204   0.003943  -0.034910  -0.045269   0.399194   0.402361
    12  C    0.000687  -0.000418   0.004356  -0.001045  -0.037955  -0.038596
    13  C   -0.007581   0.004383  -0.000437   0.000053  -0.007494   0.004685
    14  H    0.000102  -0.000067   0.000010  -0.000054   0.000004  -0.000057
    15  N    0.007620   0.000116  -0.000042   0.000019   0.008604   0.000131
    16  C    0.002986  -0.000042   0.000004  -0.000002   0.000103   0.000006
    17  H    0.000019   0.000000  -0.000000   0.000000   0.000000   0.000000
    18  H   -0.000149   0.001085   0.000001   0.000002   0.000000  -0.000000
    19  H    0.506334  -0.024993  -0.002799   0.003969   0.001527  -0.000066
    20  H   -0.024993   0.542921  -0.002718  -0.002985  -0.000044  -0.000084
    21  H   -0.002799  -0.002718   0.524259  -0.027403  -0.002899  -0.002244
    22  H    0.003969  -0.002985  -0.027403   0.570695   0.004136  -0.003645
    23  H    0.001527  -0.000044  -0.002899   0.004136   0.499326  -0.025424
    24  H   -0.000066  -0.000084  -0.002244  -0.003645  -0.025424   0.537804
    25  H   -0.000029   0.000012  -0.000086  -0.000080  -0.002310  -0.002305
    26  H    0.000020  -0.000030  -0.000081   0.002382   0.004066  -0.003020
    27  H    0.000084   0.000000  -0.000000   0.000000  -0.000035  -0.000000
              25         26         27
     1  O    0.000000   0.000000   0.005317
     2  N   -0.000000  -0.000000  -0.001129
     3  O    0.000000   0.000000  -0.000006
     4  C    0.000026   0.000006  -0.064191
     5  C   -0.000001  -0.000000   0.002287
     6  N   -0.000088  -0.000068   0.000009
     7  C    0.005164  -0.003880  -0.000416
     8  H   -0.000026   0.001698   0.000009
     9  C   -0.000418   0.000968  -0.000059
    10  C    0.004193  -0.002250   0.000007
    11  C   -0.033425  -0.041475   0.000012
    12  C    0.398448   0.396781  -0.000035
    13  C   -0.035664  -0.047383   0.005162
    14  H   -0.002829  -0.001045  -0.000175
    15  N    0.000462   0.004893  -0.041018
    16  C   -0.000032  -0.000060   0.404297
    17  H   -0.000000   0.000000  -0.000073
    18  H    0.000002  -0.000000   0.000001
    19  H   -0.000029   0.000020   0.000084
    20  H    0.000012  -0.000030   0.000000
    21  H   -0.000086  -0.000081  -0.000000
    22  H   -0.000080   0.002382   0.000000
    23  H   -0.002310   0.004066  -0.000035
    24  H   -0.002305  -0.003020  -0.000000
    25  H    0.505513  -0.023978  -0.000014
    26  H   -0.023978   0.561721   0.000001
    27  H   -0.000014   0.000001   0.446569
 Mulliken charges:
               1
     1  O   -0.467613
     2  N    0.492434
     3  O   -0.505003
     4  C   -0.004510
     5  C    0.190775
     6  N   -0.779957
     7  C    0.059190
     8  H    0.181278
     9  C   -0.303069
    10  C   -0.327420
    11  C   -0.321703
    12  C   -0.306898
    13  C   -0.035674
    14  H    0.192776
    15  N   -0.509664
    16  C    0.126711
    17  H    0.294308
    18  H    0.404332
    19  H    0.189357
    20  H    0.160021
    21  H    0.174577
    22  H    0.149766
    23  H    0.199653
    24  H    0.164735
    25  H    0.187466
    26  H    0.150735
    27  H    0.243398
 Sum of Mulliken charges =  -0.00000
 Mulliken charges with hydrogens summed into heavy atoms:
               1
     1  O   -0.467613
     2  N    0.492434
     3  O   -0.505003
     4  C   -0.004510
     5  C    0.485083
     6  N   -0.375625
     7  C    0.240468
     9  C    0.046309
    10  C   -0.003077
    11  C    0.042685
    12  C    0.031303
    13  C    0.157103
    15  N   -0.509664
    16  C    0.370109
 Electronic spatial extent (au):  <R**2>=           3000.7266
 Charge=             -0.0000 electrons
 Dipole moment (field-independent basis, Debye):
    X=              5.4451    Y=              4.8832    Z=              0.8773  Tot=              7.3665
 Quadrupole moment (field-independent basis, Debye-Ang):
   XX=           -106.0769   YY=            -79.1695   ZZ=            -81.5557
   XY=             -2.0108   XZ=              1.1038   YZ=              1.6252
 Traceless Quadrupole moment (field-independent basis, Debye-Ang):
   XX=            -17.1429   YY=              9.7646   ZZ=              7.3784
   XY=             -2.0108   XZ=              1.1038   YZ=              1.6252
 Octapole moment (field-independent basis, Debye-Ang**2):
  XXX=             92.0703  YYY=             38.0099  ZZZ=             -3.1060  XYY=             -4.1896
  XXY=             10.4562  XXZ=             -0.0076  XZZ=            -10.2371  YZZ=             -1.1375
  YYZ=              5.7479  XYZ=             -0.6260
 Hexadecapole moment (field-independent basis, Debye-Ang**3):
 XXXX=          -3373.9326 YYYY=           -606.2547 ZZZZ=           -296.8576 XXXY=            -27.5525
 XXXZ=             15.5394 YYYX=            -14.8728 YYYZ=             26.2710 ZZZX=             13.5006
 ZZZY=             10.5992 XXYY=           -629.2513 XXZZ=           -519.7650 YYZZ=           -158.4223
 XXYZ=              0.7367 YYXZ=              8.6167 ZZXY=              5.0723
 N-N= 9.314506136579D+02 E-N=-3.409616370867D+03  KE= 6.596291505710D+02
 Unable to Open any file for archive entry.
 1\1\GINC-LOTUS\FOpt\RMP2-FC\6-31G(d)\C9H13N3O2\ALEXEY\01-Jul-2023\0\\#
 MP2/6-31G* SCF=Tight Opt=(ModRedun, MaxCycle=20 ) NoSymm\\MolName:\\0,
 1\O,-3.4882762363,-1.4277119464,-0.2034770905\N,-3.1157685263,-0.24692
 96951,-0.0566962065\O,-3.8986428806,0.7093598741,0.1040665698\C,-1.684
 1681328,-0.0080724604,-0.0621716566\C,-1.2981534342,1.2793959936,0.203
 4151251\N,-0.0567142462,1.7523371901,0.3911796063\C,1.2030048604,1.022
 3761902,0.3661406706\H,1.843742777,1.5398034481,1.0960110685\C,1.92103
 99714,1.0484030921,-0.9823465946\C,3.3161245673,0.4359969344,-0.812884
 9952\C,3.2573767782,-0.9678066416,-0.2049275791\C,2.4494257582,-0.9918
 353904,1.094229501\C,1.0434101094,-0.4317060275,0.8510233225\H,0.45912
 14567,-0.421737821,1.7843708753\N,0.402868844,-1.3173205986,-0.1186590
 107\C,-0.8413414768,-1.1331371591,-0.4212749153\H,-2.0927858476,2.0100
 539013,0.3296761273\H,0.0102725249,2.7498515887,0.5563829061\H,1.33215
 89775,0.4814547961,-1.7115215124\H,1.9937943132,2.0807197139,-1.347135
 0658\H,3.829428778,0.4091074158,-1.7809050993\H,3.9113882772,1.0921934
 938,-0.1620932399\H,2.7842057055,-1.654067257,-0.9142706955\H,4.273489
 4289,-1.337161147,-0.0224930644\H,2.357087432,-2.0180574001,1.46470588
 9\H,2.953342118,-0.4047592657,1.8744467023\H,-1.3024418968,-1.88776082
 23,-1.0587816382\\Version=ES64L-G16RevC.02\HF=-661.2996623\MP2=-663.33
 38491\RMSD=7.113e-09\RMSF=9.817e-04\Dipole=1.9884331,1.7160072,0.34647
 6\PG=C01 [X(C9H13N3O2)]\\@
 The archive entry for this job was punched.



 IN THIS SHORT LIFE

 THAT ONLY LASTS AN HOUR

 HOW MUCH, HOW LITTLE, IS WITHIN OUR POWER....


 EMILY DICKINSON BOLTS OF MELODY NO. 521
 Job cpu time:       0 days  1 hours 30 minutes  2.1 seconds.
 Elapsed time:       0 days  0 hours 27 minutes  1.7 seconds.
 File lengths (MBytes):  RWF=     36 Int=      0 D2E=      0 Chk=      7 Scr=      1
 Normal termination of Gaussian 16 at Sat Jul  1 22:57:24 2023.
