 Entering Gaussian System, Link 0=g16
 Initial command:
 /home/alexey/programs//g16/l1.exe "/home/alexey/tmp/Gau-1389064.inp" -scrdir="/home/alexey/tmp/"
 Entering Link 1 = /home/alexey/programs//g16/l1.exe PID=   1389066.
  
 Copyright (c) 1988-2021, Gaussian, Inc.  All Rights Reserved.
  
 This is part of the Gaussian(R) 16 program.  It is based on
 the Gaussian(R) 09 system (copyright 2009, Gaussian, Inc.),
 the Gaussian(R) 03 system (copyright 2003, Gaussian, Inc.),
 the Gaussian(R) 98 system (copyright 1998, Gaussian, Inc.),
 the Gaussian(R) 94 system (copyright 1995, Gaussian, Inc.),
 the Gaussian 92(TM) system (copyright 1992, Gaussian, Inc.),
 the Gaussian 90(TM) system (copyright 1990, Gaussian, Inc.),
 the Gaussian 88(TM) system (copyright 1988, Gaussian, Inc.),
 the Gaussian 86(TM) system (copyright 1986, Carnegie Mellon
 University), and the Gaussian 82(TM) system (copyright 1983,
 Carnegie Mellon University). Gaussian is a federally registered
 trademark of Gaussian, Inc.
  
 This software contains proprietary and confidential information,
 including trade secrets, belonging to Gaussian, Inc.
  
 This software is provided under written license and may be
 used, copied, transmitted, or stored only in accord with that
 written license.
  
 The following legend is applicable only to US Government
 contracts under FAR:
  
                    RESTRICTED RIGHTS LEGEND
  
 Use, reproduction and disclosure by the US Government is
 subject to restrictions as set forth in subparagraphs (a)
 and (c) of the Commercial Computer Software - Restricted
 Rights clause in FAR 52.227-19.
  
 Gaussian, Inc.
 340 Quinnipiac St., Bldg. 40, Wallingford CT 06492
  
  
 ---------------------------------------------------------------
 Warning -- This program may not be used in any manner that
 competes with the business of Gaussian, Inc. or will provide
 assistance to any competitor of Gaussian, Inc.  The licensee
 of this program is prohibited from giving any competitor of
 Gaussian, Inc. access to this program.  By using this program,
 the user acknowledges that Gaussian, Inc. is engaged in the
 business of creating and licensing software in the field of
 computational chemistry and represents and warrants to the
 licensee that it is not a competitor of Gaussian, Inc. and that
 it will not use this program in any manner prohibited above.
 ---------------------------------------------------------------
  

 Cite this work as:
 Gaussian 16, Revision C.02,
 M. J. Frisch, G. W. Trucks, H. B. Schlegel, G. E. Scuseria, 
 M. A. Robb, J. R. Cheeseman, G. Scalmani, V. Barone, 
 G. A. Petersson, H. Nakatsuji, X. Li, M. Caricato, A. V. Marenich, 
 J. Bloino, B. G. Janesko, R. Gomperts, B. Mennucci, H. P. Hratchian, 
 J. V. Ortiz, A. F. Izmaylov, J. L. Sonnenberg, D. Williams-Young, 
 F. Ding, F. Lipparini, F. Egidi, J. Goings, B. Peng, A. Petrone, 
 T. Henderson, D. Ranasinghe, V. G. Zakrzewski, J. Gao, N. Rega, 
 G. Zheng, W. Liang, M. Hada, M. Ehara, K. Toyota, R. Fukuda, 
 J. Hasegawa, M. Ishida, T. Nakajima, Y. Honda, O. Kitao, H. Nakai, 
 T. Vreven, K. Throssell, J. A. Montgomery, Jr., J. E. Peralta, 
 F. Ogliaro, M. J. Bearpark, J. J. Heyd, E. N. Brothers, K. N. Kudin, 
 V. N. Staroverov, T. A. Keith, R. Kobayashi, J. Normand, 
 K. Raghavachari, A. P. Rendell, J. C. Burant, S. S. Iyengar, 
 J. Tomasi, M. Cossi, J. M. Millam, M. Klene, C. Adamo, R. Cammi, 
 J. W. Ochterski, R. L. Martin, K. Morokuma, O. Farkas, 
 J. B. Foresman, and D. J. Fox, Gaussian, Inc., Wallingford CT, 2019.
 
 ******************************************
 Gaussian 16:  ES64L-G16RevC.02  7-Dec-2021
                 1-Jul-2023 
 ******************************************
 %mem=8GB
 %NPROCS=4
 Will use up to    4 processors via shared memory.
 %NoSave
 ---------------------------------------------------------
 #MP2/6-31G* SCF=Tight Opt=(ModRedun, MaxCycle=20 ) NoSymm
 ---------------------------------------------------------
 1/6=20,18=120,19=15,38=1/1,3;
 2/9=110,12=2,15=1,17=6,18=5,40=1/2;
 3/5=1,6=6,7=1,11=9,25=1,30=1,71=1/1,2,3;
 4//1;
 5/5=2,32=2,38=5/2;
 8/6=4,10=2/1;
 9/15=2,16=-3/6;
 10/5=1,31=1/2;
 6/7=2,8=2,9=2,10=2/1;
 7/12=2,30=1/1,2,3,16;
 1/6=20,18=20,19=15/3(2);
 2/9=110,15=1/2;
 99//99;
 2/9=110,15=1/2;
 3/5=1,6=6,7=1,11=9,25=1,30=1,71=1/1,2,3;
 4/5=5,16=3,69=1/1;
 5/5=2,32=2,38=5/2;
 8/6=4,10=2/1;
 9/15=2,16=-3/6;
 10/5=1,31=1/2;
 7/12=2,30=1/1,2,3,16;
 1/6=20,18=20,19=15/3(-8);
 2/9=110,15=1/2;
 6/7=2,8=2,9=2,10=2/1;
 99/9=10/99;
 --------
 MolName:
 --------
 Symbolic Z-matrix:
 Charge =  0 Multiplicity = 1
 8                    0    -3.62757  -1.4281   -0.26482 
 7                    0    -3.26224  -0.27447  -0.04568 
 8                    0    -4.03818   0.66339   0.14189 
 6                    0    -1.75964  -0.00014  -0.01334 
 6                    0    -1.36974   1.29921   0.33215 
 7                    0    -0.08236   1.76899   0.37341 
 6                    0     1.19774   0.99743   0.35086 
 1                    0     1.85918   1.49998   1.10366 
 6                    0     1.96589   1.04268  -0.99345 
 6                    0     3.37738   0.4572   -0.79777 
 6                    0     3.31381  -0.95615  -0.19744 
 6                    0     2.46202  -0.98435   1.0901 
 6                    0     1.02559  -0.44895   0.8393 
 1                    0     0.47689  -0.48391   1.80964 
 7                    0     0.37092  -1.32144  -0.13854 
 6                    0    -0.87017  -1.11484  -0.43713 
 1                    0    -2.15311   2.02552   0.60557 
 1                    0     0.13794   2.74508   0.16116 
 1                    0     1.41861   0.46258  -1.76669 
 1                    0     2.05334   2.0911   -1.34961 
 1                    0     3.91473   0.42901  -1.77093 
 1                    0     3.9526    1.11403  -0.10757 
 1                    0     2.86822  -1.64853  -0.94701 
 1                    0     4.34113  -1.31929   0.02377 
 1                    0     2.40255  -2.02916   1.46634 
 1                    0     2.95478  -0.37034   1.87288 
 1                    0    -1.36931  -1.85354  -1.08275 
 
 The following ModRedundant input section has been read:
 D       2       4       5       6 F                                           
 D       1       2       4      16 F                                           
 D       7      13      15      16 F                                           
 D       7       9      10      11 F                                           
 D       9      10      11      12 F                                           
 D       6       7      13      15 F                                           
 

 GradGradGradGradGradGradGradGradGradGradGradGradGradGradGradGradGradGrad
 Berny optimization.
 Initialization pass.
                           ----------------------------
                           !    Initial Parameters    !
                           ! (Angstroms and Degrees)  !
 --------------------------                            --------------------------
 ! Name  Definition              Value          Derivative Info.                !
 --------------------------------------------------------------------------------
 ! R1    R(1,2)                  1.2298         estimate D2E/DX2                !
 ! R2    R(2,3)                  1.2316         estimate D2E/DX2                !
 ! R3    R(2,4)                  1.5278         estimate D2E/DX2                !
 ! R4    R(4,5)                  1.3999         estimate D2E/DX2                !
 ! R5    R(4,16)                 1.4877         estimate D2E/DX2                !
 ! R6    R(5,6)                  1.371          estimate D2E/DX2                !
 ! R7    R(5,17)                 1.1027         estimate D2E/DX2                !
 ! R8    R(6,7)                  1.4948         estimate D2E/DX2                !
 ! R9    R(6,18)                 1.0229         estimate D2E/DX2                !
 ! R10   R(7,8)                  1.1211         estimate D2E/DX2                !
 ! R11   R(7,9)                  1.549          estimate D2E/DX2                !
 ! R12   R(7,13)                 1.5363         estimate D2E/DX2                !
 ! R13   R(9,10)                 1.5406         estimate D2E/DX2                !
 ! R14   R(9,19)                 1.1108         estimate D2E/DX2                !
 ! R15   R(9,20)                 1.1107         estimate D2E/DX2                !
 ! R16   R(10,11)                1.5369         estimate D2E/DX2                !
 ! R17   R(10,21)                1.112          estimate D2E/DX2                !
 ! R18   R(10,22)                1.113          estimate D2E/DX2                !
 ! R19   R(11,12)                1.5441         estimate D2E/DX2                !
 ! R20   R(11,23)                1.1135         estimate D2E/DX2                !
 ! R21   R(11,24)                1.1118         estimate D2E/DX2                !
 ! R22   R(12,13)                1.5533         estimate D2E/DX2                !
 ! R23   R(12,25)                1.1121         estimate D2E/DX2                !
 ! R24   R(12,26)                1.1102         estimate D2E/DX2                !
 ! R25   R(13,14)                1.1153         estimate D2E/DX2                !
 ! R26   R(13,15)                1.4649         estimate D2E/DX2                !
 ! R27   R(15,16)                1.2931         estimate D2E/DX2                !
 ! R28   R(16,27)                1.1007         estimate D2E/DX2                !
 ! A1    A(1,2,3)              123.664          estimate D2E/DX2                !
 ! A2    A(1,2,4)              117.6707         estimate D2E/DX2                !
 ! A3    A(3,2,4)              118.6646         estimate D2E/DX2                !
 ! A4    A(2,4,5)              116.4758         estimate D2E/DX2                !
 ! A5    A(2,4,16)             116.5803         estimate D2E/DX2                !
 ! A6    A(5,4,16)             126.8152         estimate D2E/DX2                !
 ! A7    A(4,5,6)              125.9437         estimate D2E/DX2                !
 ! A8    A(4,5,17)             118.339          estimate D2E/DX2                !
 ! A9    A(6,5,17)             115.7161         estimate D2E/DX2                !
 ! A10   A(5,6,7)              128.814          estimate D2E/DX2                !
 ! A11   A(5,6,18)             121.53           estimate D2E/DX2                !
 ! A12   A(7,6,18)             107.7565         estimate D2E/DX2                !
 ! A13   A(6,7,8)              105.2928         estimate D2E/DX2                !
 ! A14   A(6,7,9)              115.0049         estimate D2E/DX2                !
 ! A15   A(6,7,13)             112.6556         estimate D2E/DX2                !
 ! A16   A(8,7,9)              106.087          estimate D2E/DX2                !
 ! A17   A(8,7,13)             105.942          estimate D2E/DX2                !
 ! A18   A(9,7,13)             111.0388         estimate D2E/DX2                !
 ! A19   A(7,9,10)             109.4523         estimate D2E/DX2                !
 ! A20   A(7,9,19)             110.154          estimate D2E/DX2                !
 ! A21   A(7,9,20)             110.1765         estimate D2E/DX2                !
 ! A22   A(10,9,19)            109.9589         estimate D2E/DX2                !
 ! A23   A(10,9,20)            109.1061         estimate D2E/DX2                !
 ! A24   A(19,9,20)            107.9699         estimate D2E/DX2                !
 ! A25   A(9,10,11)            111.1746         estimate D2E/DX2                !
 ! A26   A(9,10,21)            109.9505         estimate D2E/DX2                !
 ! A27   A(9,10,22)            109.1483         estimate D2E/DX2                !
 ! A28   A(11,10,21)           109.7864         estimate D2E/DX2                !
 ! A29   A(11,10,22)           108.7759         estimate D2E/DX2                !
 ! A30   A(21,10,22)           107.9342         estimate D2E/DX2                !
 ! A31   A(10,11,12)           111.4283         estimate D2E/DX2                !
 ! A32   A(10,11,23)           108.9923         estimate D2E/DX2                !
 ! A33   A(10,11,24)           109.8682         estimate D2E/DX2                !
 ! A34   A(12,11,23)           109.2221         estimate D2E/DX2                !
 ! A35   A(12,11,24)           109.746          estimate D2E/DX2                !
 ! A36   A(23,11,24)           107.4939         estimate D2E/DX2                !
 ! A37   A(11,12,13)           111.6667         estimate D2E/DX2                !
 ! A38   A(11,12,25)           109.1945         estimate D2E/DX2                !
 ! A39   A(11,12,26)           109.4503         estimate D2E/DX2                !
 ! A40   A(13,12,25)           109.208          estimate D2E/DX2                !
 ! A41   A(13,12,26)           109.4906         estimate D2E/DX2                !
 ! A42   A(25,12,26)           107.746          estimate D2E/DX2                !
 ! A43   A(7,13,12)            105.796          estimate D2E/DX2                !
 ! A44   A(7,13,14)            111.1773         estimate D2E/DX2                !
 ! A45   A(7,13,15)            113.4896         estimate D2E/DX2                !
 ! A46   A(12,13,14)           107.6784         estimate D2E/DX2                !
 ! A47   A(12,13,15)           108.4061         estimate D2E/DX2                !
 ! A48   A(14,13,15)           110.0121         estimate D2E/DX2                !
 ! A49   A(13,15,16)           119.2021         estimate D2E/DX2                !
 ! A50   A(4,16,15)            128.8847         estimate D2E/DX2                !
 ! A51   A(4,16,27)            113.5028         estimate D2E/DX2                !
 ! A52   A(15,16,27)           117.6085         estimate D2E/DX2                !
 ! D1    D(1,2,4,5)           -175.5809         estimate D2E/DX2                !
 ! D2    D(1,2,4,16)             8.258          Frozen                          !
 ! D3    D(3,2,4,5)              4.7088         estimate D2E/DX2                !
 ! D4    D(3,2,4,16)          -171.4523         estimate D2E/DX2                !
 ! D5    D(2,4,5,6)           -177.4675         Frozen                          !
 ! D6    D(2,4,5,17)             2.9418         estimate D2E/DX2                !
 ! D7    D(16,4,5,6)            -1.7567         estimate D2E/DX2                !
 ! D8    D(16,4,5,17)          178.6527         estimate D2E/DX2                !
 ! D9    D(2,4,16,15)         -156.6778         estimate D2E/DX2                !
 ! D10   D(2,4,16,27)           22.5635         estimate D2E/DX2                !
 ! D11   D(5,4,16,15)           27.6153         estimate D2E/DX2                !
 ! D12   D(5,4,16,27)         -153.1434         estimate D2E/DX2                !
 ! D13   D(4,5,6,7)            -13.9501         estimate D2E/DX2                !
 ! D14   D(4,5,6,18)           148.3618         estimate D2E/DX2                !
 ! D15   D(17,5,6,7)           165.65           estimate D2E/DX2                !
 ! D16   D(17,5,6,18)          -32.0381         estimate D2E/DX2                !
 ! D17   D(5,6,7,8)           -138.4535         estimate D2E/DX2                !
 ! D18   D(5,6,7,9)            105.1544         estimate D2E/DX2                !
 ! D19   D(5,6,7,13)           -23.4493         estimate D2E/DX2                !
 ! D20   D(18,6,7,8)            57.3259         estimate D2E/DX2                !
 ! D21   D(18,6,7,9)           -59.0662         estimate D2E/DX2                !
 ! D22   D(18,6,7,13)          172.3301         estimate D2E/DX2                !
 ! D23   D(6,7,9,10)           168.7364         estimate D2E/DX2                !
 ! D24   D(6,7,9,19)           -70.2497         estimate D2E/DX2                !
 ! D25   D(6,7,9,20)            48.7622         estimate D2E/DX2                !
 ! D26   D(8,7,9,10)            52.7984         estimate D2E/DX2                !
 ! D27   D(8,7,9,19)           173.8124         estimate D2E/DX2                !
 ! D28   D(8,7,9,20)           -67.1757         estimate D2E/DX2                !
 ! D29   D(13,7,9,10)          -61.8596         estimate D2E/DX2                !
 ! D30   D(13,7,9,19)           59.1544         estimate D2E/DX2                !
 ! D31   D(13,7,9,20)          178.1663         estimate D2E/DX2                !
 ! D32   D(6,7,13,12)         -166.2451         estimate D2E/DX2                !
 ! D33   D(6,7,13,14)          -49.6266         estimate D2E/DX2                !
 ! D34   D(6,7,13,15)           75.0215         Frozen                          !
 ! D35   D(8,7,13,12)          -51.6334         estimate D2E/DX2                !
 ! D36   D(8,7,13,14)           64.985          estimate D2E/DX2                !
 ! D37   D(8,7,13,15)         -170.3669         estimate D2E/DX2                !
 ! D38   D(9,7,13,12)           63.1151         estimate D2E/DX2                !
 ! D39   D(9,7,13,14)          179.7335         estimate D2E/DX2                !
 ! D40   D(9,7,13,15)          -55.6184         estimate D2E/DX2                !
 ! D41   D(7,9,10,11)           54.8124         Frozen                          !
 ! D42   D(7,9,10,21)          176.6027         estimate D2E/DX2                !
 ! D43   D(7,9,10,22)          -65.1804         estimate D2E/DX2                !
 ! D44   D(19,9,10,11)         -66.3198         estimate D2E/DX2                !
 ! D45   D(19,9,10,21)          55.4706         estimate D2E/DX2                !
 ! D46   D(19,9,10,22)         173.6874         estimate D2E/DX2                !
 ! D47   D(20,9,10,11)         175.4403         estimate D2E/DX2                !
 ! D48   D(20,9,10,21)         -62.7694         estimate D2E/DX2                !
 ! D49   D(20,9,10,22)          55.4475         estimate D2E/DX2                !
 ! D50   D(9,10,11,12)         -52.8221         Frozen                          !
 ! D51   D(9,10,11,23)          67.783          estimate D2E/DX2                !
 ! D52   D(9,10,11,24)        -174.6746         estimate D2E/DX2                !
 ! D53   D(21,10,11,12)       -174.708          estimate D2E/DX2                !
 ! D54   D(21,10,11,23)        -54.1029         estimate D2E/DX2                !
 ! D55   D(21,10,11,24)         63.4395         estimate D2E/DX2                !
 ! D56   D(22,10,11,12)         67.3914         estimate D2E/DX2                !
 ! D57   D(22,10,11,23)       -172.0035         estimate D2E/DX2                !
 ! D58   D(22,10,11,24)        -54.4611         estimate D2E/DX2                !
 ! D59   D(10,11,12,13)         56.5643         estimate D2E/DX2                !
 ! D60   D(10,11,12,25)        177.4383         estimate D2E/DX2                !
 ! D61   D(10,11,12,26)        -64.8378         estimate D2E/DX2                !
 ! D62   D(23,11,12,13)        -63.9059         estimate D2E/DX2                !
 ! D63   D(23,11,12,25)         56.9681         estimate D2E/DX2                !
 ! D64   D(23,11,12,26)        174.692          estimate D2E/DX2                !
 ! D65   D(24,11,12,13)        178.4875         estimate D2E/DX2                !
 ! D66   D(24,11,12,25)        -60.6385         estimate D2E/DX2                !
 ! D67   D(24,11,12,26)         57.0854         estimate D2E/DX2                !
 ! D68   D(11,12,13,7)         -60.1847         estimate D2E/DX2                !
 ! D69   D(11,12,13,14)       -179.1452         estimate D2E/DX2                !
 ! D70   D(11,12,13,15)         61.868          estimate D2E/DX2                !
 ! D71   D(25,12,13,7)         178.9492         estimate D2E/DX2                !
 ! D72   D(25,12,13,14)         59.9887         estimate D2E/DX2                !
 ! D73   D(25,12,13,15)        -58.9981         estimate D2E/DX2                !
 ! D74   D(26,12,13,7)          61.1941         estimate D2E/DX2                !
 ! D75   D(26,12,13,14)        -57.7664         estimate D2E/DX2                !
 ! D76   D(26,12,13,15)       -176.7532         estimate D2E/DX2                !
 ! D77   D(7,13,15,16)         -67.1599         Frozen                          !
 ! D78   D(12,13,15,16)        175.6185         estimate D2E/DX2                !
 ! D79   D(14,13,15,16)         58.1145         estimate D2E/DX2                !
 ! D80   D(13,15,16,4)           6.2135         estimate D2E/DX2                !
 ! D81   D(13,15,16,27)       -173.0014         estimate D2E/DX2                !
 --------------------------------------------------------------------------------
 Trust Radius=3.00D-01 FncErr=1.00D-07 GrdErr=1.00D-07 EigMax=2.50D+02 EigMin=1.00D-04
 Number of steps in this run=     20 maximum allowed number of steps=    162.
 GradGradGradGradGradGradGradGradGradGradGradGradGradGradGradGradGradGrad

                          Input orientation:                          
 ---------------------------------------------------------------------
 Center     Atomic      Atomic             Coordinates (Angstroms)
 Number     Number       Type             X           Y           Z
 ---------------------------------------------------------------------
      1          8           0       -3.627570   -1.428100   -0.264820
      2          7           0       -3.262240   -0.274470   -0.045680
      3          8           0       -4.038180    0.663390    0.141890
      4          6           0       -1.759640   -0.000140   -0.013340
      5          6           0       -1.369740    1.299210    0.332150
      6          7           0       -0.082360    1.768990    0.373410
      7          6           0        1.197740    0.997430    0.350860
      8          1           0        1.859180    1.499980    1.103660
      9          6           0        1.965890    1.042680   -0.993450
     10          6           0        3.377380    0.457200   -0.797770
     11          6           0        3.313810   -0.956150   -0.197440
     12          6           0        2.462020   -0.984350    1.090100
     13          6           0        1.025590   -0.448950    0.839300
     14          1           0        0.476890   -0.483910    1.809640
     15          7           0        0.370920   -1.321440   -0.138540
     16          6           0       -0.870170   -1.114840   -0.437130
     17          1           0       -2.153110    2.025520    0.605570
     18          1           0        0.137940    2.745080    0.161160
     19          1           0        1.418610    0.462580   -1.766690
     20          1           0        2.053340    2.091100   -1.349610
     21          1           0        3.914730    0.429010   -1.770930
     22          1           0        3.952600    1.114030   -0.107570
     23          1           0        2.868220   -1.648530   -0.947010
     24          1           0        4.341130   -1.319290    0.023770
     25          1           0        2.402550   -2.029160    1.466340
     26          1           0        2.954780   -0.370340    1.872880
     27          1           0       -1.369310   -1.853540   -1.082750
 ---------------------------------------------------------------------
                    Distance matrix (angstroms):
                    1          2          3          4          5
     1  O    0.000000
     2  N    1.229777   0.000000
     3  O    2.169872   1.231603   0.000000
     4  C    2.364630   1.527779   2.378258   0.000000
     5  C    3.590597   2.490137   2.749734   1.399891   0.000000
     6  N    4.816351   3.803025   4.113935   2.468332   1.371037
     7  C    5.435612   4.654718   5.250725   3.142274   2.585222
     8  H    6.367952   5.540632   6.033551   4.073562   3.325877
     9  C    6.158121   5.474166   6.122231   3.990948   3.598534
    10  C    7.273769   6.722019   7.477701   5.216653   4.951853
    11  C    6.957732   6.613029   7.535902   5.166018   5.225204
    12  C    6.254265   5.878867   6.772499   4.473104   4.524546
    13  C    4.881569   4.381680   5.231199   2.947190   3.008466
    14  H    4.694834   4.179374   4.948085   2.925638   2.961847
    15  N    4.001905   3.782145   4.843382   2.510138   3.181077
    16  C    2.780481   2.565434   3.678811   1.487720   2.582441
    17  H    3.854751   2.635194   2.371473   2.154337   1.102703
    18  H    5.637017   4.552108   4.666239   3.341780   2.095919
    19  H    5.594123   5.041376   5.784424   3.659183   3.588868
    20  H    6.770102   5.962512   6.431916   4.549475   3.895239
    21  H    7.912238   7.414868   8.183067   5.955818   5.753765
    22  H    7.996632   7.347495   8.007364   5.820648   5.343683
    23  H    6.535232   6.346887   7.364037   5.000602   5.318433
    24  H    7.974666   7.675136   8.611493   6.241869   6.290125
    25  H    6.302423   6.120048   7.105420   4.861090   5.156996
    26  H    7.001139   6.507027   7.277803   5.091231   4.884948
    27  H    2.439210   2.674352   3.867499   2.175106   3.455687
                    6          7          8          9         10
     6  N    0.000000
     7  C    1.494814   0.000000
     8  H    2.091700   1.121056   0.000000
     9  C    2.567326   1.548958   2.149042   0.000000
    10  C    3.881012   2.522306   2.647217   1.540578   0.000000
    11  C    4.391609   2.931699   3.137098   2.538866   1.536878
    12  C    3.816857   2.464210   2.556462   2.948928   2.545585
    13  C    2.522670   1.536302   2.136138   2.543245   3.005332
    14  H    2.729666   2.200462   2.518919   3.522061   4.012121
    15  N    3.165172   2.510040   3.423213   2.977224   3.554848
    16  C    3.097434   3.059226   4.081748   3.606608   4.543463
    17  H    2.099455   3.514263   4.077102   4.526478   5.917374
    18  H    1.022905   2.052667   2.324058   2.751852   4.080185
    19  H    2.922267   2.195192   3.083701   1.110825   2.185318
    20  H    2.762927   2.195396   2.530939   1.110712   2.174221
    21  H    4.729743   3.493870   3.692632   2.186102   1.112016
    22  H    4.115971   2.795176   2.449172   2.176440   1.112960
    23  H    4.704134   3.387636   3.890569   2.838832   2.171547
    24  H    5.406199   3.918556   3.908263   3.500772   2.181664
    25  H    4.668535   3.443270   3.589097   3.959475   3.501210
    26  H    4.006166   2.697134   2.300029   3.345202   2.827682
    27  H    4.110884   4.095487   5.142921   4.418102   5.286946
                   11         12         13         14         15
    11  C    0.000000
    12  C    1.544053   0.000000
    13  C    2.562817   1.553346   0.000000
    14  H    3.507064   2.170004   1.115282   0.000000
    15  N    2.966059   2.448650   1.464924   2.123227   0.000000
    16  C    4.193843   3.667826   2.380460   2.694554   1.293114
    17  H    6.278726   5.531140   4.035067   3.829350   4.257531
    18  H    4.890179   4.491428   3.383729   3.641257   4.084199
    19  H    2.840268   3.368020   2.788644   3.817436   2.632728
    20  H    3.493138   3.946846   3.507057   4.369981   3.992826
    21  H    2.180744   3.506201   3.991396   5.047044   4.276372
    22  H    2.168358   2.838915   3.450631   4.278980   4.331386
    23  H    1.113461   2.180814   2.832875   3.830655   2.645207
    24  H    1.111841   2.186389   3.523547   4.338150   3.973527
    25  H    2.179429   1.112080   2.187753   2.492753   2.684032
    26  H    2.181353   1.110210   2.190032   2.481297   3.409800
    27  H    4.849814   4.489528   3.376788   3.694626   2.050137
                   16         17         18         19         20
    16  C    0.000000
    17  H    3.548946   0.000000
    18  H    4.034008   2.442166   0.000000
    19  H    3.081314   4.563725   3.250620   0.000000
    20  H    4.433687   4.639100   2.525643   1.796918   0.000000
    21  H    5.201708   6.709343   4.833352   2.496349   2.530776
    22  H    5.323118   6.214425   4.157424   3.098092   2.470732
    23  H    3.810559   6.412714   5.290206   2.688871   3.848500
    24  H    5.235635   7.328124   5.848486   3.862892   4.330233
    25  H    3.894852   6.159171   5.442915   4.198737   5.002806
    26  H    4.529974   5.782453   4.535462   4.037331   4.154001
    27  H    1.100747   4.302543   4.996641   3.688453   5.229334
                   21         22         23         24         25
    21  H    0.000000
    22  H    1.799292   0.000000
    23  H    2.467833   3.084198   0.000000
    24  H    2.541519   2.467641   1.794513   0.000000
    25  H    4.336958   3.841808   2.487164   2.518535   0.000000
    26  H    3.851989   2.668554   3.097264   2.498335   1.794970
    27  H    5.796957   6.170914   4.244657   5.841142   4.555835
                   26         27
    26  H    0.000000
    27  H    5.443656   0.000000
 Symmetry turned off by external request.
 Stoichiometry    C9H13N3O2
 Framework group  C1[X(C9H13N3O2)]
 Deg. of freedom    75
 Full point group                 C1      NOp   1
 Rotational constants (GHZ):           1.6785570           0.3990316           0.3550726
 Standard basis: 6-31G(d) (6D, 7F)
   236 basis functions,   444 primitive gaussians,   236 cartesian basis functions
    52 alpha electrons       52 beta electrons
       nuclear repulsion energy       917.3526688970 Hartrees.
 NAtoms=   27 NActive=   27 NUniq=   27 SFac= 1.00D+00 NAtFMM=   60 NAOKFM=F Big=F
 Integral buffers will be    131072 words long.
 Raffenetti 1 integral format.
 Two-electron integral symmetry is turned off.
 One-electron integrals computed using PRISM.
 NBasis=   236 RedAO= T EigKep=  1.27D-03  NBF=   236
 NBsUse=   236 1.00D-06 EigRej= -1.00D+00 NBFU=   236
 ExpMin= 1.61D-01 ExpMax= 5.48D+03 ExpMxC= 8.25D+02 IAcc=3 IRadAn=         5 AccDes= 0.00D+00
 Harris functional with IExCor=  205 and IRadAn=       5 diagonalized for initial guess.
 HarFok:  IExCor=  205 AccDes= 0.00D+00 IRadAn=         5 IDoV= 1 UseB2=F ITyADJ=14
 ICtDFT=  3500011 ScaDFX=  1.000000  1.000000  1.000000  1.000000
 FoFCou: FMM=F IPFlag=           0 FMFlag=      100000 FMFlg1=           0
         NFxFlg=           0 DoJE=T BraDBF=F KetDBF=T FulRan=T
         wScrn=  0.000000 ICntrl=       500 IOpCl=  0 I1Cent=   200000004 NGrid=           0
         NMat0=    1 NMatS0=      1 NMatT0=    0 NMatD0=    1 NMtDS0=    0 NMtDT0=    0
 Symmetry not used in FoFCou.
 Keep R1 ints in memory in canonical form, NReq=397720213.
 Requested convergence on RMS density matrix=1.00D-08 within 128 cycles.
 Requested convergence on MAX density matrix=1.00D-06.
 Requested convergence on             energy=1.00D-06.
 No special actions if energy rises.
 SCF Done:  E(RHF) =  -661.279340574     A.U. after   16 cycles
            NFock= 16  Conv=0.79D-08     -V/T= 2.0037
 ExpMin= 1.61D-01 ExpMax= 5.48D+03 ExpMxC= 8.25D+02 IAcc=3 IRadAn=         5 AccDes= 0.00D+00
 HarFok:  IExCor=  205 AccDes= 0.00D+00 IRadAn=         5 IDoV=-2 UseB2=F ITyADJ=14
 ICtDFT= 12500011 ScaDFX=  1.000000  1.000000  1.000000  1.000000
 Range of M.O.s used for correlation:    15   236
 NBasis=   236 NAE=    52 NBE=    52 NFC=    14 NFV=     0
 NROrb=    222 NOA=    38 NOB=    38 NVA=   184 NVB=   184
 Fully direct method using O(ONN) memory.
 JobTyp=1 Pass  1:  I=  15 to  52 NPSUse=  4 ParTrn=T ParDer=T DoDerP=T.
 Spin components of T(2) and E(2):
     alpha-alpha T2 =       0.9197875017D-01 E2=     -0.2717602261D+00
     alpha-beta  T2 =       0.4998171352D+00 E2=     -0.1493832987D+01
     beta-beta   T2 =       0.9197875017D-01 E2=     -0.2717602261D+00
 ANorm=    0.1297603420D+01
 E2 =    -0.2037353440D+01 EUMP2 =    -0.66331669401407D+03
          IDoAtm=111111111111111111111111111
          Differentiating once with respect to electric field.
                with respect to dipole field.
          Differentiating once with respect to nuclear coordinates.
 Keep R1 ints in memory in canonical form, NReq=397723379.
          There are     1 degrees of freedom in the 1st order CPHF.  IDoFFX=0 NUNeed=     1.
 LinEq1:  Iter=  0 NonCon=     1 RMS=4.61D-03 Max=1.10D-01 NDo=     1
 AX will form     1 AO Fock derivatives at one time.
 LinEq1:  Iter=  1 NonCon=     1 RMS=1.56D-03 Max=2.82D-02 NDo=     1
 LinEq1:  Iter=  2 NonCon=     1 RMS=6.41D-04 Max=1.79D-02 NDo=     1
 LinEq1:  Iter=  3 NonCon=     1 RMS=2.95D-04 Max=9.08D-03 NDo=     1
 LinEq1:  Iter=  4 NonCon=     1 RMS=9.08D-05 Max=2.16D-03 NDo=     1
 LinEq1:  Iter=  5 NonCon=     1 RMS=3.79D-05 Max=1.92D-03 NDo=     1
 LinEq1:  Iter=  6 NonCon=     1 RMS=1.56D-05 Max=5.94D-04 NDo=     1
 LinEq1:  Iter=  7 NonCon=     1 RMS=6.04D-06 Max=1.04D-04 NDo=     1
 LinEq1:  Iter=  8 NonCon=     1 RMS=2.42D-06 Max=5.98D-05 NDo=     1
 LinEq1:  Iter=  9 NonCon=     1 RMS=9.10D-07 Max=2.57D-05 NDo=     1
 LinEq1:  Iter= 10 NonCon=     1 RMS=4.42D-07 Max=1.45D-05 NDo=     1
 LinEq1:  Iter= 11 NonCon=     1 RMS=1.57D-07 Max=5.76D-06 NDo=     1
 LinEq1:  Iter= 12 NonCon=     1 RMS=5.54D-08 Max=8.22D-07 NDo=     1
 LinEq1:  Iter= 13 NonCon=     1 RMS=1.77D-08 Max=4.25D-07 NDo=     1
 LinEq1:  Iter= 14 NonCon=     1 RMS=5.80D-09 Max=1.77D-07 NDo=     1
 LinEq1:  Iter= 15 NonCon=     1 RMS=2.18D-09 Max=5.39D-08 NDo=     1
 LinEq1:  Iter= 16 NonCon=     1 RMS=8.09D-10 Max=1.27D-08 NDo=     1
 LinEq1:  Iter= 17 NonCon=     1 RMS=2.70D-10 Max=3.94D-09 NDo=     1
 LinEq1:  Iter= 18 NonCon=     1 RMS=9.16D-11 Max=1.07D-09 NDo=     1
 LinEq1:  Iter= 19 NonCon=     0 RMS=2.99D-11 Max=3.75D-10 NDo=     1
 Linear equations converged to 1.000D-10 1.000D-09 after    19 iterations.
 End of Minotr F.D. properties file   721 does not exist.
 End of Minotr F.D. properties file   722 does not exist.
 End of Minotr F.D. properties file   788 does not exist.

 **********************************************************************

            Population analysis using the SCF Density.

 **********************************************************************

 Alpha  occ. eigenvalues --  -20.59888 -20.59458 -15.85350 -15.63091 -15.56923
 Alpha  occ. eigenvalues --  -11.35866 -11.30497 -11.30189 -11.30027 -11.27714
 Alpha  occ. eigenvalues --  -11.24598 -11.23858 -11.23407 -11.22849  -1.58548
 Alpha  occ. eigenvalues --   -1.38047  -1.28493  -1.22730  -1.13260  -1.08372
 Alpha  occ. eigenvalues --   -1.01805  -1.00638  -0.93564  -0.88963  -0.84917
 Alpha  occ. eigenvalues --   -0.81530  -0.78071  -0.76923  -0.74320  -0.71040
 Alpha  occ. eigenvalues --   -0.70382  -0.69851  -0.67432  -0.64341  -0.63287
 Alpha  occ. eigenvalues --   -0.61565  -0.60518  -0.57458  -0.56402  -0.54891
 Alpha  occ. eigenvalues --   -0.53441  -0.50728  -0.49239  -0.48524  -0.47763
 Alpha  occ. eigenvalues --   -0.47655  -0.46139  -0.45686  -0.44058  -0.42142
 Alpha  occ. eigenvalues --   -0.40058  -0.33761
 Alpha virt. eigenvalues --    0.07110   0.11730   0.18350   0.21525   0.23540
 Alpha virt. eigenvalues --    0.24292   0.26147   0.27691   0.28562   0.28881
 Alpha virt. eigenvalues --    0.29845   0.31141   0.31860   0.32252   0.33335
 Alpha virt. eigenvalues --    0.33767   0.34151   0.35530   0.37617   0.38558
 Alpha virt. eigenvalues --    0.40685   0.41866   0.44567   0.45330   0.45743
 Alpha virt. eigenvalues --    0.45836   0.49655   0.53196   0.57655   0.58990
 Alpha virt. eigenvalues --    0.63387   0.69138   0.69416   0.72173   0.74016
 Alpha virt. eigenvalues --    0.74968   0.75646   0.75854   0.77650   0.79469
 Alpha virt. eigenvalues --    0.80417   0.83643   0.85136   0.85305   0.88011
 Alpha virt. eigenvalues --    0.89111   0.90183   0.91039   0.91986   0.93885
 Alpha virt. eigenvalues --    0.95442   0.97192   0.98799   1.00280   1.01936
 Alpha virt. eigenvalues --    1.02725   1.05099   1.06292   1.06963   1.08603
 Alpha virt. eigenvalues --    1.09480   1.10498   1.11332   1.11727   1.13273
 Alpha virt. eigenvalues --    1.13814   1.14327   1.15387   1.16337   1.17297
 Alpha virt. eigenvalues --    1.18041   1.20028   1.21114   1.22281   1.22818
 Alpha virt. eigenvalues --    1.23979   1.24776   1.25864   1.26962   1.27469
 Alpha virt. eigenvalues --    1.29518   1.30902   1.33011   1.35812   1.39426
 Alpha virt. eigenvalues --    1.43017   1.45363   1.47535   1.49793   1.52411
 Alpha virt. eigenvalues --    1.54068   1.55263   1.60725   1.61582   1.66561
 Alpha virt. eigenvalues --    1.68791   1.70103   1.72525   1.73564   1.76850
 Alpha virt. eigenvalues --    1.78249   1.80080   1.84259   1.88405   1.92899
 Alpha virt. eigenvalues --    1.94030   1.96323   1.97416   1.99043   2.00611
 Alpha virt. eigenvalues --    2.02904   2.04087   2.05878   2.08745   2.11836
 Alpha virt. eigenvalues --    2.12760   2.14091   2.17823   2.18535   2.19464
 Alpha virt. eigenvalues --    2.21056   2.22099   2.24076   2.24802   2.26575
 Alpha virt. eigenvalues --    2.28926   2.32344   2.33833   2.35553   2.35885
 Alpha virt. eigenvalues --    2.38351   2.39962   2.41552   2.43209   2.45957
 Alpha virt. eigenvalues --    2.48432   2.50266   2.51474   2.56644   2.57271
 Alpha virt. eigenvalues --    2.60884   2.62750   2.66162   2.68292   2.68710
 Alpha virt. eigenvalues --    2.69837   2.70240   2.74976   2.77011   2.80855
 Alpha virt. eigenvalues --    2.84539   2.86673   2.90187   2.91501   2.95380
 Alpha virt. eigenvalues --    2.97852   2.98668   3.02432   3.03286   3.05885
 Alpha virt. eigenvalues --    3.06728   3.12339   3.19506   3.22703   3.27125
 Alpha virt. eigenvalues --    3.30590   3.33591   3.37193   3.43429   3.59632
 Alpha virt. eigenvalues --    4.09945   4.23250   4.32150   4.36361   4.43341
 Alpha virt. eigenvalues --    4.52595   4.59671   4.59883   4.70937   4.77600
 Alpha virt. eigenvalues --    4.96095   4.99230   5.02638   5.10008
          Condensed to atoms (all electrons):
               1          2          3          4          5          6
     1  O    8.300350   0.311728  -0.089559  -0.078774   0.003444  -0.000014
     2  N    0.311728   5.685122   0.309572   0.262971  -0.045525   0.000928
     3  O   -0.089559   0.309572   8.329759  -0.087086   0.007752   0.000457
     4  C   -0.078774   0.262971  -0.087086   5.240925   0.568487  -0.049945
     5  C    0.003444  -0.045525   0.007752   0.568487   4.670056   0.308436
     6  N   -0.000014   0.000928   0.000457  -0.049945   0.308436   7.197615
     7  C    0.000003  -0.000094   0.000001   0.004109  -0.029813   0.197022
     8  H   -0.000000   0.000002  -0.000000  -0.000167   0.001904  -0.051039
     9  C   -0.000000  -0.000003   0.000000   0.000493   0.002020  -0.055385
    10  C   -0.000000   0.000000  -0.000000  -0.000019  -0.000072   0.003305
    11  C   -0.000000  -0.000000  -0.000000  -0.000014   0.000015  -0.000154
    12  C   -0.000000   0.000002  -0.000000  -0.000084  -0.000118   0.003610
    13  C   -0.000018  -0.000024  -0.000002  -0.011058   0.000471  -0.043437
    14  H   -0.000003  -0.000052   0.000000   0.002924   0.005354  -0.005640
    15  N    0.000216   0.001595  -0.000012  -0.060417  -0.004256   0.002159
    16  C    0.003146  -0.026295   0.001970   0.319116  -0.041340  -0.001669
    17  H    0.000116  -0.003969   0.011548  -0.027761   0.377648  -0.033750
    18  H    0.000000  -0.000036   0.000009   0.000721  -0.023745   0.328007
    19  H    0.000000   0.000000   0.000000  -0.000713   0.000501   0.000793
    20  H    0.000000  -0.000000   0.000000  -0.000029   0.000030  -0.001925
    21  H   -0.000000  -0.000000   0.000000   0.000000   0.000001  -0.000057
    22  H   -0.000000   0.000000  -0.000000  -0.000000  -0.000002  -0.000099
    23  H    0.000000  -0.000000   0.000000   0.000024  -0.000000  -0.000024
    24  H    0.000000   0.000000   0.000000   0.000000  -0.000000   0.000004
    25  H    0.000000  -0.000000   0.000000   0.000018  -0.000001  -0.000071
    26  H    0.000000  -0.000000   0.000000   0.000006  -0.000002  -0.000065
    27  H    0.005491   0.000003   0.000013  -0.065252   0.002082   0.000056
               7          8          9         10         11         12
     1  O    0.000003  -0.000000  -0.000000  -0.000000  -0.000000  -0.000000
     2  N   -0.000094   0.000002  -0.000003   0.000000  -0.000000   0.000002
     3  O    0.000001  -0.000000   0.000000  -0.000000  -0.000000  -0.000000
     4  C    0.004109  -0.000167   0.000493  -0.000019  -0.000014  -0.000084
     5  C   -0.029813   0.001904   0.002020  -0.000072   0.000015  -0.000118
     6  N    0.197022  -0.051039  -0.055385   0.003305  -0.000154   0.003610
     7  C    4.997520   0.417576   0.340021  -0.049262  -0.007668  -0.064053
     8  H    0.417576   0.549657  -0.061235   0.001567  -0.000344  -0.002810
     9  C    0.340021  -0.061235   5.181869   0.317792  -0.053018  -0.006344
    10  C   -0.049262   0.001567   0.317792   5.126648   0.332808  -0.060021
    11  C   -0.007668  -0.000344  -0.053018   0.332808   5.123459   0.330897
    12  C   -0.064053  -0.002810  -0.006344  -0.060021   0.330897   5.136159
    13  C    0.334169  -0.040995  -0.049197  -0.001940  -0.047893   0.368107
    14  H   -0.040310  -0.000913   0.003868  -0.000390   0.003948  -0.040608
    15  N   -0.058562   0.004106  -0.013029   0.001496  -0.007700  -0.073988
    16  C   -0.002422   0.000022  -0.000914  -0.000023   0.000002   0.002538
    17  H    0.001455  -0.000018  -0.000063   0.000001   0.000000   0.000001
    18  H   -0.027861  -0.002439   0.000884  -0.000126   0.000012  -0.000134
    19  H   -0.034904   0.004130   0.385670  -0.032528  -0.002285   0.000642
    20  H   -0.041512  -0.001868   0.397267  -0.037428   0.004144  -0.000358
    21  H    0.004035  -0.000081  -0.035853   0.400207  -0.035868   0.004206
    22  H   -0.004168   0.003513  -0.045663   0.395956  -0.045609  -0.001242
    23  H    0.000422   0.000033  -0.002004  -0.040100   0.396724  -0.036684
    24  H   -0.000140  -0.000097   0.004392  -0.038470   0.400309  -0.037859
    25  H    0.004968  -0.000004  -0.000367   0.004097  -0.033960   0.395480
    26  H   -0.004442   0.001621   0.001028  -0.002394  -0.042290   0.394715
    27  H   -0.000399   0.000009  -0.000057   0.000005   0.000005  -0.000019
              13         14         15         16         17         18
     1  O   -0.000018  -0.000003   0.000216   0.003146   0.000116   0.000000
     2  N   -0.000024  -0.000052   0.001595  -0.026295  -0.003969  -0.000036
     3  O   -0.000002   0.000000  -0.000012   0.001970   0.011548   0.000009
     4  C   -0.011058   0.002924  -0.060417   0.319116  -0.027761   0.000721
     5  C    0.000471   0.005354  -0.004256  -0.041340   0.377648  -0.023745
     6  N   -0.043437  -0.005640   0.002159  -0.001669  -0.033750   0.328007
     7  C    0.334169  -0.040310  -0.058562  -0.002422   0.001455  -0.027861
     8  H   -0.040995  -0.000913   0.004106   0.000022  -0.000018  -0.002439
     9  C   -0.049197   0.003868  -0.013029  -0.000914  -0.000063   0.000884
    10  C   -0.001940  -0.000390   0.001496  -0.000023   0.000001  -0.000126
    11  C   -0.047893   0.003948  -0.007700   0.000002   0.000000   0.000012
    12  C    0.368107  -0.040608  -0.073988   0.002538   0.000001  -0.000134
    13  C    5.026861   0.401519   0.239482  -0.070058  -0.000040   0.003600
    14  H    0.401519   0.520915  -0.036085  -0.004752   0.000071   0.000014
    15  N    0.239482  -0.036085   6.936121   0.585963  -0.000065  -0.000116
    16  C   -0.070058  -0.004752   0.585963   4.703928   0.001629  -0.000213
    17  H   -0.000040   0.000071  -0.000065   0.001629   0.386588  -0.001768
    18  H    0.003600   0.000014  -0.000116  -0.000213  -0.001768   0.322316
    19  H   -0.006373   0.000065   0.007033   0.002518   0.000010  -0.000130
    20  H    0.003847  -0.000049   0.000078  -0.000029  -0.000001   0.002981
    21  H   -0.000368   0.000009  -0.000028   0.000002  -0.000000  -0.000000
    22  H    0.000320  -0.000044   0.000002  -0.000001   0.000000   0.000002
    23  H   -0.005819   0.000007   0.006705   0.000060   0.000000   0.000000
    24  H    0.004139  -0.000058   0.000044   0.000005   0.000000  -0.000000
    25  H   -0.034547  -0.002651   0.000708  -0.000060  -0.000000   0.000002
    26  H   -0.044762  -0.000925   0.004181  -0.000058   0.000000  -0.000001
    27  H    0.004851  -0.000176  -0.039437   0.401857  -0.000060   0.000002
              19         20         21         22         23         24
     1  O    0.000000   0.000000  -0.000000  -0.000000   0.000000   0.000000
     2  N    0.000000  -0.000000  -0.000000   0.000000  -0.000000   0.000000
     3  O    0.000000   0.000000   0.000000  -0.000000   0.000000   0.000000
     4  C   -0.000713  -0.000029   0.000000  -0.000000   0.000024   0.000000
     5  C    0.000501   0.000030   0.000001  -0.000002  -0.000000  -0.000000
     6  N    0.000793  -0.001925  -0.000057  -0.000099  -0.000024   0.000004
     7  C   -0.034904  -0.041512   0.004035  -0.004168   0.000422  -0.000140
     8  H    0.004130  -0.001868  -0.000081   0.003513   0.000033  -0.000097
     9  C    0.385670   0.397267  -0.035853  -0.045663  -0.002004   0.004392
    10  C   -0.032528  -0.037428   0.400207   0.395956  -0.040100  -0.038470
    11  C   -0.002285   0.004144  -0.035868  -0.045609   0.396724   0.400309
    12  C    0.000642  -0.000358   0.004206  -0.001242  -0.036684  -0.037859
    13  C   -0.006373   0.003847  -0.000368   0.000320  -0.005819   0.004139
    14  H    0.000065  -0.000049   0.000009  -0.000044   0.000007  -0.000058
    15  N    0.007033   0.000078  -0.000028   0.000002   0.006705   0.000044
    16  C    0.002518  -0.000029   0.000002  -0.000001   0.000060   0.000005
    17  H    0.000010  -0.000001  -0.000000   0.000000   0.000000   0.000000
    18  H   -0.000130   0.002981  -0.000000   0.000002   0.000000  -0.000000
    19  H    0.506859  -0.024059  -0.002590   0.003756   0.001640  -0.000069
    20  H   -0.024059   0.550483  -0.002600  -0.002973  -0.000050  -0.000090
    21  H   -0.002590  -0.002600   0.526148  -0.024703  -0.002814  -0.002052
    22  H    0.003756  -0.002973  -0.024703   0.568690   0.004062  -0.003596
    23  H    0.001640  -0.000050  -0.002814   0.004062   0.509879  -0.025008
    24  H   -0.000069  -0.000090  -0.002052  -0.003596  -0.025008   0.541024
    25  H   -0.000027   0.000011  -0.000086  -0.000082  -0.002101  -0.002376
    26  H    0.000023  -0.000035  -0.000074   0.002465   0.003824  -0.002776
    27  H    0.000073  -0.000000  -0.000000   0.000000  -0.000021  -0.000000
              25         26         27
     1  O    0.000000   0.000000   0.005491
     2  N   -0.000000  -0.000000   0.000003
     3  O    0.000000   0.000000   0.000013
     4  C    0.000018   0.000006  -0.065252
     5  C   -0.000001  -0.000002   0.002082
     6  N   -0.000071  -0.000065   0.000056
     7  C    0.004968  -0.004442  -0.000399
     8  H   -0.000004   0.001621   0.000009
     9  C   -0.000367   0.001028  -0.000057
    10  C    0.004097  -0.002394   0.000005
    11  C   -0.033960  -0.042290   0.000005
    12  C    0.395480   0.394715  -0.000019
    13  C   -0.034547  -0.044762   0.004851
    14  H   -0.002651  -0.000925  -0.000176
    15  N    0.000708   0.004181  -0.039437
    16  C   -0.000060  -0.000058   0.401857
    17  H   -0.000000   0.000000  -0.000060
    18  H    0.000002  -0.000001   0.000002
    19  H   -0.000027   0.000023   0.000073
    20  H    0.000011  -0.000035  -0.000000
    21  H   -0.000086  -0.000074  -0.000000
    22  H   -0.000082   0.002465   0.000000
    23  H   -0.002101   0.003824  -0.000021
    24  H   -0.002376  -0.002776  -0.000000
    25  H    0.510854  -0.023122  -0.000010
    26  H   -0.023122   0.560676   0.000001
    27  H   -0.000010   0.000001   0.449158
 Mulliken charges:
               1
     1  O   -0.456124
     2  N    0.504076
     3  O   -0.484422
     4  C   -0.018473
     5  C    0.196675
     6  N   -0.799119
     7  C    0.064311
     8  H    0.177870
     9  C   -0.312173
    10  C   -0.321109
    11  C   -0.315519
    12  C   -0.312033
    13  C   -0.030834
    14  H    0.193962
    15  N   -0.496198
    16  C    0.125078
    17  H    0.288429
    18  H    0.398016
    19  H    0.189964
    20  H    0.154164
    21  H    0.172566
    22  H    0.149417
    23  H    0.191245
    24  H    0.162674
    25  H    0.183327
    26  H    0.152407
    27  H    0.241827
 Sum of Mulliken charges =  -0.00000
 Mulliken charges with hydrogens summed into heavy atoms:
               1
     1  O   -0.456124
     2  N    0.504076
     3  O   -0.484422
     4  C   -0.018473
     5  C    0.485104
     6  N   -0.401102
     7  C    0.242181
     9  C    0.031954
    10  C    0.000873
    11  C    0.038400
    12  C    0.023700
    13  C    0.163127
    15  N   -0.496198
    16  C    0.366905
 Electronic spatial extent (au):  <R**2>=           3129.0942
 Charge=             -0.0000 electrons
 Dipole moment (field-independent basis, Debye):
    X=              5.3086    Y=              4.4160    Z=              0.6081  Tot=              6.9319
 Quadrupole moment (field-independent basis, Debye-Ang):
   XX=           -105.4650   YY=            -80.3975   ZZ=            -82.1939
   XY=             -1.8053   XZ=              0.3549   YZ=             -0.1535
 Traceless Quadrupole moment (field-independent basis, Debye-Ang):
   XX=            -16.1129   YY=              8.9547   ZZ=              7.1582
   XY=             -1.8053   XZ=              0.3549   YZ=             -0.1535
 Octapole moment (field-independent basis, Debye-Ang**2):
  XXX=            101.6197  YYY=             35.7386  ZZZ=             -4.8952  XYY=             -1.5338
  XXY=             11.2764  XXZ=              1.3269  XZZ=             -8.3703  YZZ=             -2.6689
  YYZ=              0.8096  XYZ=             -1.1685
 Hexadecapole moment (field-independent basis, Debye-Ang**3):
 XXXX=          -3567.0272 YYYY=           -616.7098 ZZZZ=           -302.1367 XXXY=            -39.1672
 XXXZ=             17.6873 YYYX=            -18.7944 YYYZ=              6.9738 ZZZX=             18.6761
 ZZZY=              6.6177 XXYY=           -656.8989 XXZZ=           -545.3922 YYZZ=           -164.1034
 XXYZ=             -0.6730 YYXZ=              7.1269 ZZXY=              1.5987
 N-N= 9.173526688970D+02 E-N=-3.380711988095D+03  KE= 6.588531139860D+02
 Calling FoFJK, ICntrl=  10002127 FMM=F ISym2X=0 I1Cent= 0 IOpClX= 0 NMat=1 NMatS=1 NMatT=0.
 -------------------------------------------------------------------
 Center     Atomic                   Forces (Hartrees/Bohr)
 Number     Number              X              Y              Z
 -------------------------------------------------------------------
      1        8           0.002039091   -0.019051674   -0.004839704
      2        7           0.039167992    0.012270540    0.004489961
      3        8          -0.004957958    0.015685340    0.003477623
      4        6          -0.002476317    0.008662396    0.008119365
      5        6           0.002184001   -0.015435963   -0.011175168
      6        7           0.015641061   -0.011994435   -0.003638532
      7        6          -0.004505365    0.005614152    0.003032794
      8        1          -0.009603005   -0.001950346   -0.007606205
      9        6          -0.004114310   -0.000102309   -0.002078601
     10        6           0.002895723   -0.000780592    0.001011565
     11        6          -0.001191262   -0.004625216   -0.002440049
     12        6           0.000946779   -0.008697952   -0.002693741
     13        6           0.009497627   -0.002008383    0.004673628
     14        1           0.000625708    0.004575822   -0.009784387
     15        7          -0.000373857    0.002153468    0.000963215
     16        6          -0.021384603    0.007510324    0.003081799
     17        1           0.006665588   -0.005395217   -0.008310646
     18        1          -0.017382908   -0.001488796    0.008426621
     19        1           0.003128544    0.005976710    0.007657001
     20        1          -0.003238113   -0.007282268    0.002637314
     21        1          -0.004373565    0.002443531    0.009606405
     22        1          -0.003978270   -0.004043821   -0.007396433
     23        1           0.004011512    0.006185673    0.009241566
     24        1          -0.009389850    0.002601356   -0.002136927
     25        1          -0.000769660    0.010559059   -0.002451812
     26        1          -0.004794999   -0.004865922   -0.004357378
     27        1           0.005730417    0.003484522    0.002490725
 -------------------------------------------------------------------
 Cartesian Forces:  Max     0.039167992 RMS     0.008452294

 GradGradGradGradGradGradGradGradGradGradGradGradGradGradGradGradGradGrad
 Berny optimization.
 FormGI is forming the generalized inverse of G from B-inverse, IUseBI=4.
 Internal  Forces:  Max     0.037316765 RMS     0.006868137
 Search for a local minimum.
 Step number   1 out of a maximum of   20
 All quantities printed in internal units (Hartrees-Bohrs-Radians)
 Mixed Optimization -- RFO/linear search
 Second derivative matrix not updated -- first step.
 ITU=  0
     Eigenvalues ---    0.00230   0.00769   0.01098   0.01177   0.01353
     Eigenvalues ---    0.01493   0.01546   0.01722   0.01996   0.02083
     Eigenvalues ---    0.02683   0.03643   0.04503   0.04687   0.04837
     Eigenvalues ---    0.05078   0.05137   0.05302   0.05896   0.06265
     Eigenvalues ---    0.07196   0.07702   0.07729   0.07878   0.07993
     Eigenvalues ---    0.08051   0.08066   0.10460   0.11739   0.12256
     Eigenvalues ---    0.13329   0.15258   0.15692   0.15999   0.16000
     Eigenvalues ---    0.20104   0.21800   0.23148   0.24895   0.25000
     Eigenvalues ---    0.25000   0.25350   0.26177   0.26653   0.27980
     Eigenvalues ---    0.28086   0.28439   0.29629   0.31449   0.31457
     Eigenvalues ---    0.32047   0.32236   0.32289   0.32381   0.32387
     Eigenvalues ---    0.32406   0.32513   0.32525   0.32578   0.33246
     Eigenvalues ---    0.33385   0.33600   0.35295   0.43878   0.44206
     Eigenvalues ---    0.49016   0.66640   0.90422   0.911801000.00000
     Eigenvalues --- 1000.000001000.000001000.000001000.000001000.00000
     Eigenvalues --- 1000.000001000.000001000.000001000.000001000.00000
     Eigenvalues --- 1000.000001000.000001000.000001000.000001000.00000
     Eigenvalues --- 1000.000001000.000001000.000001000.000001000.00000
     Eigenvalues --- 1000.000001000.000001000.000001000.000001000.00000
     Eigenvalues --- 1000.000001000.000001000.000001000.000001000.00000
     Eigenvalues --- 1000.000001000.000001000.000001000.000001000.00000
     Eigenvalues --- 1000.000001000.000001000.000001000.000001000.00000
     Eigenvalues --- 1000.000001000.000001000.000001000.000001000.00000
     Eigenvalues --- 1000.000001000.000001000.000001000.000001000.00000
     Eigenvalues --- 1000.000001000.000001000.000001000.000001000.00000
     Eigenvalues --- 1000.000001000.000001000.000001000.000001000.00000
     Eigenvalues --- 1000.000001000.000001000.000001000.000001000.00000
     Eigenvalues --- 1000.000001000.000001000.000001000.000001000.00000
     Eigenvalues --- 1000.000001000.000001000.000001000.000001000.00000
     Eigenvalues --- 1000.000001000.000001000.000001000.000001000.00000
     Eigenvalues --- 1000.000001000.000001000.000001000.000001000.00000
     Eigenvalues --- 1000.000001000.000001000.000001000.000001000.00000
     Eigenvalues --- 1000.00000
 RFO step:  Lambda=-2.42149390D-02 EMin= 2.30092004D-03
 Linear search not attempted -- first point.
 Iteration  1 RMS(Cart)=  0.05525623 RMS(Int)=  0.00112887
 Iteration  2 RMS(Cart)=  0.00123533 RMS(Int)=  0.00023970
 Iteration  3 RMS(Cart)=  0.00000138 RMS(Int)=  0.00023970
 Iteration  4 RMS(Cart)=  0.00000000 RMS(Int)=  0.00023970
 Iteration  1 RMS(Cart)=  0.00003023 RMS(Int)=  0.00002704
 Iteration  2 RMS(Cart)=  0.00001409 RMS(Int)=  0.00003006
 Iteration  3 RMS(Cart)=  0.00000718 RMS(Int)=  0.00003314
 Iteration  4 RMS(Cart)=  0.00000406 RMS(Int)=  0.00003494
 Iteration  5 RMS(Cart)=  0.00000256 RMS(Int)=  0.00003598
 Iteration  6 RMS(Cart)=  0.00000180 RMS(Int)=  0.00003662
 Iteration  7 RMS(Cart)=  0.00000140 RMS(Int)=  0.00003705
 Iteration  8 RMS(Cart)=  0.00000116 RMS(Int)=  0.00003737
 Iteration  9 RMS(Cart)=  0.00000100 RMS(Int)=  0.00003762
 Variable       Old X    -DE/DX   Delta X   Delta X   Delta X     New X
                                 (Linear)    (Quad)   (Total)
    R1        2.32394   0.01813   0.00000   0.01937   0.01937   2.34331
    R2        2.32739   0.01560   0.00000   0.01680   0.01680   2.34419
    R3        2.88708  -0.03732   0.00000  -0.11643  -0.11643   2.77065
    R4        2.64541  -0.03476   0.00000  -0.07506  -0.07484   2.57057
    R5        2.81138  -0.02238   0.00000  -0.06425  -0.06406   2.74732
    R6        2.59088  -0.02344   0.00000  -0.04543  -0.04533   2.54556
    R7        2.08381  -0.01035   0.00000  -0.02890  -0.02890   2.05490
    R8        2.82479  -0.01960   0.00000  -0.05410  -0.05415   2.77064
    R9        1.93301  -0.00691   0.00000  -0.01493  -0.01493   1.91808
   R10        2.11849  -0.01165   0.00000  -0.03438  -0.03438   2.08411
   R11        2.92711  -0.01309   0.00000  -0.04469  -0.04473   2.88238
   R12        2.90319  -0.00513   0.00000  -0.01051  -0.01051   2.89268
   R13        2.91127  -0.00473   0.00000  -0.01429  -0.01431   2.89696
   R14        2.09915  -0.00999   0.00000  -0.02860  -0.02860   2.07055
   R15        2.09894  -0.00797   0.00000  -0.02282  -0.02282   2.07612
   R16        2.90428  -0.00186   0.00000  -0.00711  -0.00714   2.89714
   R17        2.10141  -0.01058   0.00000  -0.03040  -0.03040   2.07101
   R18        2.10319  -0.00903   0.00000  -0.02601  -0.02601   2.07718
   R19        2.91784  -0.00908   0.00000  -0.02857  -0.02853   2.88931
   R20        2.10414  -0.01167   0.00000  -0.03368  -0.03368   2.07046
   R21        2.10108  -0.00995   0.00000  -0.02857  -0.02857   2.07250
   R22        2.93540  -0.01044   0.00000  -0.03629  -0.03628   2.89912
   R23        2.10153  -0.01071   0.00000  -0.03077  -0.03077   2.07076
   R24        2.09799  -0.00789   0.00000  -0.02255  -0.02255   2.07544
   R25        2.10758  -0.00896   0.00000  -0.02601  -0.02601   2.08157
   R26        2.76831  -0.00506   0.00000  -0.01091  -0.01125   2.75706
   R27        2.44363  -0.00568   0.00000  -0.00793  -0.00803   2.43560
   R28        2.08011  -0.00640   0.00000  -0.01776  -0.01776   2.06235
    A1        2.15834   0.01089   0.00000   0.03973   0.03973   2.19807
    A2        2.05374  -0.00721   0.00000  -0.02631  -0.02631   2.02743
    A3        2.07109  -0.00368   0.00000  -0.01343  -0.01343   2.05766
    A4        2.03289  -0.00741   0.00000  -0.02517  -0.02548   2.00741
    A5        2.03471  -0.00286   0.00000  -0.00908  -0.00950   2.02521
    A6        2.21334   0.01023   0.00000   0.03172   0.03171   2.24505
    A7        2.19813   0.00630   0.00000   0.02060   0.02081   2.21894
    A8        2.06541  -0.00352   0.00000  -0.01226  -0.01243   2.05298
    A9        2.01963  -0.00278   0.00000  -0.00824  -0.00840   2.01122
   A10        2.24823  -0.00527   0.00000  -0.01746  -0.01764   2.23059
   A11        2.12110  -0.01259   0.00000  -0.07201  -0.07231   2.04879
   A12        1.88071   0.01801   0.00000   0.09633   0.09654   1.97725
   A13        1.83771  -0.00106   0.00000  -0.01562  -0.01542   1.82228
   A14        2.00721  -0.00156   0.00000  -0.01193  -0.01185   1.99537
   A15        1.96621   0.00094   0.00000   0.00156   0.00096   1.96717
   A16        1.85157   0.00263   0.00000   0.02362   0.02345   1.87502
   A17        1.84904   0.00058   0.00000   0.01518   0.01505   1.86409
   A18        1.93799  -0.00119   0.00000  -0.00885  -0.00851   1.92948
   A19        1.91030   0.00010   0.00000  -0.00473  -0.00489   1.90541
   A20        1.92255  -0.00075   0.00000  -0.01251  -0.01247   1.91008
   A21        1.92294  -0.00159   0.00000  -0.00724  -0.00722   1.91572
   A22        1.91915  -0.00036   0.00000   0.00601   0.00597   1.92512
   A23        1.90426   0.00303   0.00000   0.02391   0.02394   1.92820
   A24        1.88443  -0.00040   0.00000  -0.00503  -0.00528   1.87915
   A25        1.94036  -0.00089   0.00000   0.00547   0.00534   1.94570
   A26        1.91900  -0.00069   0.00000  -0.00667  -0.00668   1.91232
   A27        1.90500   0.00032   0.00000  -0.00290  -0.00295   1.90204
   A28        1.91613   0.00085   0.00000   0.00711   0.00716   1.92329
   A29        1.89850   0.00165   0.00000   0.01094   0.01098   1.90947
   A30        1.88381  -0.00123   0.00000  -0.01443  -0.01451   1.86930
   A31        1.94479   0.00046   0.00000   0.00475   0.00489   1.94969
   A32        1.90227   0.00074   0.00000   0.00586   0.00580   1.90807
   A33        1.91756   0.00037   0.00000   0.00536   0.00533   1.92289
   A34        1.90628  -0.00104   0.00000  -0.01366  -0.01371   1.89257
   A35        1.91543  -0.00045   0.00000  -0.00002  -0.00011   1.91532
   A36        1.87612  -0.00010   0.00000  -0.00265  -0.00267   1.87345
   A37        1.94895  -0.00284   0.00000  -0.01787  -0.01790   1.93105
   A38        1.90580   0.00258   0.00000   0.01707   0.01693   1.92273
   A39        1.91027   0.00128   0.00000   0.01292   0.01289   1.92316
   A40        1.90604   0.00008   0.00000  -0.00274  -0.00258   1.90346
   A41        1.91097  -0.00017   0.00000  -0.00490  -0.00486   1.90612
   A42        1.88052  -0.00086   0.00000  -0.00399  -0.00417   1.87635
   A43        1.84649   0.00431   0.00000   0.02358   0.02361   1.87010
   A44        1.94041  -0.00433   0.00000  -0.03239  -0.03278   1.90763
   A45        1.98077   0.00114   0.00000   0.01204   0.01217   1.99294
   A46        1.87934   0.00232   0.00000   0.03074   0.03106   1.91040
   A47        1.89204  -0.00361   0.00000  -0.02790  -0.02792   1.86412
   A48        1.92007   0.00040   0.00000  -0.00369  -0.00354   1.91653
   A49        2.08047  -0.00591   0.00000  -0.01358  -0.01387   2.06660
   A50        2.24946  -0.00513   0.00000  -0.02148  -0.02142   2.22804
   A51        1.98100   0.00559   0.00000   0.02726   0.02694   2.00794
   A52        2.05265  -0.00045   0.00000  -0.00538  -0.00569   2.04696
    D1       -3.06446  -0.00123   0.00000  -0.03649  -0.03582  -3.10029
    D2        0.14413  -0.00106   0.00000   0.00000   0.00000   0.14413
    D3        0.08218  -0.00050   0.00000  -0.03411  -0.03378   0.04841
    D4       -2.99241  -0.00034   0.00000   0.00238   0.00204  -2.99036
    D5       -3.09739  -0.00193   0.00000   0.00000  -0.00000  -3.09740
    D6        0.05134  -0.00182   0.00000  -0.01734  -0.01743   0.03391
    D7       -0.03066  -0.00280   0.00000  -0.04291  -0.04348  -0.07414
    D8        3.11808  -0.00269   0.00000  -0.06025  -0.06091   3.05717
    D9       -2.73454  -0.00070   0.00000  -0.03831  -0.03923  -2.77378
   D10        0.39381   0.00112   0.00000  -0.00118  -0.00164   0.39216
   D11        0.48198   0.00034   0.00000   0.00524   0.00519   0.48717
   D12       -2.67286   0.00216   0.00000   0.04237   0.04278  -2.63008
   D13       -0.24347   0.00161   0.00000   0.04445   0.04447  -0.19900
   D14        2.58940   0.00517   0.00000   0.09058   0.08952   2.67892
   D15        2.89114   0.00151   0.00000   0.06137   0.06153   2.95267
   D16       -0.55917   0.00506   0.00000   0.10750   0.10657  -0.45260
   D17       -2.41647  -0.00109   0.00000  -0.02652  -0.02604  -2.44251
   D18        1.83529  -0.00279   0.00000  -0.03885  -0.03842   1.79687
   D19       -0.40927  -0.00055   0.00000  -0.01684  -0.01672  -0.42599
   D20        1.00053  -0.00043   0.00000  -0.04620  -0.04675   0.95377
   D21       -1.03090  -0.00212   0.00000  -0.05852  -0.05913  -1.09003
   D22        3.00773   0.00011   0.00000  -0.03652  -0.03743   2.97029
   D23        2.94500   0.00251   0.00000   0.02457   0.02455   2.96955
   D24       -1.22609   0.00166   0.00000   0.02107   0.02105  -1.20504
   D25        0.85106  -0.00030   0.00000   0.00255   0.00261   0.85367
   D26        0.92151   0.00294   0.00000   0.03478   0.03478   0.95629
   D27        3.03360   0.00208   0.00000   0.03128   0.03128   3.06488
   D28       -1.17244   0.00013   0.00000   0.01276   0.01284  -1.15960
   D29       -1.07965   0.00138   0.00000   0.00812   0.00807  -1.07158
   D30        1.03244   0.00052   0.00000   0.00462   0.00458   1.03701
   D31        3.10959  -0.00143   0.00000  -0.01390  -0.01387   3.09572
   D32       -2.90152  -0.00146   0.00000  -0.01211  -0.01184  -2.91337
   D33       -0.86615   0.00156   0.00000   0.02143   0.02129  -0.84485
   D34        1.30937  -0.00048   0.00000   0.00000   0.00001   1.30938
   D35       -0.90117  -0.00191   0.00000  -0.02105  -0.02093  -0.92210
   D36        1.13420   0.00111   0.00000   0.01249   0.01221   1.14641
   D37       -2.97346  -0.00093   0.00000  -0.00894  -0.00908  -2.98254
   D38        1.10157   0.00093   0.00000   0.01088   0.01099   1.11255
   D39        3.13694   0.00395   0.00000   0.04441   0.04412  -3.10212
   D40       -0.97072   0.00191   0.00000   0.02299   0.02284  -0.94788
   D41        0.95666   0.00054   0.00000   0.00000   0.00001   0.95667
   D42        3.08230   0.00055   0.00000   0.00809   0.00805   3.09035
   D43       -1.13761  -0.00116   0.00000  -0.01511  -0.01508  -1.15270
   D44       -1.15750   0.00164   0.00000   0.01470   0.01478  -1.14272
   D45        0.96814   0.00164   0.00000   0.02279   0.02282   0.99096
   D46        3.03142  -0.00007   0.00000  -0.00042  -0.00032   3.03110
   D47        3.06201   0.00052   0.00000   0.00297   0.00293   3.06494
   D48       -1.09553   0.00052   0.00000   0.01106   0.01097  -1.08456
   D49        0.96774  -0.00118   0.00000  -0.01215  -0.01216   0.95558
   D50       -0.92192  -0.00084   0.00000   0.00000   0.00001  -0.92191
   D51        1.18304  -0.00136   0.00000  -0.01016  -0.01017   1.17286
   D52       -3.04865  -0.00084   0.00000  -0.00683  -0.00687  -3.05552
   D53       -3.04923   0.00005   0.00000  -0.00005  -0.00003  -3.04926
   D54       -0.94427  -0.00047   0.00000  -0.01022  -0.01021  -0.95448
   D55        1.10723   0.00006   0.00000  -0.00689  -0.00691   1.10032
   D56        1.17620   0.00008   0.00000   0.00686   0.00690   1.18310
   D57       -3.00203  -0.00044   0.00000  -0.00330  -0.00328  -3.00531
   D58       -0.95053   0.00008   0.00000   0.00003   0.00002  -0.95051
   D59        0.98723  -0.00066   0.00000  -0.01191  -0.01197   0.97526
   D60        3.09688  -0.00067   0.00000  -0.01539  -0.01554   3.08134
   D61       -1.13163   0.00054   0.00000  -0.00280  -0.00278  -1.13441
   D62       -1.11537  -0.00119   0.00000  -0.01322  -0.01322  -1.12859
   D63        0.99428  -0.00119   0.00000  -0.01670  -0.01679   0.97749
   D64        3.04895   0.00002   0.00000  -0.00411  -0.00403   3.04492
   D65        3.11519  -0.00019   0.00000  -0.00198  -0.00199   3.11321
   D66       -1.05834  -0.00020   0.00000  -0.00546  -0.00556  -1.06390
   D67        0.99633   0.00101   0.00000   0.00713   0.00720   1.00353
   D68       -1.05042  -0.00002   0.00000   0.00008   0.00020  -1.05022
   D69       -3.12667   0.00161   0.00000   0.01009   0.00974  -3.11694
   D70        1.07980   0.00182   0.00000   0.01266   0.01254   1.09234
   D71        3.12325  -0.00148   0.00000  -0.00798  -0.00779   3.11546
   D72        1.04700   0.00015   0.00000   0.00203   0.00175   1.04875
   D73       -1.02971   0.00037   0.00000   0.00460   0.00454  -1.02517
   D74        1.06804  -0.00039   0.00000   0.00128   0.00151   1.06955
   D75       -1.00821   0.00124   0.00000   0.01129   0.01105  -0.99717
   D76       -3.08493   0.00146   0.00000   0.01386   0.01385  -3.07108
   D77       -1.17216   0.00317   0.00000   0.00000   0.00001  -1.17215
   D78        3.06512  -0.00048   0.00000  -0.01811  -0.01793   3.04719
   D79        1.01429  -0.00140   0.00000  -0.03677  -0.03702   0.97727
   D80        0.10845   0.00259   0.00000   0.01713   0.01698   0.12543
   D81       -3.01944   0.00066   0.00000  -0.02149  -0.02154  -3.04099
         Item               Value     Threshold  Converged?
 Maximum Force            0.037317     0.000450     NO 
 RMS     Force            0.006973     0.000300     NO 
 Maximum Displacement     0.290755     0.001800     NO 
 RMS     Displacement     0.055618     0.001200     NO 
 Predicted change in Energy=-1.368888D-02
 GradGradGradGradGradGradGradGradGradGradGradGradGradGradGradGradGradGrad

                          Input orientation:                          
 ---------------------------------------------------------------------
 Center     Atomic      Atomic             Coordinates (Angstroms)
 Number     Number       Type             X           Y           Z
 ---------------------------------------------------------------------
      1          8           0       -3.490048   -1.410565   -0.289849
      2          7           0       -3.132567   -0.247273   -0.051892
      3          8           0       -3.884319    0.721435    0.135982
      4          6           0       -1.686123   -0.013071   -0.000921
      5          6           0       -1.320071    1.259305    0.311246
      6          7           0       -0.068207    1.752172    0.378076
      7          6           0        1.193637    1.005815    0.359866
      8          1           0        1.827596    1.520427    1.101200
      9          6           0        1.928326    1.046258   -0.976211
     10          6           0        3.329007    0.448986   -0.798824
     11          6           0        3.266397   -0.960920   -0.199955
     12          6           0        2.442320   -0.992417    1.087529
     13          6           0        1.033067   -0.438345    0.841311
     14          1           0        0.465513   -0.446405    1.785325
     15          7           0        0.394873   -1.323756   -0.126861
     16          6           0       -0.844849   -1.123396   -0.416894
     17          1           0       -2.111573    1.973695    0.524850
     18          1           0        0.051401    2.746684    0.214150
     19          1           0        1.362893    0.474854   -1.720735
     20          1           0        1.995031    2.083471   -1.332220
     21          1           0        3.843724    0.426692   -1.766103
     22          1           0        3.914617    1.101630   -0.135993
     23          1           0        2.804868   -1.642008   -0.923511
     24          1           0        4.278835   -1.332602   -0.000908
     25          1           0        2.362828   -2.019864    1.460096
     26          1           0        2.934272   -0.395419    1.867137
     27          1           0       -1.330444   -1.852394   -1.067893
 ---------------------------------------------------------------------
                    Distance matrix (angstroms):
                    1          2          3          4          5
     1  O    0.000000
     2  N    1.240026   0.000000
     3  O    2.209571   1.240493   0.000000
     4  C    2.300133   1.466167   2.321703   0.000000
     5  C    3.492609   2.384698   2.625907   1.360287   0.000000
     6  N    4.707231   3.684149   3.960270   2.424329   1.347052
     7  C    5.310171   4.522810   5.090838   3.075925   2.526925
     8  H    6.229210   5.390510   5.847735   3.989048   3.255767
     9  C    5.988810   5.304736   5.927000   3.890708   3.500717
    10  C    7.086359   6.541759   7.278747   5.099184   4.847969
    11  C    6.771987   6.440338   7.353633   5.046335   5.121174
    12  C    6.104507   5.738717   6.623375   4.380398   4.452915
    13  C    4.762699   4.264601   5.101301   2.878230   2.949617
    14  H    4.569728   4.044897   4.796376   2.829839   2.875876
    15  N    3.889307   3.688803   4.750092   2.462580   3.131322
    16  C    2.663772   2.476786   3.598257   1.453822   2.536392
    17  H    3.743947   2.511525   2.204995   2.098733   1.087407
    18  H    5.484395   4.378608   4.426922   3.268255   2.025503
    19  H    5.399377   4.849295   5.571484   3.534449   3.455808
    20  H    6.586418   5.776146   6.211080   4.440579   3.790795
    21  H    7.703184   7.215357   7.964135   5.821380   5.627913
    22  H    7.820732   7.175612   7.812933   5.712188   5.256124
    23  H    6.330960   6.161017   7.173117   4.865553   5.192048
    24  H    7.774645   7.490622   8.418723   6.109165   6.177635
    25  H    6.139195   5.968882   6.949450   4.749294   5.063255
    26  H    6.852372   6.364837   7.123023   4.998388   4.822691
    27  H    2.337617   2.618457   3.820495   2.155933   3.403645
                    6          7          8          9         10
     6  N    0.000000
     7  C    1.466161   0.000000
     8  H    2.042225   1.102862   0.000000
     9  C    2.513673   1.525289   2.133218   0.000000
    10  C    3.824193   2.492474   2.648077   1.533006   0.000000
    11  C    4.337577   2.911663   3.149641   2.534121   1.533101
    12  C    3.786666   2.466097   2.586979   2.946083   2.534203
    13  C    2.495146   1.530741   2.129696   2.511756   2.957826
    14  H    2.664385   2.161259   2.488318   3.463227   3.959690
    15  N    3.151308   2.510345   3.413240   2.947853   3.493321
    16  C    3.082862   3.048331   4.054179   3.565211   4.476531
    17  H    2.060572   3.447959   4.006829   4.408413   5.803168
    18  H    1.015004   2.087237   2.333544   2.798438   4.128951
    19  H    2.843342   2.153942   3.045076   1.095688   2.171680
    20  H    2.700337   2.160261   2.503315   1.098637   2.176130
    21  H    4.653773   3.446461   3.671847   2.162531   1.095929
    22  H    4.068213   2.767452   2.462051   2.157402   1.099194
    23  H    4.633480   3.354711   3.880143   2.828051   2.159288
    24  H    5.343804   3.888034   3.919566   3.483545   2.170922
    25  H    4.616162   3.425237   3.598464   3.940239   3.483021
    26  H    3.980494   2.695391   2.341337   3.342901   2.824214
    27  H    4.083744   4.071712   5.104322   4.362358   5.203771
                   11         12         13         14         15
    11  C    0.000000
    12  C    1.528958   0.000000
    13  C    2.518945   1.534149   0.000000
    14  H    3.471457   2.166290   1.101520   0.000000
    15  N    2.895280   2.403449   1.458973   2.105039   0.000000
    16  C    4.120171   3.617447   2.361979   2.650496   1.288865
    17  H    6.169268   5.463732   3.975782   3.753272   4.192873
    18  H    4.924836   4.523291   3.391372   3.582722   4.099115
    19  H    2.827993   3.347296   2.739852   3.734496   2.590848
    20  H    3.488081   3.939079   3.465424   4.296368   3.952542
    21  H    2.170620   3.481526   3.930227   4.978679   4.200685
    22  H    2.162959   2.837199   3.410274   4.240777   4.274480
    23  H    1.095638   2.144222   2.775369   3.773571   2.558126
    24  H    1.096722   2.161761   3.470452   4.303185   3.886014
    25  H    2.166464   1.095797   2.156934   2.486232   2.622184
    26  H    2.168633   1.098278   2.160727   2.470641   3.359522
    27  H    4.762247   4.429351   3.351235   3.652823   2.035121
                   16         17         18         19         20
    16  C    0.000000
    17  H    3.476124   0.000000
    18  H    4.022313   2.317866   0.000000
    19  H    3.021345   4.400124   3.259602   0.000000
    20  H    4.380266   4.508320   2.570760   1.771494   0.000000
    21  H    5.119165   6.565611   4.866773   2.481713   2.520087
    22  H    5.261384   6.124718   4.213459   3.068477   2.465721
    23  H    3.721028   6.272355   5.304382   2.682528   3.834328
    24  H    5.144799   7.214246   5.878608   3.837632   4.319457
    25  H    3.823080   6.069881   5.441972   4.164273   4.976912
    26  H    4.475322   5.733671   4.573415   4.012410   4.154871
    27  H    1.091348   4.217339   4.970377   3.618888   5.159426
                   21         22         23         24         25
    21  H    0.000000
    22  H    1.765737   0.000000
    23  H    2.463473   3.062560   0.000000
    24  H    2.529892   2.465033   1.766213   0.000000
    25  H    4.311270   3.833962   2.453519   2.505582   0.000000
    26  H    3.834502   2.686031   3.059158   2.485107   1.769478
    27  H    5.696819   6.091417   4.143177   5.733468   4.478731
                   26         27
    26  H    0.000000
    27  H    5.378195   0.000000
 Symmetry turned off by external request.
 Stoichiometry    C9H13N3O2
 Framework group  C1[X(C9H13N3O2)]
 Deg. of freedom    75
 Full point group                 C1      NOp   1
 Rotational constants (GHZ):           1.6900994           0.4204392           0.3719746
 Standard basis: 6-31G(d) (6D, 7F)
   236 basis functions,   444 primitive gaussians,   236 cartesian basis functions
    52 alpha electrons       52 beta electrons
       nuclear repulsion energy       931.9752014986 Hartrees.
 NAtoms=   27 NActive=   27 NUniq=   27 SFac= 1.00D+00 NAtFMM=   60 NAOKFM=F Big=F
 Integral buffers will be    131072 words long.
 Raffenetti 1 integral format.
 Two-electron integral symmetry is turned off.
 One-electron integrals computed using PRISM.
 NBasis=   236 RedAO= T EigKep=  1.02D-03  NBF=   236
 NBsUse=   236 1.00D-06 EigRej= -1.00D+00 NBFU=   236
 Initial guess from the checkpoint file:  "/home/alexey/tmp/Gau-1389066.chk"
 B after Tr=     0.055298    0.004946    0.000326
         Rot=    0.999999   -0.000393    0.000620    0.001076 Ang=  -0.15 deg.
 ExpMin= 1.61D-01 ExpMax= 5.48D+03 ExpMxC= 8.25D+02 IAcc=3 IRadAn=         5 AccDes= 0.00D+00
 Harris functional with IExCor=  205 and IRadAn=       5 diagonalized for initial guess.
 HarFok:  IExCor=  205 AccDes= 0.00D+00 IRadAn=         5 IDoV= 1 UseB2=F ITyADJ=14
 ICtDFT=  3500011 ScaDFX=  1.000000  1.000000  1.000000  1.000000
 FoFCou: FMM=F IPFlag=           0 FMFlag=      100000 FMFlg1=           0
         NFxFlg=           0 DoJE=T BraDBF=F KetDBF=T FulRan=T
         wScrn=  0.000000 ICntrl=       500 IOpCl=  0 I1Cent=   200000004 NGrid=           0
         NMat0=    1 NMatS0=      1 NMatT0=    0 NMatD0=    1 NMtDS0=    0 NMtDT0=    0
 Symmetry not used in FoFCou.
 Keep R1 ints in memory in canonical form, NReq=397720213.
 Requested convergence on RMS density matrix=1.00D-08 within 128 cycles.
 Requested convergence on MAX density matrix=1.00D-06.
 Requested convergence on             energy=1.00D-06.
 No special actions if energy rises.
 SCF Done:  E(RHF) =  -661.297128087     A.U. after   14 cycles
            NFock= 14  Conv=0.94D-08     -V/T= 2.0024
 ExpMin= 1.61D-01 ExpMax= 5.48D+03 ExpMxC= 8.25D+02 IAcc=3 IRadAn=         5 AccDes= 0.00D+00
 HarFok:  IExCor=  205 AccDes= 0.00D+00 IRadAn=         5 IDoV=-2 UseB2=F ITyADJ=14
 ICtDFT= 12500011 ScaDFX=  1.000000  1.000000  1.000000  1.000000
 Range of M.O.s used for correlation:    15   236
 NBasis=   236 NAE=    52 NBE=    52 NFC=    14 NFV=     0
 NROrb=    222 NOA=    38 NOB=    38 NVA=   184 NVB=   184
 Fully direct method using O(ONN) memory.
 JobTyp=1 Pass  1:  I=  15 to  52 NPSUse=  4 ParTrn=T ParDer=T DoDerP=T.
 Spin components of T(2) and E(2):
     alpha-alpha T2 =       0.9125470932D-01 E2=     -0.2723314195D+00
     alpha-beta  T2 =       0.4913906232D+00 E2=     -0.1488110782D+01
     beta-beta   T2 =       0.9125470932D-01 E2=     -0.2723314195D+00
 ANorm=    0.1293792890D+01
 E2 =    -0.2032773622D+01 EUMP2 =    -0.66332990170835D+03
          IDoAtm=111111111111111111111111111
          Differentiating once with respect to electric field.
                with respect to dipole field.
          Differentiating once with respect to nuclear coordinates.
 Keep R1 ints in memory in canonical form, NReq=397723379.
          There are     1 degrees of freedom in the 1st order CPHF.  IDoFFX=0 NUNeed=     1.
 LinEq1:  Iter=  0 NonCon=     1 RMS=4.57D-03 Max=1.03D-01 NDo=     1
 AX will form     1 AO Fock derivatives at one time.
 LinEq1:  Iter=  1 NonCon=     1 RMS=1.53D-03 Max=2.88D-02 NDo=     1
 LinEq1:  Iter=  2 NonCon=     1 RMS=6.42D-04 Max=1.72D-02 NDo=     1
 LinEq1:  Iter=  3 NonCon=     1 RMS=2.81D-04 Max=8.13D-03 NDo=     1
 LinEq1:  Iter=  4 NonCon=     1 RMS=8.73D-05 Max=1.95D-03 NDo=     1
 LinEq1:  Iter=  5 NonCon=     1 RMS=3.65D-05 Max=1.79D-03 NDo=     1
 LinEq1:  Iter=  6 NonCon=     1 RMS=1.42D-05 Max=5.37D-04 NDo=     1
 LinEq1:  Iter=  7 NonCon=     1 RMS=5.41D-06 Max=9.44D-05 NDo=     1
 LinEq1:  Iter=  8 NonCon=     1 RMS=2.16D-06 Max=5.10D-05 NDo=     1
[...]
    27  H    4.724048   4.418615   3.356664   3.656547   2.029356
                   16         17         18         19         20
    16  C    0.000000
    17  H    3.463924   0.000000
    18  H    4.088352   2.235846   0.000000
    19  H    2.990647   4.303344   3.511791   0.000000
    20  H    4.375168   4.449279   2.881932   1.768549   0.000000
    21  H    5.096557   6.511239   5.086446   2.499213   2.521017
    22  H    5.248749   6.100562   4.313230   3.070241   2.461458
    23  H    3.694971   6.235024   5.421170   2.704212   3.842929
    24  H    5.133829   7.200905   5.936680   3.849637   4.317122
    25  H    3.821464   6.088322   5.369739   4.171471   4.985073
    26  H    4.495273   5.781361   4.485370   4.036047   4.182389
    27  H    1.089666   4.215397   5.079444   3.583476   5.148111
                   21         22         23         24         25
    21  H    0.000000
    22  H    1.758872   0.000000
    23  H    2.469453   3.062296   0.000000
    24  H    2.517342   2.459902   1.764593   0.000000
    25  H    4.311994   3.839550   2.444047   2.519696   0.000000
    26  H    3.846758   2.704439   3.060428   2.491713   1.768001
    27  H    5.653070   6.060551   4.090442   5.694755   4.454283
                   26         27
    26  H    0.000000
    27  H    5.378508   0.000000
 Symmetry turned off by external request.
 Stoichiometry    C9H13N3O2
 Framework group  C1[X(C9H13N3O2)]
 Deg. of freedom    75
 Full point group                 C1      NOp   1
 Rotational constants (GHZ):           1.6800742           0.4193344           0.3721351

 **********************************************************************

            Population analysis using the SCF Density.

 **********************************************************************

 Alpha  occ. eigenvalues --  -20.59237 -20.58904 -15.84722 -15.64136 -15.56112
 Alpha  occ. eigenvalues --  -11.35017 -11.29622 -11.29560 -11.28628 -11.27135
 Alpha  occ. eigenvalues --  -11.23728 -11.23208 -11.22692 -11.22089  -1.57115
 Alpha  occ. eigenvalues --   -1.36708  -1.30978  -1.23065  -1.14703  -1.09819
 Alpha  occ. eigenvalues --   -1.02805  -1.01308  -0.94481  -0.89685  -0.85566
 Alpha  occ. eigenvalues --   -0.82448  -0.78609  -0.77411  -0.75202  -0.72019
 Alpha  occ. eigenvalues --   -0.69770  -0.69438  -0.67820  -0.64893  -0.63778
 Alpha  occ. eigenvalues --   -0.62368  -0.60282  -0.57701  -0.57001  -0.55077
 Alpha  occ. eigenvalues --   -0.54582  -0.50762  -0.50109  -0.48656  -0.48102
 Alpha  occ. eigenvalues --   -0.47371  -0.46146  -0.46044  -0.43677  -0.41696
 Alpha  occ. eigenvalues --   -0.39848  -0.33830
 Alpha virt. eigenvalues --    0.07465   0.11798   0.17307   0.21848   0.24113
 Alpha virt. eigenvalues --    0.25664   0.27134   0.28694   0.29044   0.29635
 Alpha virt. eigenvalues --    0.30683   0.31797   0.32036   0.32766   0.33950
 Alpha virt. eigenvalues --    0.34386   0.35850   0.37312   0.38581   0.40290
 Alpha virt. eigenvalues --    0.41385   0.42443   0.45025   0.46117   0.46730
 Alpha virt. eigenvalues --    0.47077   0.49001   0.53996   0.57579   0.59405
 Alpha virt. eigenvalues --    0.63911   0.69543   0.69908   0.72861   0.74242
 Alpha virt. eigenvalues --    0.74867   0.75781   0.76676   0.78660   0.79442
 Alpha virt. eigenvalues --    0.81385   0.84692   0.85717   0.85806   0.88530
 Alpha virt. eigenvalues --    0.89423   0.91051   0.92113   0.92853   0.94526
 Alpha virt. eigenvalues --    0.95643   0.98040   0.99638   1.01675   1.02471
 Alpha virt. eigenvalues --    1.03152   1.05873   1.06970   1.07902   1.09014
 Alpha virt. eigenvalues --    1.10283   1.11423   1.11854   1.12443   1.13915
 Alpha virt. eigenvalues --    1.14765   1.14990   1.15831   1.16902   1.18725
 Alpha virt. eigenvalues --    1.19136   1.21337   1.22576   1.23914   1.24537
 Alpha virt. eigenvalues --    1.24829   1.26039   1.26910   1.27485   1.29559
 Alpha virt. eigenvalues --    1.30007   1.33126   1.36069   1.37181   1.40860
 Alpha virt. eigenvalues --    1.41851   1.46488   1.48742   1.51698   1.54289
 Alpha virt. eigenvalues --    1.56375   1.58779   1.59556   1.63466   1.65628
 Alpha virt. eigenvalues --    1.68031   1.68628   1.72991   1.75224   1.77368
 Alpha virt. eigenvalues --    1.81578   1.84599   1.87681   1.90654   1.93494
 Alpha virt. eigenvalues --    1.95813   1.96956   1.99719   2.01569   2.02522
 Alpha virt. eigenvalues --    2.05104   2.05604   2.08498   2.09559   2.12394
 Alpha virt. eigenvalues --    2.13264   2.15296   2.18823   2.20013   2.22450
 Alpha virt. eigenvalues --    2.22636   2.24492   2.25492   2.28215   2.29549
 Alpha virt. eigenvalues --    2.31994   2.33724   2.34701   2.36399   2.38465
 Alpha virt. eigenvalues --    2.40483   2.41927   2.43867   2.45138   2.47362
 Alpha virt. eigenvalues --    2.50720   2.51948   2.53114   2.55571   2.61504
 Alpha virt. eigenvalues --    2.62309   2.65192   2.67626   2.70316   2.70495
 Alpha virt. eigenvalues --    2.72270   2.72650   2.76981   2.78441   2.83805
 Alpha virt. eigenvalues --    2.88565   2.88949   2.92943   2.93136   2.96056
 Alpha virt. eigenvalues --    2.99437   3.01343   3.04314   3.05722   3.07676
 Alpha virt. eigenvalues --    3.09415   3.15049   3.21210   3.25216   3.27459
 Alpha virt. eigenvalues --    3.33446   3.37782   3.38786   3.52158   3.65799
 Alpha virt. eigenvalues --    4.13671   4.28069   4.34716   4.38922   4.46295
 Alpha virt. eigenvalues --    4.56307   4.61873   4.62354   4.73465   4.79740
 Alpha virt. eigenvalues --    4.99414   5.00899   5.05022   5.11166
          Condensed to atoms (all electrons):
               1          2          3          4          5          6
     1  O    8.316078   0.306966  -0.082550  -0.085453   0.004638  -0.000016
     2  N    0.306966   5.722396   0.301228   0.264171  -0.053645   0.000970
     3  O   -0.082550   0.301228   8.353642  -0.092646   0.003629   0.000785
     4  C   -0.085453   0.264171  -0.092646   5.225593   0.560342  -0.047283
     5  C    0.004638  -0.053645   0.003629   0.560342   4.710011   0.317411
     6  N   -0.000016   0.000970   0.000785  -0.047283   0.317411   7.195608
     7  C    0.000004  -0.000140   0.000002   0.004631  -0.030204   0.169267
     8  H   -0.000000   0.000002  -0.000000  -0.000261   0.003096  -0.050671
     9  C   -0.000000  -0.000004  -0.000000   0.000855   0.000626  -0.061667
    10  C    0.000000   0.000000   0.000000  -0.000038  -0.000052   0.003749
    11  C   -0.000000  -0.000000  -0.000000  -0.000028   0.000025  -0.000190
    12  C   -0.000000   0.000002  -0.000000  -0.000127  -0.000176   0.003873
    13  C   -0.000025  -0.000039  -0.000004  -0.011556  -0.000584  -0.047697
    14  H   -0.000004  -0.000104   0.000001   0.002645   0.006076  -0.006958
    15  N    0.000382   0.002361  -0.000016  -0.063520  -0.006394   0.001596
    16  C    0.000852  -0.027265   0.002547   0.328479  -0.050325  -0.001857
    17  H    0.000220  -0.007234   0.017396  -0.023148   0.374512  -0.034181
    18  H    0.000001  -0.000050   0.000012   0.001506  -0.031447   0.338681
    19  H    0.000001  -0.000004   0.000000  -0.001226   0.001233  -0.000353
    20  H    0.000000  -0.000000   0.000000  -0.000079   0.000153  -0.000429
    21  H   -0.000000   0.000000   0.000000   0.000001   0.000001  -0.000077
    22  H   -0.000000   0.000000  -0.000000  -0.000000  -0.000003  -0.000117
    23  H    0.000000  -0.000000   0.000000   0.000041  -0.000000  -0.000031
    24  H    0.000000   0.000000   0.000000   0.000000  -0.000000   0.000006
    25  H    0.000000  -0.000000   0.000000   0.000024   0.000000  -0.000090
    26  H    0.000000  -0.000000   0.000000   0.000006  -0.000002  -0.000060
    27  H    0.006132  -0.000879   0.000018  -0.063398   0.002214   0.000017
               7          8          9         10         11         12
     1  O    0.000004  -0.000000  -0.000000   0.000000  -0.000000  -0.000000
     2  N   -0.000140   0.000002  -0.000004   0.000000  -0.000000   0.000002
     3  O    0.000002  -0.000000  -0.000000   0.000000  -0.000000  -0.000000
     4  C    0.004631  -0.000261   0.000855  -0.000038  -0.000028  -0.000127
     5  C   -0.030204   0.003096   0.000626  -0.000052   0.000025  -0.000176
     6  N    0.169267  -0.050671  -0.061667   0.003749  -0.000190   0.003873
     7  C    5.017569   0.418412   0.350535  -0.054677  -0.009029  -0.061069
     8  H    0.418412   0.538077  -0.055038   0.000776  -0.000325  -0.002230
     9  C    0.350535  -0.055038   5.158247   0.324773  -0.050413  -0.005342
    10  C   -0.054677   0.000776   0.324773   5.119315   0.337000  -0.060992
    11  C   -0.009029  -0.000325  -0.050413   0.337000   5.119931   0.335971
    12  C   -0.061069  -0.002230  -0.005342  -0.060992   0.335971   5.118633
    13  C    0.338600  -0.037935  -0.060246  -0.000284  -0.050692   0.371987
    14  H   -0.046592  -0.000745   0.004422  -0.000405   0.004195  -0.036321
    15  N   -0.057955   0.003900  -0.014620   0.001561  -0.013057  -0.082060
    16  C   -0.001776   0.000009  -0.001272  -0.000029   0.000029   0.002609
    17  H    0.001616  -0.000045  -0.000070   0.000001   0.000000   0.000000
    18  H   -0.021216  -0.004473   0.001328  -0.000083   0.000004  -0.000114
    19  H   -0.036858   0.004361   0.390224  -0.032069  -0.002212   0.000689
    20  H   -0.042412  -0.002077   0.399486  -0.035301   0.003931  -0.000415
    21  H    0.004599  -0.000076  -0.036358   0.402432  -0.034896   0.004349
    22  H   -0.004848   0.003559  -0.046956   0.397752  -0.045403  -0.001021
    23  H    0.000577   0.000035  -0.001958  -0.039019   0.399179  -0.037866
    24  H   -0.000130  -0.000102   0.004388  -0.038437   0.402341  -0.038691
    25  H    0.005152  -0.000025  -0.000423   0.004190  -0.033401   0.398273
    26  H   -0.003905   0.001685   0.000968  -0.002231  -0.041481   0.396729
    27  H   -0.000407   0.000009  -0.000058   0.000007   0.000012  -0.000036
              13         14         15         16         17         18
     1  O   -0.000025  -0.000004   0.000382   0.000852   0.000220   0.000001
     2  N   -0.000039  -0.000104   0.002361  -0.027265  -0.007234  -0.000050
     3  O   -0.000004   0.000001  -0.000016   0.002547   0.017396   0.000012
     4  C   -0.011556   0.002645  -0.063520   0.328479  -0.023148   0.001506
     5  C   -0.000584   0.006076  -0.006394  -0.050325   0.374512  -0.031447
     6  N   -0.047697  -0.006958   0.001596  -0.001857  -0.034181   0.338681
     7  C    0.338600  -0.046592  -0.057955  -0.001776   0.001616  -0.021216
     8  H   -0.037935  -0.000745   0.003900   0.000009  -0.000045  -0.004473
     9  C   -0.060246   0.004422  -0.014620  -0.001272  -0.000070   0.001328
    10  C   -0.000284  -0.000405   0.001561  -0.000029   0.000001  -0.000083
    11  C   -0.050692   0.004195  -0.013057   0.000029   0.000000   0.000004
    12  C    0.371987  -0.036321  -0.082060   0.002609   0.000000  -0.000114
    13  C    5.040247   0.403081   0.244783  -0.071082  -0.000009   0.002971
    14  H    0.403081   0.526767  -0.037365  -0.004541   0.000093  -0.000108
    15  N    0.244783  -0.037365   6.965118   0.585193  -0.000080  -0.000132
    16  C   -0.071082  -0.004541   0.585193   4.709940   0.002013  -0.000197
    17  H   -0.000009   0.000093  -0.000080   0.002013   0.376477  -0.002818
    18  H    0.002971  -0.000108  -0.000132  -0.000197  -0.002818   0.310601
    19  H   -0.007549   0.000106   0.007696   0.003003   0.000016  -0.000149
    20  H    0.004340  -0.000066   0.000126  -0.000036   0.000002   0.000807
    21  H   -0.000433   0.000010  -0.000041   0.000004  -0.000000   0.000001
    22  H    0.000045  -0.000055   0.000019  -0.000002   0.000000   0.000001
    23  H   -0.007523   0.000003   0.008590   0.000106   0.000000   0.000000
    24  H    0.004700  -0.000057   0.000135   0.000007   0.000000  -0.000000
    25  H   -0.035563  -0.002817   0.000409  -0.000022  -0.000000   0.000002
    26  H   -0.047408  -0.001046   0.004899  -0.000061   0.000000  -0.000000
    27  H    0.005059  -0.000174  -0.040317   0.403668  -0.000079   0.000001
              19         20         21         22         23         24
     1  O    0.000001   0.000000  -0.000000  -0.000000   0.000000   0.000000
     2  N   -0.000004  -0.000000   0.000000   0.000000  -0.000000   0.000000
     3  O    0.000000   0.000000   0.000000  -0.000000   0.000000   0.000000
     4  C   -0.001226  -0.000079   0.000001  -0.000000   0.000041   0.000000
     5  C    0.001233   0.000153   0.000001  -0.000003  -0.000000  -0.000000
     6  N   -0.000353  -0.000429  -0.000077  -0.000117  -0.000031   0.000006
     7  C   -0.036858  -0.042412   0.004599  -0.004848   0.000577  -0.000130
     8  H    0.004361  -0.002077  -0.000076   0.003559   0.000035  -0.000102
     9  C    0.390224   0.399486  -0.036358  -0.046956  -0.001958   0.004388
    10  C   -0.032069  -0.035301   0.402432   0.397752  -0.039019  -0.038437
    11  C   -0.002212   0.003931  -0.034896  -0.045403   0.399179   0.402341
    12  C    0.000689  -0.000415   0.004349  -0.001021  -0.037866  -0.038691
    13  C   -0.007549   0.004340  -0.000433   0.000045  -0.007523   0.004700
    14  H    0.000106  -0.000066   0.000010  -0.000055   0.000003  -0.000057
    15  N    0.007696   0.000126  -0.000041   0.000019   0.008590   0.000135
    16  C    0.003003  -0.000036   0.000004  -0.000002   0.000106   0.000007
    17  H    0.000016   0.000002  -0.000000   0.000000   0.000000   0.000000
    18  H   -0.000149   0.000807   0.000001   0.000001   0.000000  -0.000000
    19  H    0.504949  -0.024737  -0.002787   0.003959   0.001514  -0.000066
    20  H   -0.024737   0.541150  -0.002692  -0.002990  -0.000045  -0.000083
    21  H   -0.002787  -0.002692   0.524028  -0.027403  -0.002898  -0.002242
    22  H    0.003959  -0.002990  -0.027403   0.571323   0.004137  -0.003656
    23  H    0.001514  -0.000045  -0.002898   0.004137   0.498960  -0.025449
    24  H   -0.000066  -0.000083  -0.002242  -0.003656  -0.025449   0.538123
    25  H   -0.000029   0.000012  -0.000087  -0.000080  -0.002318  -0.002291
    26  H    0.000019  -0.000030  -0.000081   0.002380   0.004067  -0.003035
    27  H    0.000083   0.000000  -0.000000   0.000000  -0.000035  -0.000000
              25         26         27
     1  O    0.000000   0.000000   0.006132
     2  N   -0.000000  -0.000000  -0.000879
     3  O    0.000000   0.000000   0.000018
     4  C    0.000024   0.000006  -0.063398
     5  C    0.000000  -0.000002   0.002214
     6  N   -0.000090  -0.000060   0.000017
     7  C    0.005152  -0.003905  -0.000407
     8  H   -0.000025   0.001685   0.000009
     9  C   -0.000423   0.000968  -0.000058
    10  C    0.004190  -0.002231   0.000007
    11  C   -0.033401  -0.041481   0.000012
    12  C    0.398273   0.396729  -0.000036
    13  C   -0.035563  -0.047408   0.005059
    14  H   -0.002817  -0.001046  -0.000174
    15  N    0.000409   0.004899  -0.040317
    16  C   -0.000022  -0.000061   0.403668
    17  H   -0.000000   0.000000  -0.000079
    18  H    0.000002  -0.000000   0.000001
    19  H   -0.000029   0.000019   0.000083
    20  H    0.000012  -0.000030   0.000000
    21  H   -0.000087  -0.000081  -0.000000
    22  H   -0.000080   0.002380   0.000000
    23  H   -0.002318   0.004067  -0.000035
    24  H   -0.002291  -0.003035  -0.000000
    25  H    0.506114  -0.024079  -0.000013
    26  H   -0.024079   0.562315   0.000001
    27  H   -0.000013   0.000001   0.439272
 Mulliken charges:
               1
     1  O   -0.467228
     2  N    0.491269
     3  O   -0.504044
     4  C    0.000470
     5  C    0.188867
     6  N   -0.780288
     7  C    0.060255
     8  H    0.180080
     9  C   -0.301428
    10  C   -0.327939
    11  C   -0.321489
    12  C   -0.306655
    13  C   -0.037184
    14  H    0.189961
    15  N   -0.511210
    16  C    0.120009
    17  H    0.295316
    18  H    0.404872
    19  H    0.190186
    20  H    0.161385
    21  H    0.174645
    22  H    0.149359
    23  H    0.199937
    24  H    0.164540
    25  H    0.187061
    26  H    0.150349
    27  H    0.248904
 Sum of Mulliken charges =  -0.00000
 Mulliken charges with hydrogens summed into heavy atoms:
               1
     1  O   -0.467228
     2  N    0.491269
     3  O   -0.504044
     4  C    0.000470
     5  C    0.484183
     6  N   -0.375416
     7  C    0.240335
     9  C    0.050143
    10  C   -0.003935
    11  C    0.042988
    12  C    0.030756
    13  C    0.152776
    15  N   -0.511210
    16  C    0.368912
 Electronic spatial extent (au):  <R**2>=           3005.3826
 Charge=             -0.0000 electrons
 Dipole moment (field-independent basis, Debye):
    X=              5.4162    Y=              4.7971    Z=              1.2747  Tot=              7.3466
 Quadrupole moment (field-independent basis, Debye-Ang):
   XX=           -106.1421   YY=            -79.2221   ZZ=            -81.5042
   XY=             -1.7663   XZ=             -0.1201   YZ=              1.8559
 Traceless Quadrupole moment (field-independent basis, Debye-Ang):
   XX=            -17.1860   YY=              9.7340   ZZ=              7.4519
   XY=             -1.7663   XZ=             -0.1201   YZ=              1.8559
 Octapole moment (field-independent basis, Debye-Ang**2):
  XXX=             92.4086  YYY=             36.3103  ZZZ=             -1.5633  XYY=             -4.5762
  XXY=              9.5472  XXZ=              4.8414  XZZ=             -9.7639  YZZ=             -0.4044
  YYZ=              7.9315  XYZ=              0.2437
 Hexadecapole moment (field-independent basis, Debye-Ang**3):
 XXXX=          -3382.1650 YYYY=           -600.9533 ZZZZ=           -303.8454 XXXY=            -21.0045
 XXXZ=            -12.7946 YYYX=             -9.0064 YYYZ=             25.1466 ZZZX=              2.2946
 ZZZY=              7.2423 XXYY=           -627.7873 XXZZ=           -523.7930 YYZZ=           -157.3531
 XXYZ=             -4.1768 YYXZ=              1.8652 ZZXY=              4.6778
 N-N= 9.312320651510D+02 E-N=-3.409180332698D+03  KE= 6.596287226335D+02
 Unable to Open any file for archive entry.
 1\1\GINC-LOTUS\FOpt\RMP2-FC\6-31G(d)\C9H13N3O2\ALEXEY\01-Jul-2023\0\\#
 MP2/6-31G* SCF=Tight Opt=(ModRedun, MaxCycle=20 ) NoSymm\\MolName:\\0,
 1\O,-3.5070961489,-1.3909103785,-0.3680877896\N,-3.1211587341,-0.23260
 29472,-0.1167089793\O,-3.8953515371,0.7286169145,0.0567895346\C,-1.686
 6154684,-0.0240427089,-0.0086417978\C,-1.3013833068,1.2607308247,0.274
 8795192\N,-0.0571515579,1.7504568966,0.3850148652\C,1.2057147174,1.024
 3727804,0.3582549215\H,1.8536855632,1.5540708909,1.0729076716\C,1.9086
 335918,1.0341531508,-0.9978738965\C,3.3071200166,0.42776864,-0.8337694
 962\C,3.2595020642,-0.9677055664,-0.2057686174\C,2.4650442813,-0.97707
 51421,1.1020204298\C,1.0551869775,-0.4237311315,0.8655674566\H,0.47899
 37386,-0.4015347918,1.8041885667\N,0.4083812024,-1.3180836345,-0.08955
 01075\C,-0.8390866011,-1.1386654802,-0.384655581\H,-2.0961720502,1.987
 6955147,0.41807085\H,0.0017282709,2.7358600511,0.6131922341\H,1.314114
 8176,0.4559041335,-1.7132039642\H,1.9743803384,2.0617004548,-1.3767033
 612\H,3.810683689,0.3887349168,-1.8064767012\H,3.9071171058,1.09477054
 83,-0.198419899\H,2.7815786015,-1.665226499,-0.9007275844\H,4.27877521
 65,-1.3309615013,-0.0286846202\H,2.3798105739,-1.9986354212,1.48690474
 23\H,2.9752763299,-0.3784353996,1.8692668805\H,-1.3007116919,-1.894235
 1149,-1.0197852763\\Version=ES64L-G16RevC.02\HF=-661.300356\MP2=-663.3
 346494\RMSD=8.920e-09\RMSF=1.096e-05\Dipole=1.9793423,1.6922793,0.4688
 824\PG=C01 [X(C9H13N3O2)]\\@
 The archive entry for this job was punched.


 I CLAIM NOT TO HAVE CONTROLLED EVENTS,
 BUT CONFESS PLAINLY THAT EVENTS HAVE CONTROLLED ME.

                                         A. LINCOLN
 Job cpu time:       0 days  1 hours 10 minutes 25.4 seconds.
 Elapsed time:       0 days  0 hours 20 minutes 59.7 seconds.
 File lengths (MBytes):  RWF=     36 Int=      0 D2E=      0 Chk=      7 Scr=      1
 Normal termination of Gaussian 16 at Sat Jul  1 21:46:19 2023.
