 Entering Gaussian System, Link 0=g16
 Initial command:
 /home/alexey/programs//g16/l1.exe "/home/alexey/tmp/Gau-1392837.inp" -scrdir="/home/alexey/tmp/"
 Entering Link 1 = /home/alexey/programs//g16/l1.exe PID=   1392839.
  
 Copyright (c) 1988-2021, Gaussian, Inc.  All Rights Reserved.
  
 This is part of the Gaussian(R) 16 program.  It is based on
 the Gaussian(R) 09 system (copyright 2009, Gaussian, Inc.),
 the Gaussian(R) 03 system (copyright 2003, Gaussian, Inc.),
 the Gaussian(R) 98 system (copyright 1998, Gaussian, Inc.),
 the Gaussian(R) 94 system (copyright 1995, Gaussian, Inc.),
 the Gaussian 92(TM) system (copyright 1992, Gaussian, Inc.),
 the Gaussian 90(TM) system (copyright 1990, Gaussian, Inc.),
 the Gaussian 88(TM) system (copyright 1988, Gaussian, Inc.),
 the Gaussian 86(TM) system (copyright 1986, Carnegie Mellon
 University), and the Gaussian 82(TM) system (copyright 1983,
 Carnegie Mellon University). Gaussian is a federally registered
 trademark of Gaussian, Inc.
  
 This software contains proprietary and confidential information,
 including trade secrets, belonging to Gaussian, Inc.
  
 This software is provided under written license and may be
 used, copied, transmitted, or stored only in accord with that
 written license.
  
 The following legend is applicable only to US Government
 contracts under FAR:
  
                    RESTRICTED RIGHTS LEGEND
  
 Use, reproduction and disclosure by the US Government is
 subject to restrictions as set forth in subparagraphs (a)
 and (c) of the Commercial Computer Software - Restricted
 Rights clause in FAR 52.227-19.
  
 Gaussian, Inc.
 340 Quinnipiac St., Bldg. 40, Wallingford CT 06492
  
  
 ---------------------------------------------------------------
 Warning -- This program may not be used in any manner that
 competes with the business of Gaussian, Inc. or will provide
 assistance to any competitor of Gaussian, Inc.  The licensee
 of this program is prohibited from giving any competitor of
 Gaussian, Inc. access to this program.  By using this program,
 the user acknowledges that Gaussian, Inc. is engaged in the
 business of creating and licensing software in the field of
 computational chemistry and represents and warrants to the
 licensee that it is not a competitor of Gaussian, Inc. and that
 it will not use this program in any manner prohibited above.
 ---------------------------------------------------------------
  

 Cite this work as:
 Gaussian 16, Revision C.02,
 M. J. Frisch, G. W. Trucks, H. B. Schlegel, G. E. Scuseria, 
 M. A. Robb, J. R. Cheeseman, G. Scalmani, V. Barone, 
 G. A. Petersson, H. Nakatsuji, X. Li, M. Caricato, A. V. Marenich, 
 J. Bloino, B. G. Janesko, R. Gomperts, B. Mennucci, H. P. Hratchian, 
 J. V. Ortiz, A. F. Izmaylov, J. L. Sonnenberg, D. Williams-Young, 
 F. Ding, F. Lipparini, F. Egidi, J. Goings, B. Peng, A. Petrone, 
 T. Henderson, D. Ranasinghe, V. G. Zakrzewski, J. Gao, N. Rega, 
 G. Zheng, W. Liang, M. Hada, M. Ehara, K. Toyota, R. Fukuda, 
 J. Hasegawa, M. Ishida, T. Nakajima, Y. Honda, O. Kitao, H. Nakai, 
 T. Vreven, K. Throssell, J. A. Montgomery, Jr., J. E. Peralta, 
 F. Ogliaro, M. J. Bearpark, J. J. Heyd, E. N. Brothers, K. N. Kudin, 
 V. N. Staroverov, T. A. Keith, R. Kobayashi, J. Normand, 
 K. Raghavachari, A. P. Rendell, J. C. Burant, S. S. Iyengar, 
 J. Tomasi, M. Cossi, J. M. Millam, M. Klene, C. Adamo, R. Cammi, 
 J. W. Ochterski, R. L. Martin, K. Morokuma, O. Farkas, 
 J. B. Foresman, and D. J. Fox, Gaussian, Inc., Wallingford CT, 2019.
 
 ******************************************
 Gaussian 16:  ES64L-G16RevC.02  7-Dec-2021
                 1-Jul-2023 
 ******************************************
 %mem=8GB
 %NPROCS=4
 Will use up to    4 processors via shared memory.
 %NoSave
 ---------------------------------------------------------
 #MP2/6-31G* SCF=Tight Opt=(ModRedun, MaxCycle=20 ) NoSymm
 ---------------------------------------------------------
 1/6=20,18=120,19=15,38=1/1,3;
 2/9=110,12=2,15=1,17=6,18=5,40=1/2;
 3/5=1,6=6,7=1,11=9,25=1,30=1,71=1/1,2,3;
 4//1;
 5/5=2,32=2,38=5/2;
 8/6=4,10=2/1;
 9/15=2,16=-3/6;
 10/5=1,31=1/2;
 6/7=2,8=2,9=2,10=2/1;
 7/12=2,30=1/1,2,3,16;
 1/6=20,18=20,19=15/3(2);
 2/9=110,15=1/2;
 99//99;
 2/9=110,15=1/2;
 3/5=1,6=6,7=1,11=9,25=1,30=1,71=1/1,2,3;
 4/5=5,16=3,69=1/1;
 5/5=2,32=2,38=5/2;
 8/6=4,10=2/1;
 9/15=2,16=-3/6;
 10/5=1,31=1/2;
 7/12=2,30=1/1,2,3,16;
 1/6=20,18=20,19=15/3(-8);
 2/9=110,15=1/2;
 6/7=2,8=2,9=2,10=2/1;
 99/9=10/99;
 --------
 MolName:
 --------
 Symbolic Z-matrix:
 Charge =  0 Multiplicity = 1
 8                    0    -3.64018  -1.38302  -0.40186 
 7                    0    -3.26563  -0.25267  -0.09486 
 8                    0    -4.0339    0.68358   0.129 
 6                    0    -1.76189  -0.01237   0.0288 
 6                    0    -1.36586   1.2734    0.41667 
 7                    0    -0.08682   1.76358   0.35863 
 6                    0     1.19694   0.99799   0.34046 
 1                    0     1.85766   1.51108   1.08678 
 6                    0     1.9629    1.03247  -1.00507 
 6                    0     3.37619   0.4528   -0.80601 
 6                    0     3.31717  -0.95493  -0.19215 
 6                    0     2.46731  -0.9734    1.097 
 6                    0     1.02876  -0.44347   0.84615 
 1                    0     0.48542  -0.47113   1.8197 
 7                    0     0.37326  -1.32573  -0.12269 
 6                    0    -0.86951  -1.1184   -0.41763 
 1                    0    -2.13992   1.98325   0.75261 
 1                    0     0.11184   2.72967   0.08728 
 1                    0     1.41609   0.44325  -1.77179 
 1                    0     2.04702   2.07763  -1.37148 
 1                    0     3.91219   0.41676  -1.77966 
 1                    0     3.95065   1.1177   -0.12293 
 1                    0     2.8718   -1.65534  -0.93439 
 1                    0     4.34571  -1.31353   0.0307 
 1                    0     2.41133  -2.0149    1.48282 
 1                    0     2.96055  -0.35123   1.87308 
 1                    0    -1.36609  -1.85002  -1.07315 
 
 The following ModRedundant input section has been read:
 D       2       4       5       6 F                                           
 D       1       2       4      16 F                                           
 D       7      13      15      16 F                                           
 D       7       9      10      11 F                                           
 D       9      10      11      12 F                                           
 D       6       7      13      15 F                                           
 

 GradGradGradGradGradGradGradGradGradGradGradGradGradGradGradGradGradGrad
 Berny optimization.
 Initialization pass.
                           ----------------------------
                           !    Initial Parameters    !
                           ! (Angstroms and Degrees)  !
 --------------------------                            --------------------------
 ! Name  Definition              Value          Derivative Info.                !
 --------------------------------------------------------------------------------
 ! R1    R(1,2)                  1.2297         estimate D2E/DX2                !
 ! R2    R(2,3)                  1.2316         estimate D2E/DX2                !
 ! R3    R(2,4)                  1.5278         estimate D2E/DX2                !
 ! R4    R(4,5)                  1.4002         estimate D2E/DX2                !
 ! R5    R(4,16)                 1.4896         estimate D2E/DX2                !
 ! R6    R(5,6)                  1.371          estimate D2E/DX2                !
 ! R7    R(5,17)                 1.1027         estimate D2E/DX2                !
 ! R8    R(6,7)                  1.4948         estimate D2E/DX2                !
 ! R9    R(6,18)                 1.0229         estimate D2E/DX2                !
 ! R10   R(7,8)                  1.1211         estimate D2E/DX2                !
 ! R11   R(7,9)                  1.5487         estimate D2E/DX2                !
 ! R12   R(7,13)                 1.5368         estimate D2E/DX2                !
 ! R13   R(9,10)                 1.5405         estimate D2E/DX2                !
 ! R14   R(9,19)                 1.1109         estimate D2E/DX2                !
 ! R15   R(9,20)                 1.1107         estimate D2E/DX2                !
 ! R16   R(10,11)                1.5369         estimate D2E/DX2                !
 ! R17   R(10,21)                1.112          estimate D2E/DX2                !
 ! R18   R(10,22)                1.113          estimate D2E/DX2                !
 ! R19   R(11,12)                1.5442         estimate D2E/DX2                !
 ! R20   R(11,23)                1.1135         estimate D2E/DX2                !
 ! R21   R(11,24)                1.1118         estimate D2E/DX2                !
 ! R22   R(12,13)                1.5534         estimate D2E/DX2                !
 ! R23   R(12,25)                1.1121         estimate D2E/DX2                !
 ! R24   R(12,26)                1.1103         estimate D2E/DX2                !
 ! R25   R(13,14)                1.1153         estimate D2E/DX2                !
 ! R26   R(13,15)                1.4652         estimate D2E/DX2                !
 ! R27   R(15,16)                1.294          estimate D2E/DX2                !
 ! R28   R(16,27)                1.1007         estimate D2E/DX2                !
 ! A1    A(1,2,3)              123.6504         estimate D2E/DX2                !
 ! A2    A(1,2,4)              117.6814         estimate D2E/DX2                !
 ! A3    A(3,2,4)              118.6641         estimate D2E/DX2                !
 ! A4    A(2,4,5)              116.4384         estimate D2E/DX2                !
 ! A5    A(2,4,16)             116.6529         estimate D2E/DX2                !
 ! A6    A(5,4,16)             126.5416         estimate D2E/DX2                !
 ! A7    A(4,5,6)              125.4839         estimate D2E/DX2                !
 ! A8    A(4,5,17)             118.4892         estimate D2E/DX2                !
 ! A9    A(6,5,17)             115.953          estimate D2E/DX2                !
 ! A10   A(5,6,7)              128.2145         estimate D2E/DX2                !
 ! A11   A(5,6,18)             122.0105         estimate D2E/DX2                !
 ! A12   A(7,6,18)             108.2815         estimate D2E/DX2                !
 ! A13   A(6,7,8)              105.2868         estimate D2E/DX2                !
 ! A14   A(6,7,9)              115.0823         estimate D2E/DX2                !
 ! A15   A(6,7,13)             112.4824         estimate D2E/DX2                !
 ! A16   A(8,7,9)              106.0642         estimate D2E/DX2                !
 ! A17   A(8,7,13)             105.9453         estimate D2E/DX2                !
 ! A18   A(9,7,13)             111.1554         estimate D2E/DX2                !
 ! A19   A(7,9,10)             109.4579         estimate D2E/DX2                !
 ! A20   A(7,9,19)             110.1452         estimate D2E/DX2                !
 ! A21   A(7,9,20)             110.1834         estimate D2E/DX2                !
 ! A22   A(10,9,19)            109.9496         estimate D2E/DX2                !
 ! A23   A(10,9,20)            109.1008         estimate D2E/DX2                !
 ! A24   A(19,9,20)            107.9808         estimate D2E/DX2                !
 ! A25   A(9,10,11)            111.165          estimate D2E/DX2                !
 ! A26   A(9,10,21)            109.9541         estimate D2E/DX2                !
 ! A27   A(9,10,22)            109.1502         estimate D2E/DX2                !
 ! A28   A(11,10,21)           109.7881         estimate D2E/DX2                !
 ! A29   A(11,10,22)           108.7771         estimate D2E/DX2                !
 ! A30   A(21,10,22)           107.9358         estimate D2E/DX2                !
 ! A31   A(10,11,12)           111.4409         estimate D2E/DX2                !
 ! A32   A(10,11,23)           108.9823         estimate D2E/DX2                !
 ! A33   A(10,11,24)           109.8745         estimate D2E/DX2                !
 ! A34   A(12,11,23)           109.1985         estimate D2E/DX2                !
 ! A35   A(12,11,24)           109.7517         estimate D2E/DX2                !
 ! A36   A(23,11,24)           107.5024         estimate D2E/DX2                !
 ! A37   A(11,12,13)           111.7629         estimate D2E/DX2                !
 ! A38   A(11,12,25)           109.1804         estimate D2E/DX2                !
 ! A39   A(11,12,26)           109.4118         estimate D2E/DX2                !
 ! A40   A(13,12,25)           109.2015         estimate D2E/DX2                !
 ! A41   A(13,12,26)           109.4577         estimate D2E/DX2                !
 ! A42   A(25,12,26)           107.7383         estimate D2E/DX2                !
 ! A43   A(7,13,12)            105.7691         estimate D2E/DX2                !
 ! A44   A(7,13,14)            111.335          estimate D2E/DX2                !
 ! A45   A(7,13,15)            113.3389         estimate D2E/DX2                !
 ! A46   A(12,13,14)           107.5619         estimate D2E/DX2                !
 ! A47   A(12,13,15)           108.4009         estimate D2E/DX2                !
 ! A48   A(14,13,15)           110.1412         estimate D2E/DX2                !
 ! A49   A(13,15,16)           118.9412         estimate D2E/DX2                !
 ! A50   A(4,16,15)            128.756          estimate D2E/DX2                !
 ! A51   A(4,16,27)            113.6867         estimate D2E/DX2                !
 ! A52   A(15,16,27)           117.5502         estimate D2E/DX2                !
 ! D1    D(1,2,4,5)           -178.236          estimate D2E/DX2                !
 ! D2    D(1,2,4,16)             8.2587         Frozen                          !
 ! D3    D(3,2,4,5)              1.0561         estimate D2E/DX2                !
 ! D4    D(3,2,4,16)          -172.4492         estimate D2E/DX2                !
 ! D5    D(2,4,5,6)           -167.7768         Frozen                          !
 ! D6    D(2,4,5,17)             8.9631         estimate D2E/DX2                !
 ! D7    D(16,4,5,6)             4.9948         estimate D2E/DX2                !
 ! D8    D(16,4,5,17)         -178.2654         estimate D2E/DX2                !
 ! D9    D(2,4,16,15)         -160.6763         estimate D2E/DX2                !
 ! D10   D(2,4,16,27)           18.3152         estimate D2E/DX2                !
 ! D11   D(5,4,16,15)           26.5658         estimate D2E/DX2                !
 ! D12   D(5,4,16,27)         -154.4427         estimate D2E/DX2                !
 ! D13   D(4,5,6,7)            -22.7837         estimate D2E/DX2                !
 ! D14   D(4,5,6,18)           141.5849         estimate D2E/DX2                !
 ! D15   D(17,5,6,7)           160.403          estimate D2E/DX2                !
 ! D16   D(17,5,6,18)          -35.2284         estimate D2E/DX2                !
 ! D17   D(5,6,7,8)           -133.5515         estimate D2E/DX2                !
 ! D18   D(5,6,7,9)            110.0468         estimate D2E/DX2                !
 ! D19   D(5,6,7,13)           -18.6324         estimate D2E/DX2                !
 ! D20   D(18,6,7,8)            60.3719         estimate D2E/DX2                !
 ! D21   D(18,6,7,9)           -56.0299         estimate D2E/DX2                !
 ! D22   D(18,6,7,13)          175.2909         estimate D2E/DX2                !
 ! D23   D(6,7,9,10)           168.8468         estimate D2E/DX2                !
 ! D24   D(6,7,9,19)           -70.1528         estimate D2E/DX2                !
 ! D25   D(6,7,9,20)            48.8714         estimate D2E/DX2                !
 ! D26   D(8,7,9,10)            52.8888         estimate D2E/DX2                !
 ! D27   D(8,7,9,19)           173.8892         estimate D2E/DX2                !
 ! D28   D(8,7,9,20)           -67.0866         estimate D2E/DX2                !
 ! D29   D(13,7,9,10)          -61.8181         estimate D2E/DX2                !
 ! D30   D(13,7,9,19)           59.1823         estimate D2E/DX2                !
 ! D31   D(13,7,9,20)          178.2065         estimate D2E/DX2                !
 ! D32   D(6,7,13,12)         -166.3532         estimate D2E/DX2                !
 ! D33   D(6,7,13,14)          -49.8083         estimate D2E/DX2                !
 ! D34   D(6,7,13,15)           75.0213         Frozen                          !
 ! D35   D(8,7,13,12)          -51.834          estimate D2E/DX2                !
 ! D36   D(8,7,13,14)           64.711          estimate D2E/DX2                !
 ! D37   D(8,7,13,15)         -170.4594         estimate D2E/DX2                !
 ! D38   D(9,7,13,12)           62.9469         estimate D2E/DX2                !
 ! D39   D(9,7,13,14)          179.4919         estimate D2E/DX2                !
 ! D40   D(9,7,13,15)          -55.6785         estimate D2E/DX2                !
 ! D41   D(7,9,10,11)           54.8126         Frozen                          !
 ! D42   D(7,9,10,21)          176.601          estimate D2E/DX2                !
 ! D43   D(7,9,10,22)          -65.1769         estimate D2E/DX2                !
 ! D44   D(19,9,10,11)         -66.3063         estimate D2E/DX2                !
 ! D45   D(19,9,10,21)          55.4821         estimate D2E/DX2                !
 ! D46   D(19,9,10,22)         173.7042         estimate D2E/DX2                !
 ! D47   D(20,9,10,11)         175.4491         estimate D2E/DX2                !
 ! D48   D(20,9,10,21)         -62.7625         estimate D2E/DX2                !
 ! D49   D(20,9,10,22)          55.4596         estimate D2E/DX2                !
 ! D50   D(9,10,11,12)         -52.8224         Frozen                          !
 ! D51   D(9,10,11,23)          67.7547         estimate D2E/DX2                !
 ! D52   D(9,10,11,24)        -174.6949         estimate D2E/DX2                !
 ! D53   D(21,10,11,12)       -174.7075         estimate D2E/DX2                !
 ! D54   D(21,10,11,23)        -54.1304         estimate D2E/DX2                !
 ! D55   D(21,10,11,24)         63.42           estimate D2E/DX2                !
 ! D56   D(22,10,11,12)         67.3883         estimate D2E/DX2                !
 ! D57   D(22,10,11,23)       -172.0347         estimate D2E/DX2                !
 ! D58   D(22,10,11,24)        -54.4842         estimate D2E/DX2                !
 ! D59   D(10,11,12,13)         56.5152         estimate D2E/DX2                !
 ! D60   D(10,11,12,25)        177.4335         estimate D2E/DX2                !
 ! D61   D(10,11,12,26)        -64.8823         estimate D2E/DX2                !
 ! D62   D(23,11,12,13)        -63.9349         estimate D2E/DX2                !
 ! D63   D(23,11,12,25)         56.9835         estimate D2E/DX2                !
 ! D64   D(23,11,12,26)        174.6676         estimate D2E/DX2                !
 ! D65   D(24,11,12,13)        178.4588         estimate D2E/DX2                !
 ! D66   D(24,11,12,25)        -60.6229         estimate D2E/DX2                !
 ! D67   D(24,11,12,26)         57.0613         estimate D2E/DX2                !
 ! D68   D(11,12,13,7)         -59.9982         estimate D2E/DX2                !
 ! D69   D(11,12,13,14)       -179.0697         estimate D2E/DX2                !
 ! D70   D(11,12,13,15)         61.8578         estimate D2E/DX2                !
 ! D71   D(25,12,13,7)         179.0958         estimate D2E/DX2                !
 ! D72   D(25,12,13,14)         60.0242         estimate D2E/DX2                !
 ! D73   D(25,12,13,15)        -59.0482         estimate D2E/DX2                !
 ! D74   D(26,12,13,7)          61.3728         estimate D2E/DX2                !
 ! D75   D(26,12,13,14)        -57.6988         estimate D2E/DX2                !
 ! D76   D(26,12,13,15)       -176.7712         estimate D2E/DX2                !
 ! D77   D(7,13,15,16)         -67.16           Frozen                          !
 ! D78   D(12,13,15,16)        175.7451         estimate D2E/DX2                !
 ! D79   D(14,13,15,16)         58.3116         estimate D2E/DX2                !
 ! D80   D(13,15,16,4)           4.6503         estimate D2E/DX2                !
 ! D81   D(13,15,16,27)       -174.308          estimate D2E/DX2                !
 --------------------------------------------------------------------------------
 Trust Radius=3.00D-01 FncErr=1.00D-07 GrdErr=1.00D-07 EigMax=2.50D+02 EigMin=1.00D-04
 Number of steps in this run=     20 maximum allowed number of steps=    162.
 GradGradGradGradGradGradGradGradGradGradGradGradGradGradGradGradGradGrad

                          Input orientation:                          
 ---------------------------------------------------------------------
 Center     Atomic      Atomic             Coordinates (Angstroms)
 Number     Number       Type             X           Y           Z
 ---------------------------------------------------------------------
      1          8           0       -3.640180   -1.383020   -0.401860
      2          7           0       -3.265630   -0.252670   -0.094860
      3          8           0       -4.033900    0.683580    0.129000
      4          6           0       -1.761890   -0.012370    0.028800
      5          6           0       -1.365860    1.273400    0.416670
      6          7           0       -0.086820    1.763580    0.358630
      7          6           0        1.196940    0.997990    0.340460
      8          1           0        1.857660    1.511080    1.086780
      9          6           0        1.962900    1.032470   -1.005070
     10          6           0        3.376190    0.452800   -0.806010
     11          6           0        3.317170   -0.954930   -0.192150
     12          6           0        2.467310   -0.973400    1.097000
     13          6           0        1.028760   -0.443470    0.846150
     14          1           0        0.485420   -0.471130    1.819700
     15          7           0        0.373260   -1.325730   -0.122690
     16          6           0       -0.869510   -1.118400   -0.417630
     17          1           0       -2.139920    1.983250    0.752610
     18          1           0        0.111840    2.729670    0.087280
     19          1           0        1.416090    0.443250   -1.771790
     20          1           0        2.047020    2.077630   -1.371480
     21          1           0        3.912190    0.416760   -1.779660
     22          1           0        3.950650    1.117700   -0.122930
     23          1           0        2.871800   -1.655340   -0.934390
     24          1           0        4.345710   -1.313530    0.030700
     25          1           0        2.411330   -2.014900    1.482820
     26          1           0        2.960550   -0.351230    1.873080
     27          1           0       -1.366090   -1.850020   -1.073150
 ---------------------------------------------------------------------
                    Distance matrix (angstroms):
                    1          2          3          4          5
     1  O    0.000000
     2  N    1.229727   0.000000
     3  O    2.169715   1.231632   0.000000
     4  C    2.364767   1.527832   2.378322   0.000000
     5  C    3.591530   2.489915   2.747559   1.400174   0.000000
     6  N    4.806850   3.791537   4.098606   2.463462   1.370981
     7  C    5.442240   4.654910   5.244545   3.142075   2.578682
     8  H    6.388905   5.545736   6.025992   4.067108   3.301003
     9  C    6.131310   5.460549   6.113056   4.004327   3.627676
    10  C    7.263816   6.716933   7.472412   5.226199   4.965417
    11  C    6.973662   6.620868   7.538308   5.170502   5.221770
    12  C    6.302048   5.899710   6.778520   4.466628   4.494903
    13  C    4.923341   4.400419   5.235940   2.939666   2.977633
    14  H    4.773620   4.217065   4.961459   2.910015   2.905016
    15  N    4.023546   3.793910   4.850127   2.511320   3.173472
    16  C    2.783323   2.568085   3.682296   1.489612   2.581303
    17  H    3.862040   2.642871   2.380166   2.156225   1.102684
    18  H    5.588482   4.509416   4.623352   3.321606   2.100671
    19  H    5.547778   5.021444   5.776950   3.680933   3.635623
    20  H    6.727593   5.940059   6.416573   4.564721   3.935990
    21  H    7.885165   7.403228   8.176461   5.970751   5.780615
    22  H    7.997006   7.345298   8.000310   5.825220   5.346091
    23  H    6.539391   6.351405   7.368177   5.009807   5.325471
    24  H    7.997898   7.685941   8.614869   6.244662   6.281975
    25  H    6.369620   6.149992   7.117276   4.851811   5.120230
    26  H    7.057590   6.530530   7.282512   5.081106   4.845449
    27  H    2.416652   2.667739   3.870595   2.178970   3.460537
                    6          7          8          9         10
     6  N    0.000000
     7  C    1.494824   0.000000
     8  H    2.091641   1.121074   0.000000
     9  C    2.568181   1.548656   2.148483   0.000000
    10  C    3.881619   2.522054   2.647365   1.540464   0.000000
    11  C    4.390991   2.931373   3.137999   2.538631   1.536884
    12  C    3.815735   2.464259   2.558206   2.949007   2.545890
    13  C    2.520568   1.536819   2.136643   2.545198   3.007218
    14  H    2.730588   2.202890   2.519796   3.524640   4.013048
    15  N    3.160250   2.508512   3.422536   2.977693   3.556358
    16  C    3.085610   3.053526   4.076134   3.604702   4.543729
    17  H    2.102069   3.503604   4.039215   4.563612   5.932878
    18  H    1.022950   2.059189   2.351988   2.738638   4.078981
    19  H    2.922447   2.194849   3.083288   1.110874   2.185135
    20  H    2.764992   2.195221   2.529798   1.110717   2.174057
    21  H    4.730570   3.493611   3.692575   2.186051   1.112020
    22  H    4.117065   2.794992   2.449235   2.176370   1.112967
    23  H    4.702589   3.386821   3.890993   2.838207   2.171438
    24  H    5.405873   3.918396   3.909491   3.500617   2.181737
    25  H    4.667062   3.443434   3.591091   3.959438   3.501320
    26  H    4.006550   2.698081   2.302788   3.345696   2.827851
    27  H    4.092020   4.083941   5.133698   4.404039   5.278595
                   11         12         13         14         15
    11  C    0.000000
    12  C    1.544186   0.000000
    13  C    2.564465   1.553441   0.000000
    14  H    3.507194   2.168515   1.115250   0.000000
    15  N    2.967983   2.448842   1.465167   2.125041   0.000000
    16  C    4.195933   3.667356   2.378256   2.694520   1.294006
    17  H    6.269394   5.485157   3.992274   3.749010   4.246360
    18  H    4.891676   4.503388   3.389018   3.658683   4.069238
    19  H    2.839767   3.367776   2.791040   3.821130   2.633689
    20  H    3.492924   3.947002   3.508658   4.372459   3.992970
    21  H    2.180773   3.506479   3.993625   5.048415   4.278533
    22  H    2.168383   2.839230   3.451639   4.278552   4.332213
    23  H    1.113485   2.180642   2.834739   3.831733   2.647679
    24  H    1.111823   2.186566   3.524787   4.337280   3.975429
    25  H    2.179359   1.112076   2.187748   2.491153   2.684464
    26  H    2.181010   1.110262   2.189727   2.478607   3.409812
    27  H    4.848739   4.491433   3.376004   3.701082   2.050266
                   16         17         18         19         20
    16  C    0.000000
    17  H    3.550160   0.000000
    18  H    4.003202   2.463784   0.000000
    19  H    3.081634   4.624868   3.222565   0.000000
    20  H    4.430642   4.695863   2.509593   1.797086   0.000000
    21  H    5.203508   6.744948   4.824695   2.496253   2.530605
    22  H    5.321742   6.213758   4.168825   3.098002   2.470658
    23  H    3.814806   6.418929   5.281051   2.687826   3.847905
    24  H    5.238091   7.311177   5.854598   3.862372   4.330133
    25  H    3.896066   6.101826   5.454001   4.198272   5.002854
    26  H    4.528274   5.720144   4.560282   4.037528   4.154644
    27  H    1.100712   4.315805   4.950195   3.672562   5.211982
                   21         22         23         24         25
    21  H    0.000000
    22  H    1.799319   0.000000
    23  H    2.467892   3.084175   0.000000
    24  H    2.541505   2.467905   1.794615   0.000000
    25  H    4.336972   3.842021   2.486809   2.518412   0.000000
    26  H    3.852004   2.668728   3.096848   2.497810   1.794922
    27  H    5.787719   6.162630   4.244628   5.842171   4.563888
                   26         27
    26  H    0.000000
    27  H    5.444856   0.000000
 Symmetry turned off by external request.
 Stoichiometry    C9H13N3O2
 Framework group  C1[X(C9H13N3O2)]
 Deg. of freedom    75
 Full point group                 C1      NOp   1
 Rotational constants (GHZ):           1.6813797           0.3977038           0.3555735
 Standard basis: 6-31G(d) (6D, 7F)
   236 basis functions,   444 primitive gaussians,   236 cartesian basis functions
    52 alpha electrons       52 beta electrons
       nuclear repulsion energy       917.3715887176 Hartrees.
 NAtoms=   27 NActive=   27 NUniq=   27 SFac= 1.00D+00 NAtFMM=   60 NAOKFM=F Big=F
 Integral buffers will be    131072 words long.
 Raffenetti 1 integral format.
 Two-electron integral symmetry is turned off.
 One-electron integrals computed using PRISM.
 NBasis=   236 RedAO= T EigKep=  1.30D-03  NBF=   236
 NBsUse=   236 1.00D-06 EigRej= -1.00D+00 NBFU=   236
 ExpMin= 1.61D-01 ExpMax= 5.48D+03 ExpMxC= 8.25D+02 IAcc=3 IRadAn=         5 AccDes= 0.00D+00
 Harris functional with IExCor=  205 and IRadAn=       5 diagonalized for initial guess.
 HarFok:  IExCor=  205 AccDes= 0.00D+00 IRadAn=         5 IDoV= 1 UseB2=F ITyADJ=14
 ICtDFT=  3500011 ScaDFX=  1.000000  1.000000  1.000000  1.000000
 FoFCou: FMM=F IPFlag=           0 FMFlag=      100000 FMFlg1=           0
         NFxFlg=           0 DoJE=T BraDBF=F KetDBF=T FulRan=T
         wScrn=  0.000000 ICntrl=       500 IOpCl=  0 I1Cent=   200000004 NGrid=           0
         NMat0=    1 NMatS0=      1 NMatT0=    0 NMatD0=    1 NMtDS0=    0 NMtDT0=    0
 Symmetry not used in FoFCou.
 Keep R1 ints in memory in canonical form, NReq=397720213.
 Requested convergence on RMS density matrix=1.00D-08 within 128 cycles.
 Requested convergence on MAX density matrix=1.00D-06.
 Requested convergence on             energy=1.00D-06.
 No special actions if energy rises.
 SCF Done:  E(RHF) =  -661.274763158     A.U. after   16 cycles
            NFock= 16  Conv=0.75D-08     -V/T= 2.0037
 ExpMin= 1.61D-01 ExpMax= 5.48D+03 ExpMxC= 8.25D+02 IAcc=3 IRadAn=         5 AccDes= 0.00D+00
 HarFok:  IExCor=  205 AccDes= 0.00D+00 IRadAn=         5 IDoV=-2 UseB2=F ITyADJ=14
 ICtDFT= 12500011 ScaDFX=  1.000000  1.000000  1.000000  1.000000
 Range of M.O.s used for correlation:    15   236
 NBasis=   236 NAE=    52 NBE=    52 NFC=    14 NFV=     0
 NROrb=    222 NOA=    38 NOB=    38 NVA=   184 NVB=   184
 Fully direct method using O(ONN) memory.
 JobTyp=1 Pass  1:  I=  15 to  52 NPSUse=  4 ParTrn=T ParDer=T DoDerP=T.
 Spin components of T(2) and E(2):
     alpha-alpha T2 =       0.9202377685D-01 E2=     -0.2718069968D+00
     alpha-beta  T2 =       0.5001327266D+00 E2=     -0.1494064514D+01
     beta-beta   T2 =       0.9202377685D-01 E2=     -0.2718069968D+00
 ANorm=    0.1297759716D+01
 E2 =    -0.2037678508D+01 EUMP2 =    -0.66331244166548D+03
          IDoAtm=111111111111111111111111111
          Differentiating once with respect to electric field.
                with respect to dipole field.
          Differentiating once with respect to nuclear coordinates.
 Keep R1 ints in memory in canonical form, NReq=397723379.
          There are     1 degrees of freedom in the 1st order CPHF.  IDoFFX=0 NUNeed=     1.
 LinEq1:  Iter=  0 NonCon=     1 RMS=4.62D-03 Max=1.14D-01 NDo=     1
 AX will form     1 AO Fock derivatives at one time.
 LinEq1:  Iter=  1 NonCon=     1 RMS=1.57D-03 Max=3.18D-02 NDo=     1
 LinEq1:  Iter=  2 NonCon=     1 RMS=6.45D-04 Max=1.86D-02 NDo=     1
 LinEq1:  Iter=  3 NonCon=     1 RMS=2.97D-04 Max=9.26D-03 NDo=     1
 LinEq1:  Iter=  4 NonCon=     1 RMS=9.23D-05 Max=2.33D-03 NDo=     1
 LinEq1:  Iter=  5 NonCon=     1 RMS=3.90D-05 Max=2.00D-03 NDo=     1
 LinEq1:  Iter=  6 NonCon=     1 RMS=1.60D-05 Max=6.04D-04 NDo=     1
 LinEq1:  Iter=  7 NonCon=     1 RMS=6.25D-06 Max=1.06D-04 NDo=     1
 LinEq1:  Iter=  8 NonCon=     1 RMS=2.50D-06 Max=5.70D-05 NDo=     1
 LinEq1:  Iter=  9 NonCon=     1 RMS=9.47D-07 Max=2.57D-05 NDo=     1
 LinEq1:  Iter= 10 NonCon=     1 RMS=4.52D-07 Max=1.35D-05 NDo=     1
 LinEq1:  Iter= 11 NonCon=     1 RMS=1.62D-07 Max=5.80D-06 NDo=     1
 LinEq1:  Iter= 12 NonCon=     1 RMS=5.77D-08 Max=9.18D-07 NDo=     1
 LinEq1:  Iter= 13 NonCon=     1 RMS=1.88D-08 Max=5.10D-07 NDo=     1
 LinEq1:  Iter= 14 NonCon=     1 RMS=6.33D-09 Max=2.04D-07 NDo=     1
 LinEq1:  Iter= 15 NonCon=     1 RMS=2.40D-09 Max=5.71D-08 NDo=     1
 LinEq1:  Iter= 16 NonCon=     1 RMS=8.71D-10 Max=1.32D-08 NDo=     1
 LinEq1:  Iter= 17 NonCon=     1 RMS=2.88D-10 Max=4.67D-09 NDo=     1
 LinEq1:  Iter= 18 NonCon=     1 RMS=9.51D-11 Max=1.33D-09 NDo=     1
 LinEq1:  Iter= 19 NonCon=     0 RMS=3.00D-11 Max=4.64D-10 NDo=     1
 Linear equations converged to 1.000D-10 1.000D-09 after    19 iterations.
 End of Minotr F.D. properties file   721 does not exist.
 End of Minotr F.D. properties file   722 does not exist.
 End of Minotr F.D. properties file   788 does not exist.

 **********************************************************************

            Population analysis using the SCF Density.

 **********************************************************************

 Alpha  occ. eigenvalues --  -20.59952 -20.59531 -15.85446 -15.62726 -15.57000
 Alpha  occ. eigenvalues --  -11.35900 -11.30524 -11.30317 -11.29944 -11.27734
 Alpha  occ. eigenvalues --  -11.24559 -11.23828 -11.23406 -11.22841  -1.58624
 Alpha  occ. eigenvalues --   -1.38118  -1.28387  -1.22701  -1.13233  -1.08367
 Alpha  occ. eigenvalues --   -1.01789  -1.00582  -0.93530  -0.88946  -0.84888
 Alpha  occ. eigenvalues --   -0.81507  -0.78127  -0.76873  -0.74315  -0.70941
 Alpha  occ. eigenvalues --   -0.70440  -0.69952  -0.67474  -0.64283  -0.63335
 Alpha  occ. eigenvalues --   -0.61501  -0.60681  -0.57488  -0.56303  -0.54888
 Alpha  occ. eigenvalues --   -0.53242  -0.50706  -0.49054  -0.48576  -0.47777
 Alpha  occ. eigenvalues --   -0.47538  -0.46142  -0.45633  -0.44121  -0.42199
 Alpha  occ. eigenvalues --   -0.40157  -0.33673
 Alpha virt. eigenvalues --    0.06637   0.11642   0.18533   0.21694   0.23699
 Alpha virt. eigenvalues --    0.24382   0.25867   0.27533   0.28560   0.28907
 Alpha virt. eigenvalues --    0.29703   0.31253   0.31871   0.32235   0.33311
 Alpha virt. eigenvalues --    0.33747   0.34133   0.35712   0.37681   0.38542
 Alpha virt. eigenvalues --    0.40742   0.42048   0.44706   0.45490   0.45572
 Alpha virt. eigenvalues --    0.45881   0.49576   0.53156   0.57709   0.59041
 Alpha virt. eigenvalues --    0.63477   0.69145   0.69677   0.72131   0.74005
 Alpha virt. eigenvalues --    0.75015   0.75576   0.75845   0.77487   0.79687
 Alpha virt. eigenvalues --    0.80246   0.83612   0.85087   0.85365   0.88051
 Alpha virt. eigenvalues --    0.89090   0.90299   0.91052   0.92411   0.93865
 Alpha virt. eigenvalues --    0.95820   0.97169   0.98719   1.00142   1.01893
 Alpha virt. eigenvalues --    1.02622   1.04986   1.05909   1.06888   1.08387
 Alpha virt. eigenvalues --    1.09337   1.10518   1.10951   1.11800   1.13293
 Alpha virt. eigenvalues --    1.13800   1.14524   1.15387   1.16273   1.17252
 Alpha virt. eigenvalues --    1.18139   1.19954   1.21034   1.22052   1.22645
 Alpha virt. eigenvalues --    1.24258   1.25405   1.25865   1.27213   1.27567
 Alpha virt. eigenvalues --    1.29134   1.30593   1.33274   1.35871   1.38843
 Alpha virt. eigenvalues --    1.42645   1.44624   1.47971   1.49704   1.52566
 Alpha virt. eigenvalues --    1.53493   1.55236   1.60686   1.62105   1.67432
 Alpha virt. eigenvalues --    1.69083   1.69860   1.71767   1.73633   1.76110
 Alpha virt. eigenvalues --    1.79193   1.80387   1.84130   1.86901   1.92844
 Alpha virt. eigenvalues --    1.94794   1.96722   1.97268   1.99132   2.00198
 Alpha virt. eigenvalues --    2.02737   2.04175   2.05817   2.08646   2.11737
 Alpha virt. eigenvalues --    2.12588   2.14438   2.17735   2.18024   2.19717
 Alpha virt. eigenvalues --    2.21347   2.22147   2.23958   2.24411   2.26890
 Alpha virt. eigenvalues --    2.28988   2.32453   2.34138   2.35616   2.36134
 Alpha virt. eigenvalues --    2.38291   2.40162   2.41392   2.43221   2.45512
 Alpha virt. eigenvalues --    2.48071   2.50115   2.52549   2.56226   2.57514
 Alpha virt. eigenvalues --    2.61174   2.62608   2.66454   2.67689   2.68783
 Alpha virt. eigenvalues --    2.69948   2.70405   2.75257   2.76665   2.80887
 Alpha virt. eigenvalues --    2.84245   2.86666   2.90464   2.91609   2.95530
 Alpha virt. eigenvalues --    2.98200   2.98951   3.02507   3.03077   3.06151
 Alpha virt. eigenvalues --    3.06538   3.11897   3.19838   3.22608   3.26676
 Alpha virt. eigenvalues --    3.30415   3.33066   3.37205   3.43360   3.59076
 Alpha virt. eigenvalues --    4.09876   4.23185   4.31515   4.36323   4.43743
 Alpha virt. eigenvalues --    4.52486   4.59380   4.59822   4.70999   4.77718
 Alpha virt. eigenvalues --    4.95466   4.99227   5.02391   5.10158
          Condensed to atoms (all electrons):
               1          2          3          4          5          6
     1  O    8.301540   0.309277  -0.089518  -0.077895   0.003306  -0.000017
     2  N    0.309277   5.688160   0.310031   0.260271  -0.044411   0.001067
     3  O   -0.089518   0.310031   8.328891  -0.086270   0.006816   0.000429
     4  C   -0.077895   0.260271  -0.086270   5.235621   0.569243  -0.056007
     5  C    0.003306  -0.044411   0.006816   0.569243   4.672932   0.311084
     6  N   -0.000017   0.001067   0.000429  -0.056007   0.311084   7.205998
     7  C    0.000002  -0.000096  -0.000000   0.004121  -0.031000   0.196134
     8  H   -0.000000   0.000002  -0.000000  -0.000170   0.001344  -0.052378
     9  C   -0.000000  -0.000003   0.000000   0.000559   0.002408  -0.054197
    10  C   -0.000000   0.000000  -0.000000  -0.000021  -0.000083   0.003261
    11  C   -0.000000  -0.000000  -0.000000  -0.000012   0.000014  -0.000153
    12  C   -0.000000   0.000001  -0.000000  -0.000074  -0.000102   0.003648
    13  C   -0.000016  -0.000020  -0.000002  -0.011727   0.000490  -0.042802
    14  H   -0.000003  -0.000048   0.000000   0.002776   0.006162  -0.005703
    15  N    0.000281   0.001522  -0.000011  -0.059127  -0.004946   0.002575
    16  C    0.002742  -0.025656   0.002049   0.320435  -0.041922  -0.002171
    17  H    0.000103  -0.003841   0.010915  -0.028597   0.378198  -0.033598
    18  H    0.000001  -0.000039   0.000012   0.000486  -0.022728   0.327238
    19  H    0.000000  -0.000000   0.000000  -0.000652   0.000317   0.000972
    20  H    0.000000  -0.000000   0.000000  -0.000032   0.000031  -0.002186
    21  H   -0.000000  -0.000000   0.000000   0.000000   0.000001  -0.000055
    22  H   -0.000000   0.000000  -0.000000  -0.000000  -0.000003  -0.000099
    23  H    0.000000  -0.000000   0.000000   0.000023  -0.000000  -0.000024
    24  H    0.000000   0.000000   0.000000   0.000000  -0.000000   0.000004
    25  H    0.000000  -0.000000   0.000000   0.000017  -0.000001  -0.000071
    26  H    0.000000  -0.000000   0.000000   0.000006  -0.000003  -0.000061
    27  H    0.005807   0.000334   0.000032  -0.063989   0.001978   0.000069
               7          8          9         10         11         12
     1  O    0.000002  -0.000000  -0.000000  -0.000000  -0.000000  -0.000000
     2  N   -0.000096   0.000002  -0.000003   0.000000  -0.000000   0.000001
     3  O   -0.000000  -0.000000   0.000000  -0.000000  -0.000000  -0.000000
     4  C    0.004121  -0.000170   0.000559  -0.000021  -0.000012  -0.000074
     5  C   -0.031000   0.001344   0.002408  -0.000083   0.000014  -0.000102
     6  N    0.196134  -0.052378  -0.054197   0.003261  -0.000153   0.003648
     7  C    4.991096   0.418450   0.339050  -0.049140  -0.007621  -0.064036
     8  H    0.418450   0.553080  -0.062018   0.001671  -0.000358  -0.002754
     9  C    0.339050  -0.062018   5.182337   0.317666  -0.053017  -0.006510
    10  C   -0.049140   0.001671   0.317666   5.126415   0.332902  -0.059832
    11  C   -0.007621  -0.000358  -0.053017   0.332902   5.122651   0.331279
    12  C   -0.064036  -0.002754  -0.006510  -0.059832   0.331279   5.135050
    13  C    0.336263  -0.041890  -0.047546  -0.002221  -0.047836   0.367883
    14  H   -0.040455  -0.000858   0.003862  -0.000389   0.003937  -0.040435
    15  N   -0.059178   0.004189  -0.013147   0.001529  -0.007622  -0.073784
    16  C   -0.002626   0.000024  -0.000944  -0.000017  -0.000003   0.002579
    17  H    0.001503  -0.000018  -0.000062   0.000001   0.000000   0.000001
    18  H   -0.027061  -0.002154   0.000941  -0.000132   0.000012  -0.000132
    19  H   -0.034839   0.004176   0.385352  -0.032496  -0.002310   0.000657
    20  H   -0.041342  -0.001903   0.397314  -0.037476   0.004151  -0.000355
    21  H    0.004025  -0.000081  -0.035890   0.400296  -0.035900   0.004199
    22  H   -0.004107   0.003520  -0.045623   0.395925  -0.045580  -0.001261
    23  H    0.000415   0.000032  -0.002005  -0.040120   0.396752  -0.036779
    24  H   -0.000139  -0.000095   0.004390  -0.038459   0.400330  -0.037838
    25  H    0.004958  -0.000003  -0.000364   0.004096  -0.033999   0.395499
    26  H   -0.004430   0.001638   0.001013  -0.002386  -0.042266   0.394740
    27  H   -0.000394   0.000009  -0.000054   0.000005   0.000005  -0.000020
              13         14         15         16         17         18
     1  O   -0.000016  -0.000003   0.000281   0.002742   0.000103   0.000001
     2  N   -0.000020  -0.000048   0.001522  -0.025656  -0.003841  -0.000039
     3  O   -0.000002   0.000000  -0.000011   0.002049   0.010915   0.000012
     4  C   -0.011727   0.002776  -0.059127   0.320435  -0.028597   0.000486
     5  C    0.000490   0.006162  -0.004946  -0.041922   0.378198  -0.022728
     6  N   -0.042802  -0.005703   0.002575  -0.002171  -0.033598   0.327238
     7  C    0.336263  -0.040455  -0.059178  -0.002626   0.001503  -0.027061
     8  H   -0.041890  -0.000858   0.004189   0.000024  -0.000018  -0.002154
     9  C   -0.047546   0.003862  -0.013147  -0.000944  -0.000062   0.000941
    10  C   -0.002221  -0.000389   0.001529  -0.000017   0.000001  -0.000132
    11  C   -0.047836   0.003937  -0.007622  -0.000003   0.000000   0.000012
    12  C    0.367883  -0.040435  -0.073784   0.002579   0.000001  -0.000132
    13  C    5.031382   0.400434   0.239235  -0.070343  -0.000036   0.003507
    14  H    0.400434   0.523376  -0.036408  -0.004670   0.000078   0.000019
    15  N    0.239235  -0.036408   6.937115   0.582961  -0.000074  -0.000110
    16  C   -0.070343  -0.004670   0.582961   4.710965   0.001616  -0.000207
    17  H   -0.000036   0.000078  -0.000074   0.001616   0.387898  -0.001650
    18  H    0.003507   0.000019  -0.000110  -0.000207  -0.001650   0.319107
    19  H   -0.006491   0.000066   0.007118   0.002490   0.000008  -0.000131
    20  H    0.003828  -0.000048   0.000077  -0.000027  -0.000000   0.003098
    21  H   -0.000357   0.000009  -0.000025   0.000002  -0.000000   0.000000
    22  H    0.000320  -0.000045   0.000002  -0.000001   0.000000   0.000001
    23  H   -0.005758   0.000006   0.006626   0.000057   0.000000   0.000000
    24  H    0.004135  -0.000058   0.000043   0.000005   0.000000  -0.000000
    25  H   -0.034645  -0.002642   0.000645  -0.000058  -0.000000   0.000002
    26  H   -0.044716  -0.000955   0.004175  -0.000061   0.000000  -0.000001
    27  H    0.004805  -0.000179  -0.039019   0.401243  -0.000062   0.000003
              19         20         21         22         23         24
     1  O    0.000000   0.000000  -0.000000  -0.000000   0.000000   0.000000
     2  N   -0.000000  -0.000000  -0.000000   0.000000  -0.000000   0.000000
     3  O    0.000000   0.000000   0.000000  -0.000000   0.000000   0.000000
     4  C   -0.000652  -0.000032   0.000000  -0.000000   0.000023   0.000000
     5  C    0.000317   0.000031   0.000001  -0.000003  -0.000000  -0.000000
     6  N    0.000972  -0.002186  -0.000055  -0.000099  -0.000024   0.000004
     7  C   -0.034839  -0.041342   0.004025  -0.004107   0.000415  -0.000139
     8  H    0.004176  -0.001903  -0.000081   0.003520   0.000032  -0.000095
     9  C    0.385352   0.397314  -0.035890  -0.045623  -0.002005   0.004390
    10  C   -0.032496  -0.037476   0.400296   0.395925  -0.040120  -0.038459
    11  C   -0.002310   0.004151  -0.035900  -0.045580   0.396752   0.400330
    12  C    0.000657  -0.000355   0.004199  -0.001261  -0.036779  -0.037838
    13  C   -0.006491   0.003828  -0.000357   0.000320  -0.005758   0.004135
    14  H    0.000066  -0.000048   0.000009  -0.000045   0.000006  -0.000058
    15  N    0.007118   0.000077  -0.000025   0.000002   0.006626   0.000043
    16  C    0.002490  -0.000027   0.000002  -0.000001   0.000057   0.000005
    17  H    0.000008  -0.000000  -0.000000   0.000000   0.000000   0.000000
    18  H   -0.000131   0.003098   0.000000   0.000001   0.000000  -0.000000
    19  H    0.506923  -0.024118  -0.002585   0.003757   0.001641  -0.000069
    20  H   -0.024118   0.550776  -0.002578  -0.002982  -0.000050  -0.000090
    21  H   -0.002585  -0.002578   0.526229  -0.024717  -0.002817  -0.002040
    22  H    0.003757  -0.002982  -0.024717   0.568462   0.004064  -0.003595
    23  H    0.001641  -0.000050  -0.002817   0.004064   0.510279  -0.025034
    24  H   -0.000069  -0.000090  -0.002040  -0.003595  -0.025034   0.541017
    25  H   -0.000027   0.000011  -0.000086  -0.000082  -0.002114  -0.002373
    26  H    0.000024  -0.000036  -0.000074   0.002466   0.003830  -0.002790
    27  H    0.000067  -0.000000  -0.000000   0.000000  -0.000021  -0.000000
              25         26         27
     1  O    0.000000   0.000000   0.005807
     2  N   -0.000000  -0.000000   0.000334
     3  O    0.000000   0.000000   0.000032
     4  C    0.000017   0.000006  -0.063989
     5  C   -0.000001  -0.000003   0.001978
     6  N   -0.000071  -0.000061   0.000069
     7  C    0.004958  -0.004430  -0.000394
     8  H   -0.000003   0.001638   0.000009
     9  C   -0.000364   0.001013  -0.000054
    10  C    0.004096  -0.002386   0.000005
    11  C   -0.033999  -0.042266   0.000005
    12  C    0.395499   0.394740  -0.000020
    13  C   -0.034645  -0.044716   0.004805
    14  H   -0.002642  -0.000955  -0.000179
    15  N    0.000645   0.004175  -0.039019
    16  C   -0.000058  -0.000061   0.401243
    17  H   -0.000000   0.000000  -0.000062
    18  H    0.000002  -0.000001   0.000003
    19  H   -0.000027   0.000024   0.000067
    20  H    0.000011  -0.000036  -0.000000
    21  H   -0.000086  -0.000074  -0.000000
    22  H   -0.000082   0.002466   0.000000
    23  H   -0.002114   0.003830  -0.000021
    24  H   -0.002373  -0.002790  -0.000000
    25  H    0.511598  -0.023170  -0.000009
    26  H   -0.023170   0.560499   0.000001
    27  H   -0.000009   0.000001   0.444158
 Mulliken charges:
               1
     1  O   -0.455611
     2  N    0.503449
     3  O   -0.483376
     4  C   -0.008986
     5  C    0.190875
     6  N   -0.802955
     7  C    0.070447
     8  H    0.176546
     9  C   -0.313513
    10  C   -0.320996
    11  C   -0.315355
    12  C   -0.311624
    13  C   -0.035877
    14  H    0.192169
    15  N   -0.494640
    16  C    0.121540
    17  H    0.287617
    18  H    0.399917
    19  H    0.190150
    20  H    0.153937
    21  H    0.172444
    22  H    0.149578
    23  H    0.190997
    24  H    0.162657
    25  H    0.182818
    26  H    0.152558
    27  H    0.245233
 Sum of Mulliken charges =  -0.00000
 Mulliken charges with hydrogens summed into heavy atoms:
               1
     1  O   -0.455611
     2  N    0.503449
     3  O   -0.483376
     4  C   -0.008986
     5  C    0.478493
     6  N   -0.403038
     7  C    0.246993
     9  C    0.030574
    10  C    0.001026
    11  C    0.038299
    12  C    0.023752
    13  C    0.156292
    15  N   -0.494640
    16  C    0.366773
 Electronic spatial extent (au):  <R**2>=           3130.5164
 Charge=              0.0000 electrons
 Dipole moment (field-independent basis, Debye):
    X=              5.2348    Y=              4.2765    Z=              0.7963  Tot=              6.8063
 Quadrupole moment (field-independent basis, Debye-Ang):
   XX=           -105.4839   YY=            -80.5802   ZZ=            -82.1143
   XY=             -1.5791   XZ=             -0.6186   YZ=             -0.4272
 Traceless Quadrupole moment (field-independent basis, Debye-Ang):
   XX=            -16.0911   YY=              8.8126   ZZ=              7.2785
   XY=             -1.5791   XZ=             -0.6186   YZ=             -0.4272
 Octapole moment (field-independent basis, Debye-Ang**2):
  XXX=            101.5814  YYY=             33.6379  ZZZ=             -3.8976  XYY=             -2.0584
  XXY=              9.8648  XXZ=              4.7346  XZZ=             -8.2867  YZZ=             -2.1856
  YYZ=              0.9838  XYZ=             -0.6553
 Hexadecapole moment (field-independent basis, Debye-Ang**3):
 XXXX=          -3570.3386 YYYY=           -610.7733 ZZZZ=           -308.8916 XXXY=            -30.9101
 XXXZ=             -2.1803 YYYX=            -12.4282 YYYZ=              1.2220 ZZZX=             10.8403
 ZZZY=              3.6939 XXYY=           -655.2856 XXZZ=           -548.6063 YYZZ=           -163.3956
 XXYZ=             -5.1460 YYXZ=              1.7035 ZZXY=              0.7920
 N-N= 9.173715887176D+02 E-N=-3.380750130085D+03  KE= 6.588533657596D+02
 Calling FoFJK, ICntrl=  10002127 FMM=F ISym2X=0 I1Cent= 0 IOpClX= 0 NMat=1 NMatS=1 NMatT=0.
 -------------------------------------------------------------------
 Center     Atomic                   Forces (Hartrees/Bohr)
 Number     Number              X              Y              Z
 -------------------------------------------------------------------
      1        8           0.001683532   -0.018400102   -0.007469360
      2        7           0.038300930    0.008872172    0.014432291
      3        8          -0.004501797    0.015683762    0.003080903
      4        6          -0.001294986    0.007660950    0.005385806
      5        6          -0.000296403   -0.013168458   -0.019673304
      6        7           0.018312296   -0.014055095    0.000291808
      7        6          -0.004369690    0.006152847    0.003572719
      8        1          -0.008880193   -0.002336588   -0.007487229
      9        6          -0.004416631   -0.000473554   -0.002002229
     10        6           0.002973332   -0.000659903    0.001059683
     11        6          -0.001425175   -0.004632481   -0.002470104
     12        6           0.001155630   -0.008656186   -0.002391167
     13        6           0.010772158   -0.002026260    0.004256591
     14        1           0.000179814    0.004741517   -0.009721217
     15        7          -0.001279614    0.003539562    0.001021127
     16        6          -0.021839282    0.008251235    0.001862049
     17        1           0.005709930   -0.004533065   -0.010818206
     18        1          -0.016920314   -0.001084662    0.011324665
     19        1           0.003169314    0.006114689    0.007569009
     20        1          -0.003201192   -0.007206715    0.002705902
     21        1          -0.004366388    0.002504665    0.009596902
     22        1          -0.003979885   -0.004152894   -0.007366051
     23        1           0.004066410    0.006273479    0.009133888
     24        1          -0.009415456    0.002548951   -0.002118741
     25        1          -0.000778476    0.010503110   -0.002528316
     26        1          -0.004822565   -0.004965265   -0.004318408
     27        1           0.005464703    0.003504288    0.003070990
 -------------------------------------------------------------------
 Cartesian Forces:  Max     0.038300930 RMS     0.008765745

 GradGradGradGradGradGradGradGradGradGradGradGradGradGradGradGradGradGrad
 Berny optimization.
 FormGI is forming the generalized inverse of G from B-inverse, IUseBI=4.
 Internal  Forces:  Max     0.036704284 RMS     0.006859149
 Search for a local minimum.
 Step number   1 out of a maximum of   20
 All quantities printed in internal units (Hartrees-Bohrs-Radians)
 Mixed Optimization -- RFO/linear search
 Second derivative matrix not updated -- first step.
 ITU=  0
     Eigenvalues ---    0.00231   0.00767   0.01093   0.01175   0.01361
     Eigenvalues ---    0.01514   0.01564   0.01713   0.01994   0.02084
     Eigenvalues ---    0.02680   0.03634   0.04498   0.04684   0.04838
     Eigenvalues ---    0.05084   0.05136   0.05303   0.05903   0.06263
     Eigenvalues ---    0.07204   0.07704   0.07735   0.07889   0.07991
     Eigenvalues ---    0.08053   0.08081   0.10460   0.11745   0.12256
     Eigenvalues ---    0.13367   0.15330   0.15820   0.15982   0.15999
     Eigenvalues ---    0.20122   0.21497   0.23139   0.24694   0.25000
     Eigenvalues ---    0.25000   0.25352   0.26138   0.26656   0.27983
     Eigenvalues ---    0.28091   0.28414   0.29625   0.31207   0.31455
     Eigenvalues ---    0.32050   0.32234   0.32288   0.32381   0.32387
     Eigenvalues ---    0.32408   0.32508   0.32524   0.32572   0.33109
     Eigenvalues ---    0.33387   0.33604   0.35275   0.43871   0.44168
     Eigenvalues ---    0.48884   0.66249   0.90410   0.912001000.00000
     Eigenvalues --- 1000.000001000.000001000.000001000.000001000.00000
     Eigenvalues --- 1000.000001000.000001000.000001000.000001000.00000
     Eigenvalues --- 1000.000001000.000001000.000001000.000001000.00000
     Eigenvalues --- 1000.000001000.000001000.000001000.000001000.00000
     Eigenvalues --- 1000.000001000.000001000.000001000.000001000.00000
     Eigenvalues --- 1000.000001000.000001000.000001000.000001000.00000
     Eigenvalues --- 1000.000001000.000001000.000001000.000001000.00000
     Eigenvalues --- 1000.000001000.000001000.000001000.000001000.00000
     Eigenvalues --- 1000.000001000.000001000.000001000.000001000.00000
     Eigenvalues --- 1000.000001000.000001000.000001000.000001000.00000
     Eigenvalues --- 1000.000001000.000001000.000001000.000001000.00000
     Eigenvalues --- 1000.000001000.000001000.000001000.000001000.00000
     Eigenvalues --- 1000.000001000.000001000.000001000.000001000.00000
     Eigenvalues --- 1000.000001000.000001000.000001000.000001000.00000
     Eigenvalues --- 1000.000001000.000001000.000001000.000001000.00000
     Eigenvalues --- 1000.000001000.000001000.000001000.000001000.00000
     Eigenvalues --- 1000.000001000.000001000.000001000.000001000.00000
     Eigenvalues --- 1000.000001000.000001000.000001000.000001000.00000
     Eigenvalues --- 1000.00000
 RFO step:  Lambda=-2.51581779D-02 EMin= 2.30549132D-03
 Linear search not attempted -- first point.
 Iteration  1 RMS(Cart)=  0.05644104 RMS(Int)=  0.00135326
 Iteration  2 RMS(Cart)=  0.00159233 RMS(Int)=  0.00030769
 Iteration  3 RMS(Cart)=  0.00000198 RMS(Int)=  0.00030768
 Iteration  4 RMS(Cart)=  0.00000000 RMS(Int)=  0.00030768
 Iteration  1 RMS(Cart)=  0.00004162 RMS(Int)=  0.00004197
 Iteration  2 RMS(Cart)=  0.00001914 RMS(Int)=  0.00004635
 Iteration  3 RMS(Cart)=  0.00001026 RMS(Int)=  0.00005121
 Iteration  4 RMS(Cart)=  0.00000670 RMS(Int)=  0.00005452
 Iteration  5 RMS(Cart)=  0.00000510 RMS(Int)=  0.00005688
 Iteration  6 RMS(Cart)=  0.00000421 RMS(Int)=  0.00005870
 Iteration  7 RMS(Cart)=  0.00000360 RMS(Int)=  0.00006020
 Iteration  8 RMS(Cart)=  0.00000312 RMS(Int)=  0.00006148
 Iteration  9 RMS(Cart)=  0.00000271 RMS(Int)=  0.00006259
 Iteration 10 RMS(Cart)=  0.00000236 RMS(Int)=  0.00006355
 Iteration 11 RMS(Cart)=  0.00000206 RMS(Int)=  0.00006440
 Iteration 12 RMS(Cart)=  0.00000179 RMS(Int)=  0.00006514
 Iteration 13 RMS(Cart)=  0.00000155 RMS(Int)=  0.00006578
 Iteration 14 RMS(Cart)=  0.00000135 RMS(Int)=  0.00006635
 Iteration 15 RMS(Cart)=  0.00000117 RMS(Int)=  0.00006684
 Iteration 16 RMS(Cart)=  0.00000101 RMS(Int)=  0.00006727
 Iteration 17 RMS(Cart)=  0.00000088 RMS(Int)=  0.00006764
 Variable       Old X    -DE/DX   Delta X   Delta X   Delta X     New X
                                 (Linear)    (Quad)   (Total)
    R1        2.32385   0.01827   0.00000   0.01949   0.01949   2.34334
    R2        2.32745   0.01529   0.00000   0.01645   0.01645   2.34390
    R3        2.88718  -0.03670   0.00000  -0.11420  -0.11420   2.77298
    R4        2.64595  -0.03389   0.00000  -0.07314  -0.07293   2.57301
    R5        2.81496  -0.02355   0.00000  -0.06809  -0.06798   2.74698
    R6        2.59078  -0.02124   0.00000  -0.04102  -0.04089   2.54988
    R7        2.08377  -0.01022   0.00000  -0.02847  -0.02847   2.05530
    R8        2.82481  -0.01988   0.00000  -0.05392  -0.05386   2.77094
    R9        1.93310  -0.00731   0.00000  -0.01577  -0.01577   1.91733
   R10        2.11852  -0.01129   0.00000  -0.03323  -0.03323   2.08530
   R11        2.92654  -0.01326   0.00000  -0.04532  -0.04537   2.88117
   R12        2.90417  -0.00608   0.00000  -0.01270  -0.01264   2.89153
   R13        2.91106  -0.00488   0.00000  -0.01416  -0.01418   2.89687
   R14        2.09925  -0.01003   0.00000  -0.02863  -0.02863   2.07062
   R15        2.09895  -0.00792   0.00000  -0.02259  -0.02259   2.07636
   R16        2.90429  -0.00190   0.00000  -0.00701  -0.00701   2.89728
   R17        2.10141  -0.01059   0.00000  -0.03034  -0.03034   2.07108
   R18        2.10320  -0.00906   0.00000  -0.02602  -0.02602   2.07718
   R19        2.91809  -0.00908   0.00000  -0.02831  -0.02826   2.88983
   R20        2.10418  -0.01166   0.00000  -0.03356  -0.03356   2.07062
   R21        2.10104  -0.00996   0.00000  -0.02851  -0.02851   2.07253
   R22        2.93558  -0.01023   0.00000  -0.03608  -0.03606   2.89951
   R23        2.10152  -0.01067   0.00000  -0.03059  -0.03059   2.07093
   R24        2.09809  -0.00794   0.00000  -0.02264  -0.02264   2.07545
   R25        2.10752  -0.00869   0.00000  -0.02514  -0.02514   2.08237
   R26        2.76876  -0.00470   0.00000  -0.01062  -0.01098   2.75778
   R27        2.44532  -0.00533   0.00000  -0.00796  -0.00815   2.43717
   R28        2.08004  -0.00662   0.00000  -0.01834  -0.01834   2.06171
    A1        2.15811   0.01079   0.00000   0.03941   0.03883   2.19693
    A2        2.05393  -0.00664   0.00000  -0.02395  -0.02453   2.02939
    A3        2.07108  -0.00411   0.00000  -0.01476  -0.01535   2.05573
    A4        2.03223  -0.00710   0.00000  -0.02470  -0.02510   2.00713
    A5        2.03598  -0.00226   0.00000  -0.00987  -0.01060   2.02538
    A6        2.20857   0.00943   0.00000   0.02813   0.02759   2.23615
    A7        2.19011   0.00728   0.00000   0.02702   0.02712   2.21723
    A8        2.06803  -0.00417   0.00000  -0.01672  -0.01690   2.05113
    A9        2.02376  -0.00302   0.00000  -0.01126  -0.01136   2.01241
   A10        2.23777  -0.00504   0.00000  -0.01585  -0.01625   2.22151
   A11        2.12949  -0.01268   0.00000  -0.07190  -0.07213   2.05736
   A12        1.88987   0.01781   0.00000   0.09444   0.09474   1.98461
   A13        1.83760  -0.00019   0.00000  -0.01178  -0.01156   1.82604
   A14        2.00856  -0.00230   0.00000  -0.01108  -0.01092   1.99764
   A15        1.96319   0.00083   0.00000   0.00028  -0.00045   1.96274
   A16        1.85117   0.00258   0.00000   0.02315   0.02297   1.87414
   A17        1.84910   0.00022   0.00000   0.01165   0.01157   1.86066
   A18        1.94003  -0.00075   0.00000  -0.00845  -0.00809   1.93194
   A19        1.91040   0.00003   0.00000  -0.00492  -0.00510   1.90530
   A20        1.92240  -0.00077   0.00000  -0.01180  -0.01175   1.91065
   A21        1.92306  -0.00150   0.00000  -0.00736  -0.00734   1.91573
   A22        1.91898  -0.00031   0.00000   0.00630   0.00626   1.92524
   A23        1.90417   0.00301   0.00000   0.02329   0.02335   1.92751
   A24        1.88462  -0.00042   0.00000  -0.00510  -0.00535   1.87927
   A25        1.94019  -0.00090   0.00000   0.00530   0.00515   1.94535
   A26        1.91906  -0.00069   0.00000  -0.00646  -0.00647   1.91259
   A27        1.90503   0.00034   0.00000  -0.00281  -0.00285   1.90218
   A28        1.91616   0.00092   0.00000   0.00706   0.00711   1.92327
   A29        1.89852   0.00156   0.00000   0.01066   0.01071   1.90922
   A30        1.88384  -0.00123   0.00000  -0.01421  -0.01430   1.86954
   A31        1.94501   0.00020   0.00000   0.00454   0.00472   1.94973
   A32        1.90210   0.00091   0.00000   0.00572   0.00564   1.90774
   A33        1.91767   0.00034   0.00000   0.00545   0.00542   1.92309
   A34        1.90587  -0.00092   0.00000  -0.01305  -0.01311   1.89276
   A35        1.91553  -0.00040   0.00000  -0.00028  -0.00039   1.91514
   A36        1.87627  -0.00015   0.00000  -0.00273  -0.00276   1.87352
   A37        1.95063  -0.00269   0.00000  -0.01807  -0.01810   1.93253
   A38        1.90556   0.00265   0.00000   0.01719   0.01706   1.92262
   A39        1.90960   0.00112   0.00000   0.01273   0.01270   1.92230
   A40        1.90593  -0.00008   0.00000  -0.00231  -0.00214   1.90379
   A41        1.91040  -0.00009   0.00000  -0.00494  -0.00490   1.90550
   A42        1.88039  -0.00084   0.00000  -0.00411  -0.00429   1.87609
   A43        1.84602   0.00394   0.00000   0.02365   0.02367   1.86969
   A44        1.94316  -0.00437   0.00000  -0.03403  -0.03440   1.90876
   A45        1.97814   0.00167   0.00000   0.01251   0.01257   1.99071
   A46        1.87731   0.00248   0.00000   0.03188   0.03222   1.90953
   A47        1.89195  -0.00319   0.00000  -0.02739  -0.02737   1.86459
   A48        1.92233  -0.00029   0.00000  -0.00412  -0.00397   1.91836
   A49        2.07592  -0.00505   0.00000  -0.01081  -0.01103   2.06489
   A50        2.24722  -0.00530   0.00000  -0.02240  -0.02224   2.22497
   A51        1.98421   0.00542   0.00000   0.02612   0.02594   2.01015
   A52        2.05164  -0.00010   0.00000  -0.00340  -0.00358   2.04805
    D1       -3.11080  -0.00208   0.00000  -0.05472  -0.05385   3.11853
    D2        0.14414  -0.00335   0.00000   0.00000   0.00000   0.14414
    D3        0.01843   0.00155   0.00000   0.00605   0.00647   0.02490
    D4       -3.00981   0.00028   0.00000   0.06076   0.06031  -2.94949
    D5       -2.92826  -0.00575   0.00000   0.00000  -0.00000  -2.92826
    D6        0.15643  -0.00383   0.00000  -0.02160  -0.02170   0.13473
    D7        0.08717  -0.00536   0.00000  -0.06423  -0.06507   0.02210
    D8       -3.11132  -0.00345   0.00000  -0.08583  -0.08677   3.08510
    D9       -2.80433   0.00138   0.00000  -0.04166  -0.04310  -2.84743
   D10        0.31966   0.00215   0.00000  -0.01975  -0.02055   0.29911
   D11        0.46366   0.00130   0.00000   0.02363   0.02342   0.48708
   D12       -2.69553   0.00207   0.00000   0.04553   0.04598  -2.64956
   D13       -0.39765   0.00413   0.00000   0.06363   0.06348  -0.33417
   D14        2.47112   0.00707   0.00000   0.11104   0.10979   2.58091
   D15        2.79956   0.00230   0.00000   0.08494   0.08496   2.88453
   D16       -0.61485   0.00524   0.00000   0.13235   0.13127  -0.48358
   D17       -2.33091  -0.00170   0.00000  -0.03372  -0.03308  -2.36399
   D18        1.92068  -0.00351   0.00000  -0.04843  -0.04783   1.87285
   D19       -0.32520  -0.00114   0.00000  -0.02660  -0.02629  -0.35149
   D20        1.05369  -0.00088   0.00000  -0.05685  -0.05753   0.99616
   D21       -0.97791  -0.00269   0.00000  -0.07156  -0.07228  -1.05018
   D22        3.05940  -0.00032   0.00000  -0.04973  -0.05074   3.00866
   D23        2.94693   0.00283   0.00000   0.02482   0.02490   2.97183
   D24       -1.22440   0.00197   0.00000   0.02202   0.02206  -1.20233
   D25        0.85297   0.00004   0.00000   0.00377   0.00390   0.85686
   D26        0.92308   0.00262   0.00000   0.03012   0.03014   0.95322
   D27        3.03494   0.00176   0.00000   0.02732   0.02730   3.06224
   D28       -1.17088  -0.00017   0.00000   0.00907   0.00914  -1.16174
   D29       -1.07893   0.00129   0.00000   0.00763   0.00756  -1.07137
   D30        1.03293   0.00043   0.00000   0.00482   0.00473   1.03765
   D31        3.11029  -0.00150   0.00000  -0.01343  -0.01344   3.09685
   D32       -2.90341  -0.00219   0.00000  -0.01127  -0.01097  -2.91438
   D33       -0.86932   0.00080   0.00000   0.02292   0.02280  -0.84652
   D34        1.30937  -0.00177   0.00000   0.00000   0.00001   1.30938
   D35       -0.90467  -0.00188   0.00000  -0.01837  -0.01824  -0.92291
   D36        1.12942   0.00112   0.00000   0.01582   0.01553   1.14495
   D37       -2.97508  -0.00145   0.00000  -0.00710  -0.00726  -2.98234
   D38        1.09863   0.00092   0.00000   0.01128   0.01140   1.11003
   D39        3.13272   0.00392   0.00000   0.04547   0.04517  -3.10529
   D40       -0.97177   0.00135   0.00000   0.02255   0.02238  -0.94939
   D41        0.95666   0.00038   0.00000   0.00000   0.00001   0.95667
   D42        3.08227   0.00047   0.00000   0.00805   0.00800   3.09027
   D43       -1.13755  -0.00122   0.00000  -0.01472  -0.01470  -1.15225
   D44       -1.15726   0.00151   0.00000   0.01375   0.01384  -1.14343
   D45        0.96835   0.00161   0.00000   0.02181   0.02184   0.99018
   D46        3.03171  -0.00008   0.00000  -0.00097  -0.00086   3.03085
   D47        3.06216   0.00041   0.00000   0.00231   0.00228   3.06444
   D48       -1.09541   0.00050   0.00000   0.01037   0.01028  -1.08513
   D49        0.96795  -0.00119   0.00000  -0.01241  -0.01242   0.95553
   D50       -0.92192  -0.00089   0.00000   0.00000   0.00000  -0.92192
   D51        1.18254  -0.00130   0.00000  -0.00963  -0.00964   1.17290
   D52       -3.04900  -0.00075   0.00000  -0.00643  -0.00647  -3.05547
   D53       -3.04922  -0.00005   0.00000  -0.00017  -0.00014  -3.04936
   D54       -0.94475  -0.00046   0.00000  -0.00979  -0.00979  -0.95454
   D55        1.10689   0.00009   0.00000  -0.00660  -0.00662   1.10027
   D56        1.17615  -0.00002   0.00000   0.00669   0.00672   1.18286
   D57       -3.00257  -0.00043   0.00000  -0.00294  -0.00293  -3.00550
   D58       -0.95093   0.00012   0.00000   0.00026   0.00024  -0.95069
   D59        0.98638  -0.00041   0.00000  -0.01210  -0.01217   0.97421
   D60        3.09680  -0.00046   0.00000  -0.01507  -0.01522   3.08158
   D61       -1.13241   0.00070   0.00000  -0.00270  -0.00268  -1.13509
   D62       -1.11587  -0.00108   0.00000  -0.01351  -0.01352  -1.12939
   D63        0.99455  -0.00113   0.00000  -0.01647  -0.01657   0.97798
   D64        3.04853   0.00004   0.00000  -0.00410  -0.00403   3.04450
   D65        3.11469  -0.00012   0.00000  -0.00237  -0.00238   3.11232
   D66       -1.05807  -0.00017   0.00000  -0.00533  -0.00543  -1.06350
   D67        0.99591   0.00099   0.00000   0.00704   0.00711   1.00302
   D68       -1.04717  -0.00015   0.00000   0.00008   0.00024  -1.04693
   D69       -3.12536   0.00164   0.00000   0.01142   0.01107  -3.11429
   D70        1.07962   0.00235   0.00000   0.01354   0.01339   1.09301
   D71        3.12581  -0.00168   0.00000  -0.00829  -0.00807   3.11775
   D72        1.04762   0.00011   0.00000   0.00305   0.00276   1.05038
   D73       -1.03059   0.00081   0.00000   0.00517   0.00509  -1.02550
   D74        1.07116  -0.00056   0.00000   0.00089   0.00115   1.07230
   D75       -1.00703   0.00123   0.00000   0.01222   0.01198  -0.99506
   D76       -3.08524   0.00193   0.00000   0.01435   0.01430  -3.07094
   D77       -1.17216   0.00230   0.00000   0.00000   0.00001  -1.17215
   D78        3.06733  -0.00150   0.00000  -0.01885  -0.01864   3.04869
   D79        1.01773  -0.00246   0.00000  -0.03892  -0.03918   0.97855
   D80        0.08116   0.00331   0.00000   0.00919   0.00921   0.09038
   D81       -3.04225   0.00247   0.00000  -0.01367  -0.01402  -3.05626
         Item               Value     Threshold  Converged?
 Maximum Force            0.036704     0.000450     NO 
 RMS     Force            0.006931     0.000300     NO 
 Maximum Displacement     0.294526     0.001800     NO 
 RMS     Displacement     0.057200     0.001200     NO 
 Predicted change in Energy=-1.460463D-02
 GradGradGradGradGradGradGradGradGradGradGradGradGradGradGradGradGradGrad

                          Input orientation:                          
 ---------------------------------------------------------------------
 Center     Atomic      Atomic             Coordinates (Angstroms)
 Number     Number       Type             X           Y           Z
 ---------------------------------------------------------------------
      1          8           0       -3.502256   -1.369677   -0.426464
      2          7           0       -3.137492   -0.233173   -0.090302
      3          8           0       -3.878044    0.747040    0.080595
      4          6           0       -1.691215   -0.031173    0.053716
      5          6           0       -1.317990    1.232723    0.396011
      6          7           0       -0.070757    1.746983    0.370222
      7          6           0        1.194956    1.006907    0.351468
      8          1           0        1.833016    1.527522    1.085996
      9          6           0        1.923933    1.036953   -0.987277
     10          6           0        3.326737    0.444812   -0.809867
     11          6           0        3.269425   -0.959723   -0.197808
     12          6           0        2.450092   -0.981215    1.093233
     13          6           0        1.038500   -0.431340    0.849731
     14          1           0        0.477244   -0.430469    1.798031
     15          7           0        0.395758   -1.325987   -0.107456
     16          6           0       -0.846197   -1.126665   -0.392282
     17          1           0       -2.105567    1.936205    0.656292
     18          1           0        0.030968    2.734580    0.161104
     19          1           0        1.357187    0.457834   -1.724860
     20          1           0        1.987440    2.071257   -1.352599
     21          1           0        3.838004    0.414715   -1.778806
     22          1           0        3.913235    1.104631   -0.154967
     23          1           0        2.806650   -1.648218   -0.913651
     24          1           0        4.283331   -1.327565    0.000979
     25          1           0        2.374520   -2.005470    1.475547
     26          1           0        2.944694   -0.376393    1.865102
     27          1           0       -1.333182   -1.852073   -1.045678
 ---------------------------------------------------------------------
                    Distance matrix (angstroms):
                    1          2          3          4          5
     1  O    0.000000
     2  N    1.240040   0.000000
     3  O    2.208805   1.240339   0.000000
     4  C    2.302614   1.467400   2.321327   0.000000
     5  C    3.495707   2.386617   2.624738   1.361579   0.000000
     6  N    4.703559   3.679398   3.947050   2.426500   1.349341
     7  C    5.321384   4.528031   5.086868   3.081599   2.523465
     8  H    6.256710   5.402747   5.851170   3.989404   3.239109
     9  C    5.962374   5.294885   5.906550   3.910736   3.530139
    10  C    7.076335   6.539396   7.265888   5.113921   4.862966
    11  C    6.787930   6.448877   7.353697   5.053060   5.118966
    12  C    6.155552   5.760332   6.637590   4.374197   4.425616
    13  C    4.809117   4.285072   5.113957   2.871431   2.920276
    14  H    4.654772   4.083019   4.827488   2.811456   2.820413
    15  N    3.911289   3.698431   4.753755   2.461296   3.120482
    16  C    2.667372   2.477813   3.595342   1.453641   2.531937
    17  H    3.748594   2.515645   2.210704   2.098896   1.087617
    18  H    5.447370   4.348552   4.386020   3.259883   2.032350
    19  H    5.351617   4.832329   5.545353   3.563034   3.500731
    20  H    6.544808   5.759229   6.181544   4.464352   3.832316
    21  H    7.674132   7.206133   7.943879   5.842022   5.655373
    22  H    7.822111   7.176814   7.803037   5.722191   5.261720
    23  H    6.333816   6.165475   7.170141   4.876620   5.198816
    24  H    7.797425   7.501643   8.421304   6.113805   6.171379
    25  H    6.209539   5.997934   6.972572   4.738107   5.028511
    26  H    6.913830   6.390392   7.141171   4.989183   4.787270
    27  H    2.306732   2.605593   3.807913   2.156973   3.405094
                    6          7          8          9         10
     6  N    0.000000
     7  C    1.466320   0.000000
     8  H    2.045690   1.103491   0.000000
     9  C    2.515101   1.524647   2.132459   0.000000
    10  C    3.825079   2.491815   2.645328   1.532959   0.000000
    11  C    4.336557   2.910800   3.146078   2.533836   1.533173
    12  C    3.784243   2.465403   2.583524   2.945907   2.534531
    13  C    2.491079   1.530131   2.127021   2.512862   2.959382
    14  H    2.660872   2.161876   2.485728   3.464705   3.960665
    15  N    3.144672   2.508331   3.410653   2.948371   3.495676
    16  C    3.072552   3.044930   4.050703   3.564952   4.478537
    17  H    2.063515   3.442378   3.982977   4.443742   5.820980
    18  H    1.014606   2.091879   2.357921   2.789988   4.128912
    19  H    2.844345   2.153819   3.044923   1.095723   2.171753
    20  H    2.703597   2.159795   2.503246   1.098761   2.175683
    21  H    4.655285   3.445934   3.669524   2.162722   1.095967
    22  H    4.069476   2.766779   2.458889   2.157462   1.099197
    23  H    4.631975   3.353770   3.877096   2.827500   2.159175
    24  H    5.342964   3.887243   3.915715   3.483440   2.171143
    25  H    4.613245   3.424813   3.595415   3.940161   3.483349
    26  H    3.979489   2.695587   2.338317   3.342987   2.824145
    27  H    4.068378   4.064144   5.098089   4.354157   5.200590
                   11         12         13         14         15
    11  C    0.000000
    12  C    1.529233   0.000000
    13  C    2.520625   1.534356   0.000000
    14  H    3.472716   2.166147   1.101945   0.000000
    15  N    2.898322   2.404331   1.459355   2.107006   0.000000
    16  C    4.123594   3.618484   2.361811   2.652104   1.289693
    17  H    6.164935   5.427365   3.940539   3.684512   4.181128
    18  H    4.925880   4.530801   3.392989   3.591131   4.085755
    19  H    2.828075   3.347678   2.742391   3.738200   2.592751
    20  H    3.487673   3.938746   3.466084   4.297184   3.952859
    21  H    2.170695   3.481886   3.932206   4.980242   4.203869
    22  H    2.162842   2.837172   3.410679   4.239902   4.275840
    23  H    1.095727   2.144670   2.777888   3.776542   2.562456
    24  H    1.096736   2.161884   3.471675   4.303542   3.889085
    25  H    2.166693   1.095889   2.157425   2.486822   2.623566
    26  H    2.168253   1.098282   2.160457   2.468954   3.360028
    27  H    4.764363   4.432436   3.352004   3.658590   2.036237
                   16         17         18         19         20
    16  C    0.000000
    17  H    3.473715   0.000000
    18  H    3.998108   2.333966   0.000000
    19  H    3.023458   4.454899   3.240260   0.000000
    20  H    4.379316   4.561424   2.561069   1.771703   0.000000
    21  H    5.122503   6.600809   4.861949   2.481779   2.519995
    22  H    5.261862   6.129897   4.222396   3.068598   2.465233
    23  H    3.726544   6.280341   5.297964   2.682248   3.833832
    24  H    5.148502   7.204141   5.882962   3.837771   4.319175
    25  H    3.825455   6.023219   5.448676   4.164785   4.976740
    26  H    4.475438   5.684582   4.590376   4.012971   4.154626
    27  H    1.091008   4.224255   4.935039   3.610407   5.149101
                   21         22         23         24         25
    21  H    0.000000
    22  H    1.765927   0.000000
    23  H    2.463306   3.062403   0.000000
    24  H    2.530116   2.465130   1.766339   0.000000
    25  H    4.311600   3.833921   2.454106   2.505487   0.000000
    26  H    3.834308   2.685551   3.059095   2.484277   1.769391
    27  H    5.693590   6.087722   4.146950   5.737231   4.486331
                   26         27
    26  H    0.000000
    27  H    5.380566   0.000000
 Symmetry turned off by external request.
 Stoichiometry    C9H13N3O2
 Framework group  C1[X(C9H13N3O2)]
 Deg. of freedom    75
 Full point group                 C1      NOp   1
 Rotational constants (GHZ):           1.6912330           0.4188938           0.3723578
 Standard basis: 6-31G(d) (6D, 7F)
   236 basis functions,   444 primitive gaussians,   236 cartesian basis functions
    52 alpha electrons       52 beta electrons
       nuclear repulsion energy       931.8536258584 Hartrees.
 NAtoms=   27 NActive=   27 NUniq=   27 SFac= 1.00D+00 NAtFMM=   60 NAOKFM=F Big=F
 Integral buffers will be    131072 words long.
 Raffenetti 1 integral format.
 Two-electron integral symmetry is turned off.
 One-electron integrals computed using PRISM.
 NBasis=   236 RedAO= T EigKep=  1.06D-03  NBF=   236
 NBsUse=   236 1.00D-06 EigRej= -1.00D+00 NBFU=   236
 Initial guess from the checkpoint file:  "/home/alexey/tmp/Gau-1392839.chk"
 B after Tr=     0.055237    0.004228   -0.001293
         Rot=    0.999999    0.000101    0.001241    0.001007 Ang=   0.18 deg.
 ExpMin= 1.61D-01 ExpMax= 5.48D+03 ExpMxC= 8.25D+02 IAcc=3 IRadAn=         5 AccDes= 0.00D+00
 Harris functional with IExCor=  205 and IRadAn=       5 diagonalized for initial guess.
 HarFok:  IExCor=  205 AccDes= 0.00D+00 IRadAn=         5 IDoV= 1 UseB2=F ITyADJ=14
 ICtDFT=  3500011 ScaDFX=  1.000000  1.000000  1.000000  1.000000
 FoFCou: FMM=F IPFlag=           0 FMFlag=      100000 FMFlg1=           0
         NFxFlg=           0 DoJE=T BraDBF=F KetDBF=T FulRan=T
         wScrn=  0.000000 ICntrl=       500 IOpCl=  0 I1Cent=   200000004 NGrid=           0
         NMat0=    1 NMatS0=      1 NMatT0=    0 NMatD0=    1 NMtDS0=    0 NMtDT0=    0
 Symmetry not used in FoFCou.
 Keep R1 ints in memory in canonical form, NReq=397720213.
 Requested convergence on RMS density matrix=1.00D-08 within 128 cycles.
 Requested convergence on MAX density matrix=1.00D-06.
 Requested convergence on             energy=1.00D-06.
 No special actions if energy rises.
 SCF Done:  E(RHF) =  -661.293372884     A.U. after   15 cycles
            NFock= 15  Conv=0.39D-08     -V/T= 2.0025
 ExpMin= 1.61D-01 ExpMax= 5.48D+03 ExpMxC= 8.25D+02 IAcc=3 IRadAn=         5 AccDes= 0.00D+00
 HarFok:  IExCor=  205 AccDes= 0.00D+00 IRadAn=         5 IDoV=-2 UseB2=F ITyADJ=14
 ICtDFT= 12500011 ScaDFX=  1.000000  1.000000  1.000000  1.000000
 Range of M.O.s used for correlation:    15   236
 NBasis=   236 NAE=    52 NBE=    52 NFC=    14 NFV=     0
 NROrb=    222 NOA=    38 NOB=    38 NVA=   184 NVB=   184
 Fully direct method using O(ONN) memory.
 JobTyp=1 Pass  1:  I=  15 to  52 NPSUse=  4 ParTrn=T ParDer=T DoDerP=T.
 Spin components of T(2) and E(2):
     alpha-alpha T2 =       0.9131928079D-01 E2=     -0.2723988322D+00
     alpha-beta  T2 =       0.4917600766D+00 E2=     -0.1488413317D+01
     beta-beta   T2 =       0.9131928079D-01 E2=     -0.2723988322D+00
 ANorm=    0.1293985563D+01
 E2 =    -0.2033210982D+01 EUMP2 =    -0.66332658386626D+03
          IDoAtm=111111111111111111111111111
          Differentiating once with respect to electric field.
                with respect to dipole field.
          Differentiating once with respect to nuclear coordinates.
 Keep R1 ints in memory in canonical form, NReq=397723379.
          There are     1 degrees of freedom in the 1st order CPHF.  IDoFFX=0 NUNeed=     1.
 LinEq1:  Iter=  0 NonCon=     1 RMS=4.58D-03 Max=9.89D-02 NDo=     1
 AX will form     1 AO Fock derivatives at one time.
 LinEq1:  Iter=  1 NonCon=     1 RMS=1.54D-03 Max=3.22D-02 NDo=     1
 LinEq1:  Iter=  2 NonCon=     1 RMS=6.45D-04 Max=1.61D-02 NDo=     1
[...]
    19  H    2.982305   4.332786   3.547323   0.000000
    20  H    4.366725   4.478374   2.928292   1.768471   0.000000
    21  H    5.089647   6.531125   5.114724   2.499016   2.521641
    22  H    5.243595   6.104841   4.324400   3.070244   2.461396
    23  H    3.693095   6.240111   5.428786   2.705629   3.843831
    24  H    5.132577   7.196909   5.935679   3.850587   4.317521
    25  H    3.825462   6.064721   5.346413   4.173256   4.986274
    26  H    4.496213   5.756546   4.458932   4.037925   4.183920
    27  H    1.089236   4.218796   5.074833   3.565798   5.131448
                   21         22         23         24         25
    21  H    0.000000
    22  H    1.758801   0.000000
    23  H    2.469060   3.062223   0.000000
    24  H    2.517087   2.459700   1.764603   0.000000
    25  H    4.312066   3.840344   2.443891   2.519780   0.000000
    26  H    3.847474   2.705796   3.060406   2.491408   1.767918
    27  H    5.637781   6.049703   4.083616   5.690050   4.459696
                   26         27
    26  H    0.000000
    27  H    5.379094   0.000000
 Symmetry turned off by external request.
 Stoichiometry    C9H13N3O2
 Framework group  C1[X(C9H13N3O2)]
 Deg. of freedom    75
 Full point group                 C1      NOp   1
 Rotational constants (GHZ):           1.6760508           0.4183347           0.3732696

 **********************************************************************

            Population analysis using the SCF Density.

 **********************************************************************

 Alpha  occ. eigenvalues --  -20.59290 -20.58942 -15.84794 -15.64203 -15.56051
 Alpha  occ. eigenvalues --  -11.35059 -11.29625 -11.29513 -11.28686 -11.27156
 Alpha  occ. eigenvalues --  -11.23664 -11.23176 -11.22706 -11.22077  -1.57177
 Alpha  occ. eigenvalues --   -1.36760  -1.30995  -1.23052  -1.14701  -1.09797
 Alpha  occ. eigenvalues --   -1.02799  -1.01264  -0.94465  -0.89682  -0.85517
 Alpha  occ. eigenvalues --   -0.82452  -0.78624  -0.77394  -0.75201  -0.72063
 Alpha  occ. eigenvalues --   -0.69755  -0.69509  -0.67823  -0.64830  -0.63786
 Alpha  occ. eigenvalues --   -0.62312  -0.60238  -0.57676  -0.57012  -0.55098
 Alpha  occ. eigenvalues --   -0.54552  -0.50735  -0.50120  -0.48706  -0.48080
 Alpha  occ. eigenvalues --   -0.47372  -0.46201  -0.46004  -0.43726  -0.41735
 Alpha  occ. eigenvalues --   -0.39813  -0.33842
 Alpha virt. eigenvalues --    0.07378   0.11702   0.17252   0.21913   0.24237
 Alpha virt. eigenvalues --    0.25769   0.26935   0.28459   0.29080   0.29687
 Alpha virt. eigenvalues --    0.30672   0.31880   0.32053   0.32753   0.33965
 Alpha virt. eigenvalues --    0.34433   0.35794   0.37316   0.38701   0.40320
 Alpha virt. eigenvalues --    0.41327   0.42605   0.45013   0.46180   0.46662
 Alpha virt. eigenvalues --    0.47173   0.49038   0.54061   0.57816   0.59463
 Alpha virt. eigenvalues --    0.63931   0.69615   0.70069   0.72888   0.74274
 Alpha virt. eigenvalues --    0.74938   0.75851   0.76569   0.78602   0.79398
 Alpha virt. eigenvalues --    0.81208   0.84921   0.85657   0.85892   0.88373
 Alpha virt. eigenvalues --    0.89639   0.90984   0.92347   0.92756   0.94366
 Alpha virt. eigenvalues --    0.95819   0.98042   0.99668   1.01565   1.02349
 Alpha virt. eigenvalues --    1.03236   1.05573   1.07002   1.07686   1.09039
 Alpha virt. eigenvalues --    1.10132   1.11336   1.11930   1.12436   1.13922
 Alpha virt. eigenvalues --    1.14674   1.15005   1.15718   1.17011   1.18799
 Alpha virt. eigenvalues --    1.19266   1.21268   1.22516   1.23993   1.24222
 Alpha virt. eigenvalues --    1.25288   1.26012   1.26766   1.27960   1.29660
 Alpha virt. eigenvalues --    1.29904   1.33323   1.34837   1.37211   1.39702
 Alpha virt. eigenvalues --    1.41289   1.45891   1.47966   1.52549   1.53484
 Alpha virt. eigenvalues --    1.57132   1.58668   1.59794   1.63272   1.65704
 Alpha virt. eigenvalues --    1.68243   1.68717   1.73331   1.74454   1.76879
 Alpha virt. eigenvalues --    1.81416   1.84357   1.88053   1.90630   1.94025
 Alpha virt. eigenvalues --    1.96025   1.96994   1.99916   2.01704   2.02649
 Alpha virt. eigenvalues --    2.04871   2.05319   2.08724   2.09289   2.12389
 Alpha virt. eigenvalues --    2.12783   2.15325   2.17653   2.20163   2.22494
 Alpha virt. eigenvalues --    2.22823   2.24534   2.25657   2.28148   2.29672
 Alpha virt. eigenvalues --    2.31214   2.33882   2.34803   2.36758   2.38782
 Alpha virt. eigenvalues --    2.40031   2.41969   2.43868   2.45598   2.46916
 Alpha virt. eigenvalues --    2.50753   2.51798   2.53354   2.55677   2.61818
 Alpha virt. eigenvalues --    2.62207   2.64769   2.67925   2.69929   2.70533
 Alpha virt. eigenvalues --    2.72156   2.73151   2.76578   2.78625   2.84211
 Alpha virt. eigenvalues --    2.88389   2.88729   2.92888   2.93112   2.96088
 Alpha virt. eigenvalues --    2.99495   3.01459   3.04273   3.05744   3.07754
 Alpha virt. eigenvalues --    3.09675   3.14637   3.21371   3.25247   3.27043
 Alpha virt. eigenvalues --    3.33394   3.38004   3.38301   3.51808   3.65395
 Alpha virt. eigenvalues --    4.13660   4.27654   4.33418   4.39085   4.46948
 Alpha virt. eigenvalues --    4.56135   4.61734   4.62223   4.73594   4.79885
 Alpha virt. eigenvalues --    4.99249   5.00953   5.04724   5.11075
          Condensed to atoms (all electrons):
               1          2          3          4          5          6
     1  O    8.315324   0.305811  -0.082609  -0.083715   0.004519  -0.000015
     2  N    0.305811   5.723610   0.300092   0.263579  -0.052696   0.000986
     3  O   -0.082609   0.300092   8.353263  -0.091277   0.002232   0.000771
     4  C   -0.083715   0.263579  -0.091277   5.219942   0.554009  -0.049084
     5  C    0.004519  -0.052696   0.002232   0.554009   4.723626   0.321500
     6  N   -0.000015   0.000986   0.000771  -0.049084   0.321500   7.184265
     7  C    0.000003  -0.000142   0.000001   0.004853  -0.030796   0.168897
     8  H   -0.000000   0.000002  -0.000000  -0.000290   0.002805  -0.050395
     9  C   -0.000000  -0.000003  -0.000000   0.001120   0.000741  -0.060705
    10  C    0.000000   0.000000   0.000000  -0.000045  -0.000055   0.003674
    11  C   -0.000000  -0.000000  -0.000000  -0.000023   0.000024  -0.000197
    12  C    0.000000   0.000002  -0.000000  -0.000146  -0.000162   0.004003
    13  C   -0.000021  -0.000027  -0.000003  -0.012181  -0.000732  -0.047361
    14  H   -0.000003  -0.000100   0.000001   0.002499   0.006661  -0.007185
    15  N    0.000472   0.002249  -0.000016  -0.063171  -0.006544   0.001643
    16  C    0.000054  -0.026718   0.002688   0.330473  -0.052142  -0.002053
    17  H    0.000227  -0.007433   0.017491  -0.022986   0.374891  -0.034183
    18  H    0.000001  -0.000051   0.000010   0.001735  -0.031645   0.338301
    19  H    0.000001  -0.000006   0.000000  -0.001204   0.001040  -0.000291
    20  H    0.000000  -0.000000   0.000000  -0.000096   0.000171  -0.000464
    21  H   -0.000000   0.000000  -0.000000   0.000001   0.000001  -0.000074
    22  H   -0.000000   0.000000  -0.000000  -0.000000  -0.000003  -0.000118
    23  H    0.000000  -0.000000   0.000000   0.000040  -0.000000  -0.000030
    24  H    0.000000   0.000000   0.000000   0.000000  -0.000000   0.000006
    25  H    0.000000  -0.000000   0.000000   0.000021   0.000000  -0.000092
    26  H    0.000000  -0.000000   0.000000   0.000007  -0.000004  -0.000051
    27  H    0.006850  -0.000732   0.000041  -0.062351   0.002220   0.000020
               7          8          9         10         11         12
     1  O    0.000003  -0.000000  -0.000000   0.000000  -0.000000   0.000000
     2  N   -0.000142   0.000002  -0.000003   0.000000  -0.000000   0.000002
     3  O    0.000001  -0.000000  -0.000000   0.000000  -0.000000  -0.000000
     4  C    0.004853  -0.000290   0.001120  -0.000045  -0.000023  -0.000146
     5  C   -0.030796   0.002805   0.000741  -0.000055   0.000024  -0.000162
     6  N    0.168897  -0.050395  -0.060705   0.003674  -0.000197   0.004003
     7  C    5.023337   0.418170   0.348765  -0.054932  -0.008998  -0.061251
     8  H    0.418170   0.539414  -0.054985   0.000786  -0.000353  -0.002181
     9  C    0.348765  -0.054985   5.156758   0.324745  -0.050195  -0.005309
    10  C   -0.054932   0.000786   0.324745   5.120106   0.336893  -0.060955
    11  C   -0.008998  -0.000353  -0.050195   0.336893   5.119585   0.336310
    12  C   -0.061251  -0.002181  -0.005309  -0.060955   0.336310   5.118459
    13  C    0.340047  -0.038118  -0.060100  -0.000215  -0.050746   0.371700
    14  H   -0.047163  -0.000652   0.004428  -0.000401   0.004191  -0.036185
    15  N   -0.058969   0.003967  -0.014950   0.001585  -0.013165  -0.082207
    16  C   -0.002041   0.000014  -0.001373  -0.000026   0.000016   0.002594
    17  H    0.001661  -0.000052  -0.000069   0.000001   0.000000   0.000000
    18  H   -0.021662  -0.004739   0.001605  -0.000088   0.000003  -0.000119
    19  H   -0.036759   0.004362   0.390499  -0.032090  -0.002215   0.000692
    20  H   -0.041982  -0.002047   0.399530  -0.035395   0.003920  -0.000415
    21  H    0.004615  -0.000074  -0.036377   0.402539  -0.034880   0.004341
    22  H   -0.004857   0.003572  -0.046931   0.397662  -0.045514  -0.000995
    23  H    0.000587   0.000035  -0.001941  -0.038951   0.399165  -0.037787
    24  H   -0.000128  -0.000103   0.004373  -0.038406   0.402315  -0.038772
    25  H    0.005140  -0.000024  -0.000427   0.004186  -0.033363   0.398086
    26  H   -0.003926   0.001674   0.000970  -0.002218  -0.041475   0.396660
    27  H   -0.000395   0.000009  -0.000056   0.000007   0.000012  -0.000035
              13         14         15         16         17         18
     1  O   -0.000021  -0.000003   0.000472   0.000054   0.000227   0.000001
     2  N   -0.000027  -0.000100   0.002249  -0.026718  -0.007433  -0.000051
     3  O   -0.000003   0.000001  -0.000016   0.002688   0.017491   0.000010
     4  C   -0.012181   0.002499  -0.063171   0.330473  -0.022986   0.001735
     5  C   -0.000732   0.006661  -0.006544  -0.052142   0.374891  -0.031645
     6  N   -0.047361  -0.007185   0.001643  -0.002053  -0.034183   0.338301
     7  C    0.340047  -0.047163  -0.058969  -0.002041   0.001661  -0.021662
     8  H   -0.038118  -0.000652   0.003967   0.000014  -0.000052  -0.004739
     9  C   -0.060100   0.004428  -0.014950  -0.001373  -0.000069   0.001605
    10  C   -0.000215  -0.000401   0.001585  -0.000026   0.000001  -0.000088
    11  C   -0.050746   0.004191  -0.013165   0.000016   0.000000   0.000003
    12  C    0.371700  -0.036185  -0.082207   0.002594   0.000000  -0.000119
    13  C    5.040188   0.402272   0.246600  -0.070940   0.000003   0.002823
    14  H    0.402272   0.530752  -0.037750  -0.004359   0.000095  -0.000127
    15  N    0.246600  -0.037750   6.969049   0.581783  -0.000088  -0.000130
    16  C   -0.070940  -0.004359   0.581783   4.721419   0.002060  -0.000188
    17  H    0.000003   0.000095  -0.000088   0.002060   0.376878  -0.002946
    18  H    0.002823  -0.000127  -0.000130  -0.000188  -0.002946   0.312561
    19  H   -0.007524   0.000110   0.007758   0.002992   0.000013  -0.000148
    20  H    0.004300  -0.000065   0.000137  -0.000031   0.000003   0.000596
    21  H   -0.000428   0.000010  -0.000039   0.000004  -0.000000   0.000002
    22  H    0.000034  -0.000056   0.000019  -0.000002   0.000000   0.000000
    23  H   -0.007563   0.000002   0.008594   0.000108   0.000000   0.000000
    24  H    0.004712  -0.000056   0.000140   0.000007   0.000000  -0.000000
    25  H   -0.035421  -0.002805   0.000367  -0.000016  -0.000000   0.000002
    26  H   -0.047460  -0.001045   0.004912  -0.000062   0.000000   0.000000
    27  H    0.004955  -0.000180  -0.039883   0.403077  -0.000083   0.000001
              19         20         21         22         23         24
     1  O    0.000001   0.000000  -0.000000  -0.000000   0.000000   0.000000
     2  N   -0.000006  -0.000000   0.000000   0.000000  -0.000000   0.000000
     3  O    0.000000   0.000000  -0.000000  -0.000000   0.000000   0.000000
     4  C   -0.001204  -0.000096   0.000001  -0.000000   0.000040   0.000000
     5  C    0.001040   0.000171   0.000001  -0.000003  -0.000000  -0.000000
     6  N   -0.000291  -0.000464  -0.000074  -0.000118  -0.000030   0.000006
     7  C   -0.036759  -0.041982   0.004615  -0.004857   0.000587  -0.000128
     8  H    0.004362  -0.002047  -0.000074   0.003572   0.000035  -0.000103
     9  C    0.390499   0.399530  -0.036377  -0.046931  -0.001941   0.004373
    10  C   -0.032090  -0.035395   0.402539   0.397662  -0.038951  -0.038406
    11  C   -0.002215   0.003920  -0.034880  -0.045514   0.399165   0.402315
    12  C    0.000692  -0.000415   0.004341  -0.000995  -0.037787  -0.038772
    13  C   -0.007524   0.004300  -0.000428   0.000034  -0.007563   0.004712
    14  H    0.000110  -0.000065   0.000010  -0.000056   0.000002  -0.000056
    15  N    0.007758   0.000137  -0.000039   0.000019   0.008594   0.000140
    16  C    0.002992  -0.000031   0.000004  -0.000002   0.000108   0.000007
    17  H    0.000013   0.000003  -0.000000   0.000000   0.000000   0.000000
    18  H   -0.000148   0.000596   0.000002   0.000000   0.000000  -0.000000
    19  H    0.503484  -0.024502  -0.002775   0.003948   0.001501  -0.000066
    20  H   -0.024502   0.539397  -0.002665  -0.002997  -0.000046  -0.000082
    21  H   -0.002775  -0.002665   0.523729  -0.027392  -0.002897  -0.002238
    22  H    0.003948  -0.002997  -0.027392   0.571814   0.004137  -0.003665
    23  H    0.001501  -0.000046  -0.002897   0.004137   0.498575  -0.025473
    24  H   -0.000066  -0.000082  -0.002238  -0.003665  -0.025473   0.538377
    25  H   -0.000028   0.000012  -0.000087  -0.000080  -0.002326  -0.002279
    26  H    0.000019  -0.000030  -0.000081   0.002377   0.004068  -0.003049
    27  H    0.000080   0.000000  -0.000000   0.000000  -0.000036  -0.000000
              25         26         27
     1  O    0.000000   0.000000   0.006850
     2  N   -0.000000  -0.000000  -0.000732
     3  O    0.000000   0.000000   0.000041
     4  C    0.000021   0.000007  -0.062351
     5  C    0.000000  -0.000004   0.002220
     6  N   -0.000092  -0.000051   0.000020
     7  C    0.005140  -0.003926  -0.000395
     8  H   -0.000024   0.001674   0.000009
     9  C   -0.000427   0.000970  -0.000056
    10  C    0.004186  -0.002218   0.000007
    11  C   -0.033363  -0.041475   0.000012
    12  C    0.398086   0.396660  -0.000035
    13  C   -0.035421  -0.047460   0.004955
    14  H   -0.002805  -0.001045  -0.000180
    15  N    0.000367   0.004912  -0.039883
    16  C   -0.000016  -0.000062   0.403077
    17  H   -0.000000   0.000000  -0.000083
    18  H    0.000002   0.000000   0.000001
    19  H   -0.000028   0.000019   0.000080
    20  H    0.000012  -0.000030   0.000000
    21  H   -0.000087  -0.000081  -0.000000
    22  H   -0.000080   0.002377   0.000000
    23  H   -0.002326   0.004068  -0.000036
    24  H   -0.002279  -0.003049  -0.000000
    25  H    0.506577  -0.024169  -0.000012
    26  H   -0.024169   0.562904   0.000001
    27  H   -0.000012   0.000001   0.432684
 Mulliken charges:
               1
     1  O   -0.466899
     2  N    0.491575
     3  O   -0.502685
     4  C    0.008292
     5  C    0.180340
     6  N   -0.771770
     7  C    0.057925
     8  H    0.179204
     9  C   -0.300112
    10  C   -0.328405
    11  C   -0.321312
    12  C   -0.306327
    13  C   -0.038795
    14  H    0.187111
    15  N   -0.512361
    16  C    0.112665
    17  H    0.294516
    18  H    0.404203
    19  H    0.191113
    20  H    0.162752
    21  H    0.174766
    22  H    0.149049
    23  H    0.200242
    24  H    0.164390
    25  H    0.186737
    26  H    0.149977
    27  H    0.253807
 Sum of Mulliken charges =  -0.00000
 Mulliken charges with hydrogens summed into heavy atoms:
               1
     1  O   -0.466899
     2  N    0.491575
     3  O   -0.502685
     4  C    0.008292
     5  C    0.474856
     6  N   -0.367566
     7  C    0.237129
     9  C    0.053754
    10  C   -0.004590
    11  C    0.043320
    12  C    0.030387
    13  C    0.148317
    15  N   -0.512361
    16  C    0.366472
 Electronic spatial extent (au):  <R**2>=           3004.7442
 Charge=             -0.0000 electrons
 Dipole moment (field-independent basis, Debye):
    X=              5.3773    Y=              4.6783    Z=              1.6670  Tot=              7.3199
 Quadrupole moment (field-independent basis, Debye-Ang):
   XX=           -106.0060   YY=            -79.3053   ZZ=            -81.5516
   XY=             -1.3764   XZ=             -1.3757   YZ=              2.0794
 Traceless Quadrupole moment (field-independent basis, Debye-Ang):
   XX=            -17.0517   YY=              9.6490   ZZ=              7.4027
   XY=             -1.3764   XZ=             -1.3757   YZ=              2.0794
 Octapole moment (field-independent basis, Debye-Ang**2):
  XXX=             91.2778  YYY=             34.1005  ZZZ=              0.3080  XYY=             -5.1309
  XXY=              7.9957  XXZ=              9.8574  XZZ=             -8.9615  YZZ=              0.4121
  YYZ=              9.8975  XYZ=              0.9486
 Hexadecapole moment (field-independent basis, Debye-Ang**3):
 XXXX=          -3374.9985 YYYY=           -595.5874 ZZZZ=           -313.8044 XXXY=            -10.6716
 XXXZ=            -42.9493 YYYX=             -1.1401 YYYZ=             24.0893 ZZZX=            -10.7489
 ZZZY=              4.2276 XXYY=           -624.0220 XXZZ=           -528.4270 YYZZ=           -156.8366
 XXYZ=             -8.2361 YYXZ=             -4.9923 ZZXY=              4.2402
 N-N= 9.312526396927D+02 E-N=-3.409214545267D+03  KE= 6.596273480153D+02
 Unable to Open any file for archive entry.
 1\1\GINC-LOTUS\FOpt\RMP2-FC\6-31G(d)\C9H13N3O2\ALEXEY\01-Jul-2023\0\\#
 MP2/6-31G* SCF=Tight Opt=(ModRedun, MaxCycle=20 ) NoSymm\\MolName:\\0,
 1\O,-3.508192218,-1.3437023092,-0.5349813647\N,-3.1193056847,-0.213824
 7373,-0.1817109406\O,-3.8871268186,0.7507736139,0.0010195534\C,-1.6906
 377073,-0.0408802161,0.0400787487\C,-1.3024405213,1.2392502999,0.34509
 31893\N,-0.060322351,1.7481416158,0.3800569486\C,1.2068642916,1.025892
 5994,0.3518502737\H,1.8613066949,1.5677513459,1.0513680533\C,1.8947484
 069,1.0198134927,-1.0113638501\C,3.2965801131,0.4194224531,-0.85264781
 5\C,3.260074055,-0.9676272973,-0.2052707057\C,2.4788497213,-0.96255875
 57,1.1106502342\C,1.0652843979,-0.4159463987,0.8807249394\H,0.49686926
 85,-0.381900764,1.8241824421\N,0.4130774286,-1.3194089697,-0.059860289
 4\C,-0.837405595,-1.1458563408,-0.3486234684\H,-2.0969370723,1.9629208
 227,0.5050269062\H,-0.005794795,2.7193985492,0.6645595263\H,1.29501539
 3,0.4306317356,-1.7130318586\H,1.953503555,2.0425329192,-1.403748056\H
 ,3.7905319468,0.3684469347,-1.8297006134\H,3.9009658526,1.0968358841,-
 0.232629368\H,2.7777228254,-1.67601385,-0.8859566264\H,4.2823583748,-1
 .3249439628,-0.0335210698\H,2.400892152,-1.9793170282,1.5095829611\H,2
 .9949312531,-0.3525458431,1.864922722\H,-1.2984229674,-1.9042657933,-0
 .9800604721\\Version=ES64L-G16RevC.02\HF=-661.2990786\MP2=-663.3338348
 \RMSD=5.024e-09\RMSF=1.033e-03\Dipole=1.9658998,1.6549169,0.5880073\PG
 =C01 [X(C9H13N3O2)]\\@
 The archive entry for this job was punched.


 I DO NOT KNOW WHAT I MAY APPEAR TO THE WORLD; BUT TO MYSELF
 I SEEM TO HAVE BEEN ONLY LIKE A BOY PLAYING ON THE SEASHORE,
 AND DIVERTING MYSELF IN NOW AND THEN FINDING A SMOOTHER PEBBLE
 OR A PRETTIER SHELL THAN ORDINARY, WHILST THE GREAT OCEAN OF
 TRUTH LAY ALL UNDISCOVERED BEFORE ME.
                                          -- NEWTON (1642-1726)
 Job cpu time:       0 days  1 hours 13 minutes 49.2 seconds.
 Elapsed time:       0 days  0 hours 22 minutes  9.5 seconds.
 File lengths (MBytes):  RWF=     36 Int=      0 D2E=      0 Chk=      7 Scr=      1
 Normal termination of Gaussian 16 at Sat Jul  1 22:08:51 2023.
