 Entering Gaussian System, Link 0=g16
 Initial command:
 /home/alexey/programs//g16/l1.exe "/home/alexey/tmp/Gau-1396772.inp" -scrdir="/home/alexey/tmp/"
 Entering Link 1 = /home/alexey/programs//g16/l1.exe PID=   1396774.
  
 Copyright (c) 1988-2021, Gaussian, Inc.  All Rights Reserved.
  
 This is part of the Gaussian(R) 16 program.  It is based on
 the Gaussian(R) 09 system (copyright 2009, Gaussian, Inc.),
 the Gaussian(R) 03 system (copyright 2003, Gaussian, Inc.),
 the Gaussian(R) 98 system (copyright 1998, Gaussian, Inc.),
 the Gaussian(R) 94 system (copyright 1995, Gaussian, Inc.),
 the Gaussian 92(TM) system (copyright 1992, Gaussian, Inc.),
 the Gaussian 90(TM) system (copyright 1990, Gaussian, Inc.),
 the Gaussian 88(TM) system (copyright 1988, Gaussian, Inc.),
 the Gaussian 86(TM) system (copyright 1986, Carnegie Mellon
 University), and the Gaussian 82(TM) system (copyright 1983,
 Carnegie Mellon University). Gaussian is a federally registered
 trademark of Gaussian, Inc.
  
 This software contains proprietary and confidential information,
 including trade secrets, belonging to Gaussian, Inc.
  
 This software is provided under written license and may be
 used, copied, transmitted, or stored only in accord with that
 written license.
  
 The following legend is applicable only to US Government
 contracts under FAR:
  
                    RESTRICTED RIGHTS LEGEND
  
 Use, reproduction and disclosure by the US Government is
 subject to restrictions as set forth in subparagraphs (a)
 and (c) of the Commercial Computer Software - Restricted
 Rights clause in FAR 52.227-19.
  
 Gaussian, Inc.
 340 Quinnipiac St., Bldg. 40, Wallingford CT 06492
  
  
 ---------------------------------------------------------------
 Warning -- This program may not be used in any manner that
 competes with the business of Gaussian, Inc. or will provide
 assistance to any competitor of Gaussian, Inc.  The licensee
 of this program is prohibited from giving any competitor of
 Gaussian, Inc. access to this program.  By using this program,
 the user acknowledges that Gaussian, Inc. is engaged in the
 business of creating and licensing software in the field of
 computational chemistry and represents and warrants to the
 licensee that it is not a competitor of Gaussian, Inc. and that
 it will not use this program in any manner prohibited above.
 ---------------------------------------------------------------
  

 Cite this work as:
 Gaussian 16, Revision C.02,
 M. J. Frisch, G. W. Trucks, H. B. Schlegel, G. E. Scuseria, 
 M. A. Robb, J. R. Cheeseman, G. Scalmani, V. Barone, 
 G. A. Petersson, H. Nakatsuji, X. Li, M. Caricato, A. V. Marenich, 
 J. Bloino, B. G. Janesko, R. Gomperts, B. Mennucci, H. P. Hratchian, 
 J. V. Ortiz, A. F. Izmaylov, J. L. Sonnenberg, D. Williams-Young, 
 F. Ding, F. Lipparini, F. Egidi, J. Goings, B. Peng, A. Petrone, 
 T. Henderson, D. Ranasinghe, V. G. Zakrzewski, J. Gao, N. Rega, 
 G. Zheng, W. Liang, M. Hada, M. Ehara, K. Toyota, R. Fukuda, 
 J. Hasegawa, M. Ishida, T. Nakajima, Y. Honda, O. Kitao, H. Nakai, 
 T. Vreven, K. Throssell, J. A. Montgomery, Jr., J. E. Peralta, 
 F. Ogliaro, M. J. Bearpark, J. J. Heyd, E. N. Brothers, K. N. Kudin, 
 V. N. Staroverov, T. A. Keith, R. Kobayashi, J. Normand, 
 K. Raghavachari, A. P. Rendell, J. C. Burant, S. S. Iyengar, 
 J. Tomasi, M. Cossi, J. M. Millam, M. Klene, C. Adamo, R. Cammi, 
 J. W. Ochterski, R. L. Martin, K. Morokuma, O. Farkas, 
 J. B. Foresman, and D. J. Fox, Gaussian, Inc., Wallingford CT, 2019.
 
 ******************************************
 Gaussian 16:  ES64L-G16RevC.02  7-Dec-2021
                 1-Jul-2023 
 ******************************************
 %mem=8GB
 %NPROCS=4
 Will use up to    4 processors via shared memory.
 %NoSave
 ---------------------------------------------------------
 #MP2/6-31G* SCF=Tight Opt=(ModRedun, MaxCycle=20 ) NoSymm
 ---------------------------------------------------------
 1/6=20,18=120,19=15,38=1/1,3;
 2/9=110,12=2,15=1,17=6,18=5,40=1/2;
 3/5=1,6=6,7=1,11=9,25=1,30=1,71=1/1,2,3;
 4//1;
 5/5=2,32=2,38=5/2;
 8/6=4,10=2/1;
 9/15=2,16=-3/6;
 10/5=1,31=1/2;
 6/7=2,8=2,9=2,10=2/1;
 7/12=2,30=1/1,2,3,16;
 1/6=20,18=20,19=15/3(2);
 2/9=110,15=1/2;
 99//99;
 2/9=110,15=1/2;
 3/5=1,6=6,7=1,11=9,25=1,30=1,71=1/1,2,3;
 4/5=5,16=3,69=1/1;
 5/5=2,32=2,38=5/2;
 8/6=4,10=2/1;
 9/15=2,16=-3/6;
 10/5=1,31=1/2;
 7/12=2,30=1/1,2,3,16;
 1/6=20,18=20,19=15/3(-8);
 2/9=110,15=1/2;
 6/7=2,8=2,9=2,10=2/1;
 99/9=10/99;
 --------
 MolName:
 --------
 Symbolic Z-matrix:
 Charge =  0 Multiplicity = 1
 8                    0    -3.64391  -1.31822  -0.55648 
 7                    0    -3.26219  -0.21828  -0.16081 
 8                    0    -4.02233   0.71799   0.08948 
 6                    0    -1.76411  -0.02701   0.07078 
 6                    0    -1.35934   1.24388   0.49739 
 7                    0    -0.0943    1.75233   0.3559 
 6                    0     1.19491   0.99636   0.33581 
 1                    0     1.85736   1.52144   1.07218 
 6                    0     1.95193   1.02074  -1.01464 
 6                    0     3.369     0.44953  -0.81875 
 6                    0     3.32002  -0.95216  -0.19034 
 6                    0     2.47832  -0.96165   1.10441 
 6                    0     1.03551  -0.44017   0.8597 
 1                    0     0.50166  -0.46106   1.83858 
 7                    0     0.37662  -1.33445  -0.09605 
 6                    0    -0.86955  -1.13109  -0.38329 
 1                    0    -2.12311   1.94077   0.88022 
 1                    0     0.08009   2.70858   0.03695 
 1                    0     1.40297   0.42104  -1.7717 
 1                    0     2.02885   2.06249  -1.39218 
 1                    0     3.89901   0.40599  -1.79536 
 1                    0     3.94472   1.12385  -0.14605 
 1                    0     2.87273  -1.66178  -0.92263 
 1                    0     4.35148  -1.3042    0.02939 
 1                    0     2.42969  -1.99957   1.50073 
 1                    0     2.97435  -0.32988   1.87094 
 1                    0    -1.36436  -1.86347  -1.03918 
 
 The following ModRedundant input section has been read:
 D       2       4       5       6 F                                           
 D       1       2       4      16 F                                           
 D       7      13      15      16 F                                           
 D       7       9      10      11 F                                           
 D       9      10      11      12 F                                           
 D       6       7      13      15 F                                           
 

 GradGradGradGradGradGradGradGradGradGradGradGradGradGradGradGradGradGrad
 Berny optimization.
 Initialization pass.
                           ----------------------------
                           !    Initial Parameters    !
                           ! (Angstroms and Degrees)  !
 --------------------------                            --------------------------
 ! Name  Definition              Value          Derivative Info.                !
 --------------------------------------------------------------------------------
 ! R1    R(1,2)                  1.2297         estimate D2E/DX2                !
 ! R2    R(2,3)                  1.2317         estimate D2E/DX2                !
 ! R3    R(2,4)                  1.5279         estimate D2E/DX2                !
 ! R4    R(4,5)                  1.4004         estimate D2E/DX2                !
 ! R5    R(4,16)                 1.4918         estimate D2E/DX2                !
 ! R6    R(5,6)                  1.3707         estimate D2E/DX2                !
 ! R7    R(5,17)                 1.1025         estimate D2E/DX2                !
 ! R8    R(6,7)                  1.4946         estimate D2E/DX2                !
 ! R9    R(6,18)                 1.023          estimate D2E/DX2                !
 ! R10   R(7,8)                  1.1211         estimate D2E/DX2                !
 ! R11   R(7,9)                  1.5484         estimate D2E/DX2                !
 ! R12   R(7,13)                 1.5374         estimate D2E/DX2                !
 ! R13   R(9,10)                 1.5404         estimate D2E/DX2                !
 ! R14   R(9,19)                 1.1109         estimate D2E/DX2                !
 ! R15   R(9,20)                 1.1107         estimate D2E/DX2                !
 ! R16   R(10,11)                1.5369         estimate D2E/DX2                !
 ! R17   R(10,21)                1.112          estimate D2E/DX2                !
 ! R18   R(10,22)                1.113          estimate D2E/DX2                !
 ! R19   R(11,12)                1.5443         estimate D2E/DX2                !
 ! R20   R(11,23)                1.1135         estimate D2E/DX2                !
 ! R21   R(11,24)                1.1118         estimate D2E/DX2                !
 ! R22   R(12,13)                1.5536         estimate D2E/DX2                !
 ! R23   R(12,25)                1.1121         estimate D2E/DX2                !
 ! R24   R(12,26)                1.1103         estimate D2E/DX2                !
 ! R25   R(13,14)                1.1152         estimate D2E/DX2                !
 ! R26   R(13,15)                1.4654         estimate D2E/DX2                !
 ! R27   R(15,16)                1.2949         estimate D2E/DX2                !
 ! R28   R(16,27)                1.1006         estimate D2E/DX2                !
 ! A1    A(1,2,3)              123.6249         estimate D2E/DX2                !
 ! A2    A(1,2,4)              117.7174         estimate D2E/DX2                !
 ! A3    A(3,2,4)              118.6298         estimate D2E/DX2                !
 ! A4    A(2,4,5)              116.308          estimate D2E/DX2                !
 ! A5    A(2,4,16)             116.6905         estimate D2E/DX2                !
 ! A6    A(5,4,16)             126.2338         estimate D2E/DX2                !
 ! A7    A(4,5,6)              124.887          estimate D2E/DX2                !
 ! A8    A(4,5,17)             118.6327         estimate D2E/DX2                !
 ! A9    A(6,5,17)             116.1496         estimate D2E/DX2                !
 ! A10   A(5,6,7)              127.577          estimate D2E/DX2                !
 ! A11   A(5,6,18)             122.4278         estimate D2E/DX2                !
 ! A12   A(7,6,18)             108.7567         estimate D2E/DX2                !
 ! A13   A(6,7,8)              105.3055         estimate D2E/DX2                !
 ! A14   A(6,7,9)              115.181          estimate D2E/DX2                !
 ! A15   A(6,7,13)             112.2469         estimate D2E/DX2                !
 ! A16   A(8,7,9)              106.058          estimate D2E/DX2                !
 ! A17   A(8,7,13)             105.9673         estimate D2E/DX2                !
 ! A18   A(9,7,13)             111.2613         estimate D2E/DX2                !
 ! A19   A(7,9,10)             109.4527         estimate D2E/DX2                !
 ! A20   A(7,9,19)             110.1373         estimate D2E/DX2                !
 ! A21   A(7,9,20)             110.1872         estimate D2E/DX2                !
 ! A22   A(10,9,19)            109.9426         estimate D2E/DX2                !
 ! A23   A(10,9,20)            109.106          estimate D2E/DX2                !
 ! A24   A(19,9,20)            107.9923         estimate D2E/DX2                !
 ! A25   A(9,10,11)            111.1545         estimate D2E/DX2                !
 ! A26   A(9,10,21)            109.9563         estimate D2E/DX2                !
 ! A27   A(9,10,22)            109.1516         estimate D2E/DX2                !
 ! A28   A(11,10,21)           109.7902         estimate D2E/DX2                !
 ! A29   A(11,10,22)           108.7794         estimate D2E/DX2                !
 ! A30   A(21,10,22)           107.9387         estimate D2E/DX2                !
 ! A31   A(10,11,12)           111.4556         estimate D2E/DX2                !
 ! A32   A(10,11,23)           108.9732         estimate D2E/DX2                !
 ! A33   A(10,11,24)           109.8784         estimate D2E/DX2                !
 ! A34   A(12,11,23)           109.1787         estimate D2E/DX2                !
 ! A35   A(12,11,24)           109.7551         estimate D2E/DX2                !
 ! A36   A(23,11,24)           107.5087         estimate D2E/DX2                !
 ! A37   A(11,12,13)           111.8424         estimate D2E/DX2                !
 ! A38   A(11,12,25)           109.1689         estimate D2E/DX2                !
 ! A39   A(11,12,26)           109.3795         estimate D2E/DX2                !
 ! A40   A(13,12,25)           109.1966         estimate D2E/DX2                !
 ! A41   A(13,12,26)           109.4301         estimate D2E/DX2                !
 ! A42   A(25,12,26)           107.7321         estimate D2E/DX2                !
 ! A43   A(7,13,12)            105.726          estimate D2E/DX2                !
 ! A44   A(7,13,14)            111.4851         estimate D2E/DX2                !
 ! A45   A(7,13,15)            113.2415         estimate D2E/DX2                !
 ! A46   A(12,13,14)           107.4596         estimate D2E/DX2                !
 ! A47   A(12,13,15)           108.3893         estimate D2E/DX2                !
 ! A48   A(14,13,15)           110.2321         estimate D2E/DX2                !
 ! A49   A(13,15,16)           118.7866         estimate D2E/DX2                !
 ! A50   A(4,16,15)            128.7408         estimate D2E/DX2                !
 ! A51   A(4,16,27)            113.8459         estimate D2E/DX2                !
 ! A52   A(15,16,27)           117.4084         estimate D2E/DX2                !
 ! D1    D(1,2,4,5)            178.8578         estimate D2E/DX2                !
 ! D2    D(1,2,4,16)             8.258          Frozen                          !
 ! D3    D(3,2,4,5)             -2.9926         estimate D2E/DX2                !
 ! D4    D(3,2,4,16)          -173.5923         estimate D2E/DX2                !
 ! D5    D(2,4,5,6)           -158.0868         Frozen                          !
 ! D6    D(2,4,5,17)            15.0408         estimate D2E/DX2                !
 ! D7    D(16,4,5,6)            11.4902         estimate D2E/DX2                !
 ! D8    D(16,4,5,17)         -175.3822         estimate D2E/DX2                !
 ! D9    D(2,4,16,15)         -166.0944         estimate D2E/DX2                !
 ! D10   D(2,4,16,27)           13.0702         estimate D2E/DX2                !
 ! D11   D(5,4,16,15)           24.3637         estimate D2E/DX2                !
 ! D12   D(5,4,16,27)         -156.4717         estimate D2E/DX2                !
 ! D13   D(4,5,6,7)            -30.0717         estimate D2E/DX2                !
 ! D14   D(4,5,6,18)           135.7452         estimate D2E/DX2                !
 ! D15   D(17,5,6,7)           156.6474         estimate D2E/DX2                !
 ! D16   D(17,5,6,18)          -37.5358         estimate D2E/DX2                !
 ! D17   D(5,6,7,8)           -129.8976         estimate D2E/DX2                !
 ! D18   D(5,6,7,9)            113.6428         estimate D2E/DX2                !
 ! D19   D(5,6,7,13)           -15.0576         estimate D2E/DX2                !
 ! D20   D(18,6,7,8)            62.7183         estimate D2E/DX2                !
 ! D21   D(18,6,7,9)           -53.7413         estimate D2E/DX2                !
 ! D22   D(18,6,7,13)          177.5584         estimate D2E/DX2                !
 ! D23   D(6,7,9,10)           169.0109         estimate D2E/DX2                !
 ! D24   D(6,7,9,19)           -70.0058         estimate D2E/DX2                !
 ! D25   D(6,7,9,20)            49.03           estimate D2E/DX2                !
 ! D26   D(8,7,9,10)            52.9798         estimate D2E/DX2                !
 ! D27   D(8,7,9,19)           173.9631         estimate D2E/DX2                !
 ! D28   D(8,7,9,20)           -67.0012         estimate D2E/DX2                !
 ! D29   D(13,7,9,10)          -61.8021         estimate D2E/DX2                !
 ! D30   D(13,7,9,19)           59.1812         estimate D2E/DX2                !
 ! D31   D(13,7,9,20)          178.2169         estimate D2E/DX2                !
 ! D32   D(6,7,13,12)         -166.4488         estimate D2E/DX2                !
 ! D33   D(6,7,13,14)          -49.9736         estimate D2E/DX2                !
 ! D34   D(6,7,13,15)           75.0218         Frozen                          !
 ! D35   D(8,7,13,12)          -52.0126         estimate D2E/DX2                !
 ! D36   D(8,7,13,14)           64.4625         estimate D2E/DX2                !
 ! D37   D(8,7,13,15)         -170.5421         estimate D2E/DX2                !
 ! D38   D(9,7,13,12)           62.8256         estimate D2E/DX2                !
 ! D39   D(9,7,13,14)          179.3008         estimate D2E/DX2                !
 ! D40   D(9,7,13,15)          -55.7038         estimate D2E/DX2                !
 ! D41   D(7,9,10,11)           54.8119         Frozen                          !
 ! D42   D(7,9,10,21)          176.5975         estimate D2E/DX2                !
 ! D43   D(7,9,10,22)          -65.1748         estimate D2E/DX2                !
 ! D44   D(19,9,10,11)         -66.2894         estimate D2E/DX2                !
 ! D45   D(19,9,10,21)          55.4962         estimate D2E/DX2                !
 ! D46   D(19,9,10,22)         173.7238         estimate D2E/DX2                !
 ! D47   D(20,9,10,11)         175.4531         estimate D2E/DX2                !
 ! D48   D(20,9,10,21)         -62.7613         estimate D2E/DX2                !
 ! D49   D(20,9,10,22)          55.4663         estimate D2E/DX2                !
 ! D50   D(9,10,11,12)         -52.8226         Frozen                          !
 ! D51   D(9,10,11,23)          67.7331         estimate D2E/DX2                !
 ! D52   D(9,10,11,24)        -174.7118         estimate D2E/DX2                !
 ! D53   D(21,10,11,12)       -174.705          estimate D2E/DX2                !
 ! D54   D(21,10,11,23)        -54.1492         estimate D2E/DX2                !
 ! D55   D(21,10,11,24)         63.4058         estimate D2E/DX2                !
 ! D56   D(22,10,11,12)         67.3848         estimate D2E/DX2                !
 ! D57   D(22,10,11,23)       -172.0595         estimate D2E/DX2                !
 ! D58   D(22,10,11,24)        -54.5044         estimate D2E/DX2                !
 ! D59   D(10,11,12,13)         56.4819         estimate D2E/DX2                !
 ! D60   D(10,11,12,25)        177.4375         estimate D2E/DX2                !
 ! D61   D(10,11,12,26)        -64.911          estimate D2E/DX2                !
 ! D62   D(23,11,12,13)        -63.9532         estimate D2E/DX2                !
 ! D63   D(23,11,12,25)         57.0025         estimate D2E/DX2                !
 ! D64   D(23,11,12,26)        174.6539         estimate D2E/DX2                !
 ! D65   D(24,11,12,13)        178.4424         estimate D2E/DX2                !
 ! D66   D(24,11,12,25)        -60.6019         estimate D2E/DX2                !
 ! D67   D(24,11,12,26)         57.0495         estimate D2E/DX2                !
 ! D68   D(11,12,13,7)         -59.8473         estimate D2E/DX2                !
 ! D69   D(11,12,13,14)       -179.0198         estimate D2E/DX2                !
 ! D70   D(11,12,13,15)         61.863          estimate D2E/DX2                !
 ! D71   D(25,12,13,7)         179.2131         estimate D2E/DX2                !
 ! D72   D(25,12,13,14)         60.0406         estimate D2E/DX2                !
 ! D73   D(25,12,13,15)        -59.0767         estimate D2E/DX2                !
 ! D74   D(26,12,13,7)          61.5164         estimate D2E/DX2                !
 ! D75   D(26,12,13,14)        -57.6561         estimate D2E/DX2                !
 ! D76   D(26,12,13,15)       -176.7734         estimate D2E/DX2                !
 ! D77   D(7,13,15,16)         -67.1605         Frozen                          !
 ! D78   D(12,13,15,16)        175.8633         estimate D2E/DX2                !
 ! D79   D(14,13,15,16)         58.5084         estimate D2E/DX2                !
 ! D80   D(13,15,16,4)           4.0156         estimate D2E/DX2                !
 ! D81   D(13,15,16,27)       -175.1238         estimate D2E/DX2                !
 --------------------------------------------------------------------------------
 Trust Radius=3.00D-01 FncErr=1.00D-07 GrdErr=1.00D-07 EigMax=2.50D+02 EigMin=1.00D-04
 Number of steps in this run=     20 maximum allowed number of steps=    162.
 GradGradGradGradGradGradGradGradGradGradGradGradGradGradGradGradGradGrad

                          Input orientation:                          
 ---------------------------------------------------------------------
 Center     Atomic      Atomic             Coordinates (Angstroms)
 Number     Number       Type             X           Y           Z
 ---------------------------------------------------------------------
      1          8           0       -3.643910   -1.318220   -0.556480
      2          7           0       -3.262190   -0.218280   -0.160810
      3          8           0       -4.022330    0.717990    0.089480
      4          6           0       -1.764110   -0.027010    0.070780
      5          6           0       -1.359340    1.243880    0.497390
      6          7           0       -0.094300    1.752330    0.355900
      7          6           0        1.194910    0.996360    0.335810
      8          1           0        1.857360    1.521440    1.072180
      9          6           0        1.951930    1.020740   -1.014640
     10          6           0        3.369000    0.449530   -0.818750
     11          6           0        3.320020   -0.952160   -0.190340
     12          6           0        2.478320   -0.961650    1.104410
     13          6           0        1.035510   -0.440170    0.859700
     14          1           0        0.501660   -0.461060    1.838580
     15          7           0        0.376620   -1.334450   -0.096050
     16          6           0       -0.869550   -1.131090   -0.383290
     17          1           0       -2.123110    1.940770    0.880220
     18          1           0        0.080090    2.708580    0.036950
     19          1           0        1.402970    0.421040   -1.771700
     20          1           0        2.028850    2.062490   -1.392180
     21          1           0        3.899010    0.405990   -1.795360
     22          1           0        3.944720    1.123850   -0.146050
     23          1           0        2.872730   -1.661780   -0.922630
     24          1           0        4.351480   -1.304200    0.029390
     25          1           0        2.429690   -1.999570    1.500730
     26          1           0        2.974350   -0.329880    1.870940
     27          1           0       -1.364360   -1.863470   -1.039180
 ---------------------------------------------------------------------
                    Distance matrix (angstroms):
                    1          2          3          4          5
     1  O    0.000000
     2  N    1.229688   0.000000
     3  O    2.169474   1.231690   0.000000
     4  C    2.365233   1.527895   2.378010   0.000000
     5  C    3.590858   2.488368   2.744898   1.400356   0.000000
     6  N    4.781260   3.766407   4.070658   2.456748   1.370718
     7  C    5.437614   4.646259   5.230465   3.142185   2.571297
     8  H    6.401576   5.545871   6.015146   4.063932   3.279418
     9  C    6.082275   5.426900   6.082970   4.010595   3.646990
    10  C    7.237032   6.697129   7.451759   5.231364   4.971963
    11  C    6.983150   6.623061   7.535105   5.174211   5.214592
    12  C    6.353534   5.925102   6.790414   4.465440   4.467714
    13  C    4.967244   4.422771   5.245600   2.937851   2.950017
    14  H    4.863824   4.268849   4.991592   2.906412   2.858134
    15  N    4.046841   3.806700   4.857746   2.513952   3.164414
    16  C    2.786052   2.570495   3.685462   1.491781   2.579917
    17  H    3.872719   2.653817   2.393219   2.157830   1.102524
    18  H    5.516834   4.447073   4.560160   3.299344   2.104593
    19  H    5.474740   4.976687   5.743348   3.691325   3.668268
    20  H    6.656410   5.891798   6.373365   4.570865   3.964900
    21  H    7.836030   7.371855   8.148472   5.978369   5.797328
    22  H    7.982447   7.330831   7.980857   5.827713   5.344294
    23  H    6.535954   6.348331   7.364070   5.015937   5.326325
    24  H    8.016839   7.693073   8.614729   6.247669   6.270981
    25  H    6.448641   6.191220   7.141801   4.850125   5.087574
    26  H    7.118325   6.560099   7.295558   5.077924   4.810845
    27  H    2.393041   2.660816   3.873321   2.182750   3.466511
                    6          7          8          9         10
     6  N    0.000000
     7  C    1.494643   0.000000
     8  H    2.091732   1.121066   0.000000
     9  C    2.569175   1.548350   2.148130   0.000000
    10  C    3.882208   2.521646   2.647577   1.540370   0.000000
    11  C    4.389786   2.930812   3.138794   2.538400   1.536891
    12  C    3.813703   2.464080   2.559759   2.949124   2.546229
    13  C    2.517408   1.537364   2.137405   2.547005   3.008976
    14  H    2.729946   2.205218   2.521031   3.527021   4.014002
    15  N    3.155033   2.507743   3.422493   2.978646   3.557979
    16  C    3.075959   3.050433   4.073125   3.604126   4.544589
    17  H    2.103923   3.492499   4.007097   4.587254   5.939155
    18  H    1.023013   2.064906   2.374803   2.731013   4.080742
    19  H    2.922470   2.194511   3.083019   1.110917   2.184994
    20  H    2.767625   2.195003   2.528876   1.110719   2.174043
    21  H    4.731498   3.493219   3.692607   2.185992   1.112013
    22  H    4.118328   2.794619   2.449333   2.176302   1.112963
    23  H    4.700431   3.385921   3.891418   2.837649   2.171337
    24  H    5.404993   3.917959   3.910535   3.500455   2.181783
    25  H    4.664538   3.443445   3.592872   3.959497   3.501483
    26  H    4.005940   2.698508   2.305010   3.346056   2.828014
    27  H    4.078396   4.076652   5.127859   4.395116   5.272879
                   11         12         13         14         15
    11  C    0.000000
    12  C    1.544321   0.000000
    13  C    2.565873   1.553552   0.000000
    14  H    3.507257   2.167206   1.115185   0.000000
    15  N    2.969619   2.448924   1.465377   2.126320   0.000000
    16  C    4.197826   3.667451   2.377320   2.695527   1.294914
    17  H    6.256421   5.444948   3.955525   3.684652   4.234244
    18  H    4.893856   4.512379   3.391809   3.670178   4.056071
    19  H    2.839271   3.367524   2.793023   3.824210   2.634946
    20  H    3.492800   3.947203   3.510127   4.374748   3.993622
    21  H    2.180800   3.506774   3.995618   5.049681   4.280656
    22  H    2.168416   2.839593   3.452708   4.278476   4.333252
    23  H    1.113498   2.180512   2.836267   3.832490   2.649707
    24  H    1.111811   2.186718   3.525850   4.336493   3.976954
    25  H    2.179329   1.112076   2.187781   2.489670   2.684621
    26  H    2.180733   1.110292   2.189491   2.476379   3.409752
    27  H    4.847105   4.491597   3.375041   3.705440   2.049480
                   16         17         18         19         20
    16  C    0.000000
    17  H    3.550239   0.000000
    18  H    3.977623   2.480872   0.000000
    19  H    3.082391   4.666423   3.202197   0.000000
    20  H    4.429169   4.734701   2.501502   1.797253   0.000000
    21  H    5.205355   6.766107   4.821144   2.496198   2.530621
    22  H    5.321488   6.207991   4.180936   3.097930   2.470717
    23  H    3.818007   6.417714   5.274436   2.686867   3.847440
    24  H    5.240174   7.292054   5.860651   3.861876   4.330135
    25  H    3.897278   6.053041   5.461680   4.197893   5.002992
    26  H    4.527588   5.667581   4.579574   4.037566   4.155160
    27  H    1.100640   4.328053   4.914075   3.662470   5.201120
                   21         22         23         24         25
    21  H    0.000000
    22  H    1.799343   0.000000
    23  H    2.467910   3.084149   0.000000
    24  H    2.541494   2.468129   1.794689   0.000000
    25  H    4.337030   3.842259   2.486576   2.518265   0.000000
    26  H    3.852046   2.668932   3.096501   2.497417   1.794875
    27  H    5.781464   6.156955   4.243488   5.841699   4.567765
                   26         27
    26  H    0.000000
    27  H    5.444732   0.000000
 Symmetry turned off by external request.
 Stoichiometry    C9H13N3O2
 Framework group  C1[X(C9H13N3O2)]
 Deg. of freedom    75
 Full point group                 C1      NOp   1
 Rotational constants (GHZ):           1.6805623           0.3969785           0.3569501
 Standard basis: 6-31G(d) (6D, 7F)
   236 basis functions,   444 primitive gaussians,   236 cartesian basis functions
    52 alpha electrons       52 beta electrons
       nuclear repulsion energy       917.5869279293 Hartrees.
 NAtoms=   27 NActive=   27 NUniq=   27 SFac= 1.00D+00 NAtFMM=   60 NAOKFM=F Big=F
 Integral buffers will be    131072 words long.
 Raffenetti 1 integral format.
 Two-electron integral symmetry is turned off.
 One-electron integrals computed using PRISM.
 NBasis=   236 RedAO= T EigKep=  1.36D-03  NBF=   236
 NBsUse=   236 1.00D-06 EigRej= -1.00D+00 NBFU=   236
 ExpMin= 1.61D-01 ExpMax= 5.48D+03 ExpMxC= 8.25D+02 IAcc=3 IRadAn=         5 AccDes= 0.00D+00
 Harris functional with IExCor=  205 and IRadAn=       5 diagonalized for initial guess.
 HarFok:  IExCor=  205 AccDes= 0.00D+00 IRadAn=         5 IDoV= 1 UseB2=F ITyADJ=14
 ICtDFT=  3500011 ScaDFX=  1.000000  1.000000  1.000000  1.000000
 FoFCou: FMM=F IPFlag=           0 FMFlag=      100000 FMFlg1=           0
         NFxFlg=           0 DoJE=T BraDBF=F KetDBF=T FulRan=T
         wScrn=  0.000000 ICntrl=       500 IOpCl=  0 I1Cent=   200000004 NGrid=           0
         NMat0=    1 NMatS0=      1 NMatT0=    0 NMatD0=    1 NMtDS0=    0 NMtDT0=    0
 Symmetry not used in FoFCou.
 Keep R1 ints in memory in canonical form, NReq=397720213.
 Requested convergence on RMS density matrix=1.00D-08 within 128 cycles.
 Requested convergence on MAX density matrix=1.00D-06.
 Requested convergence on             energy=1.00D-06.
 No special actions if energy rises.
 SCF Done:  E(RHF) =  -661.268014614     A.U. after   16 cycles
            NFock= 16  Conv=0.71D-08     -V/T= 2.0037
 ExpMin= 1.61D-01 ExpMax= 5.48D+03 ExpMxC= 8.25D+02 IAcc=3 IRadAn=         5 AccDes= 0.00D+00
 HarFok:  IExCor=  205 AccDes= 0.00D+00 IRadAn=         5 IDoV=-2 UseB2=F ITyADJ=14
 ICtDFT= 12500011 ScaDFX=  1.000000  1.000000  1.000000  1.000000
 Range of M.O.s used for correlation:    15   236
 NBasis=   236 NAE=    52 NBE=    52 NFC=    14 NFV=     0
 NROrb=    222 NOA=    38 NOB=    38 NVA=   184 NVB=   184
 Fully direct method using O(ONN) memory.
 JobTyp=1 Pass  1:  I=  15 to  52 NPSUse=  4 ParTrn=T ParDer=T DoDerP=T.
 Spin components of T(2) and E(2):
     alpha-alpha T2 =       0.9210914348D-01 E2=     -0.2719078315D+00
     alpha-beta  T2 =       0.5005783952D+00 E2=     -0.1494425751D+01
     beta-beta   T2 =       0.9210914348D-01 E2=     -0.2719078315D+00
 ANorm=    0.1297997181D+01
 E2 =    -0.2038241414D+01 EUMP2 =    -0.66330625602782D+03
          IDoAtm=111111111111111111111111111
          Differentiating once with respect to electric field.
                with respect to dipole field.
          Differentiating once with respect to nuclear coordinates.
 Keep R1 ints in memory in canonical form, NReq=397723379.
          There are     1 degrees of freedom in the 1st order CPHF.  IDoFFX=0 NUNeed=     1.
 LinEq1:  Iter=  0 NonCon=     1 RMS=4.64D-03 Max=1.18D-01 NDo=     1
 AX will form     1 AO Fock derivatives at one time.
 LinEq1:  Iter=  1 NonCon=     1 RMS=1.57D-03 Max=3.64D-02 NDo=     1
 LinEq1:  Iter=  2 NonCon=     1 RMS=6.51D-04 Max=1.94D-02 NDo=     1
 LinEq1:  Iter=  3 NonCon=     1 RMS=3.02D-04 Max=9.69D-03 NDo=     1
 LinEq1:  Iter=  4 NonCon=     1 RMS=9.46D-05 Max=2.58D-03 NDo=     1
 LinEq1:  Iter=  5 NonCon=     1 RMS=4.05D-05 Max=2.12D-03 NDo=     1
 LinEq1:  Iter=  6 NonCon=     1 RMS=1.66D-05 Max=6.07D-04 NDo=     1
 LinEq1:  Iter=  7 NonCon=     1 RMS=6.50D-06 Max=1.06D-04 NDo=     1
 LinEq1:  Iter=  8 NonCon=     1 RMS=2.58D-06 Max=5.13D-05 NDo=     1
 LinEq1:  Iter=  9 NonCon=     1 RMS=9.74D-07 Max=2.86D-05 NDo=     1
 LinEq1:  Iter= 10 NonCon=     1 RMS=4.59D-07 Max=1.25D-05 NDo=     1
 LinEq1:  Iter= 11 NonCon=     1 RMS=1.68D-07 Max=5.74D-06 NDo=     1
 LinEq1:  Iter= 12 NonCon=     1 RMS=6.09D-08 Max=1.07D-06 NDo=     1
 LinEq1:  Iter= 13 NonCon=     1 RMS=2.02D-08 Max=5.56D-07 NDo=     1
 LinEq1:  Iter= 14 NonCon=     1 RMS=6.92D-09 Max=2.10D-07 NDo=     1
 LinEq1:  Iter= 15 NonCon=     1 RMS=2.59D-09 Max=5.49D-08 NDo=     1
 LinEq1:  Iter= 16 NonCon=     1 RMS=9.23D-10 Max=1.33D-08 NDo=     1
 LinEq1:  Iter= 17 NonCon=     1 RMS=3.00D-10 Max=5.25D-09 NDo=     1
 LinEq1:  Iter= 18 NonCon=     1 RMS=9.70D-11 Max=1.42D-09 NDo=     1
 LinEq1:  Iter= 19 NonCon=     0 RMS=3.01D-11 Max=4.96D-10 NDo=     1
 Linear equations converged to 1.000D-10 1.000D-09 after    19 iterations.
 End of Minotr F.D. properties file   721 does not exist.
 End of Minotr F.D. properties file   722 does not exist.
 End of Minotr F.D. properties file   788 does not exist.

 **********************************************************************

            Population analysis using the SCF Density.

 **********************************************************************

 Alpha  occ. eigenvalues --  -20.59995 -20.59573 -15.85537 -15.62422 -15.57014
 Alpha  occ. eigenvalues --  -11.35991 -11.30529 -11.30397 -11.29869 -11.27746
 Alpha  occ. eigenvalues --  -11.24532 -11.23804 -11.23397 -11.22832  -1.58677
 Alpha  occ. eigenvalues --   -1.38164  -1.28329  -1.22643  -1.13210  -1.08357
 Alpha  occ. eigenvalues --   -1.01773  -1.00526  -0.93509  -0.88914  -0.84862
 Alpha  occ. eigenvalues --   -0.81479  -0.78166  -0.76832  -0.74315  -0.70891
 Alpha  occ. eigenvalues --   -0.70467  -0.70043  -0.67512  -0.64209  -0.63384
 Alpha  occ. eigenvalues --   -0.61501  -0.60761  -0.57507  -0.56220  -0.54878
 Alpha  occ. eigenvalues --   -0.53087  -0.50672  -0.48875  -0.48604  -0.47804
 Alpha  occ. eigenvalues --   -0.47423  -0.46154  -0.45546  -0.44173  -0.42235
 Alpha  occ. eigenvalues --   -0.40192  -0.33510
 Alpha virt. eigenvalues --    0.06085   0.11555   0.18592   0.21808   0.23797
 Alpha virt. eigenvalues --    0.24418   0.25564   0.27412   0.28551   0.28950
 Alpha virt. eigenvalues --    0.29579   0.31374   0.31887   0.32238   0.33278
 Alpha virt. eigenvalues --    0.33737   0.34209   0.35940   0.37755   0.38554
 Alpha virt. eigenvalues --    0.40770   0.42207   0.44719   0.45436   0.45728
 Alpha virt. eigenvalues --    0.46002   0.49522   0.53064   0.57720   0.59168
 Alpha virt. eigenvalues --    0.63470   0.69166   0.69897   0.72082   0.73993
 Alpha virt. eigenvalues --    0.75034   0.75509   0.75834   0.77344   0.79827
 Alpha virt. eigenvalues --    0.80100   0.83535   0.84941   0.85401   0.88031
 Alpha virt. eigenvalues --    0.89114   0.90370   0.90876   0.92819   0.93818
 Alpha virt. eigenvalues --    0.96110   0.97121   0.98628   1.00032   1.01810
 Alpha virt. eigenvalues --    1.02373   1.04668   1.05655   1.06802   1.08173
 Alpha virt. eigenvalues --    1.09109   1.10427   1.10738   1.11978   1.13296
 Alpha virt. eigenvalues --    1.13775   1.14656   1.15451   1.16233   1.17084
 Alpha virt. eigenvalues --    1.18229   1.19690   1.21122   1.21906   1.22433
 Alpha virt. eigenvalues --    1.24305   1.25343   1.25942   1.27377   1.27942
 Alpha virt. eigenvalues --    1.28467   1.31044   1.33707   1.36182   1.38213
 Alpha virt. eigenvalues --    1.42017   1.44443   1.48010   1.49034   1.52307
 Alpha virt. eigenvalues --    1.53702   1.55489   1.60567   1.62500   1.68102
 Alpha virt. eigenvalues --    1.69203   1.69484   1.71327   1.73624   1.75221
 Alpha virt. eigenvalues --    1.79682   1.80677   1.83877   1.85856   1.92682
 Alpha virt. eigenvalues --    1.95226   1.97023   1.97518   1.99214   1.99869
 Alpha virt. eigenvalues --    2.02659   2.03821   2.05833   2.08680   2.11670
 Alpha virt. eigenvalues --    2.12504   2.14579   2.17333   2.18001   2.20192
 Alpha virt. eigenvalues --    2.21491   2.22133   2.23766   2.24311   2.27118
 Alpha virt. eigenvalues --    2.29261   2.32520   2.34136   2.35771   2.36602
 Alpha virt. eigenvalues --    2.38314   2.40334   2.41104   2.43171   2.45217
 Alpha virt. eigenvalues --    2.47723   2.50033   2.53336   2.55886   2.57558
 Alpha virt. eigenvalues --    2.61461   2.62595   2.66378   2.67363   2.68926
 Alpha virt. eigenvalues --    2.69900   2.70654   2.75230   2.76353   2.81046
 Alpha virt. eigenvalues --    2.84120   2.86758   2.90629   2.91610   2.95625
 Alpha virt. eigenvalues --    2.98442   2.99150   3.02150   3.03161   3.05913
 Alpha virt. eigenvalues --    3.07050   3.11584   3.20048   3.22373   3.26070
 Alpha virt. eigenvalues --    3.29979   3.32522   3.37319   3.43187   3.58410
 Alpha virt. eigenvalues --    4.09846   4.23003   4.30157   4.36328   4.44253
 Alpha virt. eigenvalues --    4.52428   4.59097   4.59899   4.71015   4.77958
 Alpha virt. eigenvalues --    4.94831   4.99232   5.02231   5.10250
          Condensed to atoms (all electrons):
               1          2          3          4          5          6
     1  O    8.302696   0.307070  -0.089647  -0.076962   0.003153  -0.000018
     2  N    0.307070   5.689604   0.309739   0.259272  -0.043141   0.001223
     3  O   -0.089647   0.309739   8.329343  -0.085299   0.005438   0.000384
     4  C   -0.076962   0.259272  -0.085299   5.233719   0.567179  -0.064941
     5  C    0.003153  -0.043141   0.005438   0.567179   4.680668   0.315119
     6  N   -0.000018   0.001223   0.000384  -0.064941   0.315119   7.210965
     7  C    0.000002  -0.000097  -0.000002   0.004397  -0.032447   0.196068
     8  H   -0.000000   0.000002  -0.000000  -0.000212   0.000893  -0.053296
     9  C   -0.000000  -0.000003   0.000000   0.000675   0.002632  -0.053191
    10  C   -0.000000   0.000000  -0.000000  -0.000025  -0.000090   0.003225
    11  C   -0.000000  -0.000000  -0.000000  -0.000009   0.000013  -0.000154
    12  C   -0.000000   0.000001  -0.000000  -0.000087  -0.000084   0.003700
    13  C   -0.000014  -0.000012  -0.000001  -0.012105   0.000483  -0.042835
    14  H   -0.000002  -0.000042   0.000001   0.002529   0.006916  -0.005712
    15  N    0.000344   0.001454  -0.000010  -0.058035  -0.005347   0.002943
    16  C    0.002418  -0.025323   0.002176   0.321820  -0.043223  -0.002446
    17  H    0.000093  -0.003818   0.010325  -0.029282   0.378811  -0.033622
    18  H    0.000001  -0.000044   0.000015   0.000355  -0.021788   0.326317
    19  H    0.000000  -0.000001   0.000000  -0.000623   0.000195   0.001089
    20  H    0.000000  -0.000000   0.000000  -0.000035   0.000032  -0.002370
    21  H   -0.000000   0.000000  -0.000000   0.000000   0.000001  -0.000054
    22  H   -0.000000   0.000000  -0.000000  -0.000000  -0.000003  -0.000099
    23  H    0.000000  -0.000000   0.000000   0.000022  -0.000000  -0.000024
    24  H    0.000000   0.000000   0.000000   0.000000  -0.000000   0.000004
    25  H    0.000000  -0.000000   0.000000   0.000016  -0.000001  -0.000072
    26  H    0.000000  -0.000000   0.000000   0.000007  -0.000005  -0.000058
    27  H    0.006197   0.000546   0.000052  -0.062824   0.001892   0.000072
               7          8          9         10         11         12
     1  O    0.000002  -0.000000  -0.000000  -0.000000  -0.000000  -0.000000
     2  N   -0.000097   0.000002  -0.000003   0.000000  -0.000000   0.000001
     3  O   -0.000002  -0.000000   0.000000  -0.000000  -0.000000  -0.000000
     4  C    0.004397  -0.000212   0.000675  -0.000025  -0.000009  -0.000087
     5  C   -0.032447   0.000893   0.002632  -0.000090   0.000013  -0.000084
     6  N    0.196068  -0.053296  -0.053191   0.003225  -0.000154   0.003700
     7  C    4.987872   0.418832   0.338284  -0.049024  -0.007594  -0.064169
     8  H    0.418832   0.556103  -0.062494   0.001720  -0.000360  -0.002695
     9  C    0.338284  -0.062494   5.182323   0.317658  -0.053067  -0.006637
    10  C   -0.049024   0.001720   0.317658   5.126106   0.333010  -0.059677
    11  C   -0.007594  -0.000360  -0.053067   0.333010   5.121870   0.331668
    12  C   -0.064169  -0.002695  -0.006637  -0.059677   0.331668   5.134092
    13  C    0.337404  -0.042608  -0.046209  -0.002441  -0.047738   0.367740
    14  H   -0.040699  -0.000794   0.003850  -0.000387   0.003926  -0.040276
    15  N   -0.059943   0.004259  -0.013170   0.001542  -0.007548  -0.073684
    16  C   -0.002856   0.000023  -0.000965  -0.000012  -0.000012   0.002597
    17  H    0.001547  -0.000019  -0.000062   0.000001   0.000000   0.000001
    18  H   -0.026400  -0.001966   0.001005  -0.000137   0.000013  -0.000131
    19  H   -0.034829   0.004209   0.385206  -0.032490  -0.002323   0.000667
    20  H   -0.041228  -0.001941   0.397359  -0.037483   0.004156  -0.000353
    21  H    0.004019  -0.000081  -0.035935   0.400375  -0.035923   0.004194
    22  H   -0.004066   0.003528  -0.045585   0.395891  -0.045550  -0.001276
    23  H    0.000412   0.000031  -0.002005  -0.040141   0.396767  -0.036858
    24  H   -0.000138  -0.000094   0.004389  -0.038453   0.400354  -0.037821
    25  H    0.004960  -0.000005  -0.000361   0.004095  -0.034005   0.395458
    26  H   -0.004419   0.001641   0.001004  -0.002383  -0.042252   0.394735
    27  H   -0.000388   0.000008  -0.000051   0.000005   0.000005  -0.000020
              13         14         15         16         17         18
     1  O   -0.000014  -0.000002   0.000344   0.002418   0.000093   0.000001
     2  N   -0.000012  -0.000042   0.001454  -0.025323  -0.003818  -0.000044
     3  O   -0.000001   0.000001  -0.000010   0.002176   0.010325   0.000015
     4  C   -0.012105   0.002529  -0.058035   0.321820  -0.029282   0.000355
     5  C    0.000483   0.006916  -0.005347  -0.043223   0.378811  -0.021788
     6  N   -0.042835  -0.005712   0.002943  -0.002446  -0.033622   0.326317
     7  C    0.337404  -0.040699  -0.059943  -0.002856   0.001547  -0.026400
     8  H   -0.042608  -0.000794   0.004259   0.000023  -0.000019  -0.001966
     9  C   -0.046209   0.003850  -0.013170  -0.000965  -0.000062   0.001005
    10  C   -0.002441  -0.000387   0.001542  -0.000012   0.000001  -0.000137
    11  C   -0.047738   0.003926  -0.007548  -0.000012   0.000000   0.000013
    12  C    0.367740  -0.040276  -0.073684   0.002597   0.000001  -0.000131
    13  C    5.035636   0.399553   0.239364  -0.070294  -0.000027   0.003448
    14  H    0.399553   0.525776  -0.036642  -0.004635   0.000077   0.000025
    15  N    0.239364  -0.036642   6.939943   0.579519  -0.000083  -0.000105
    16  C   -0.070294  -0.004635   0.579519   4.718610   0.001628  -0.000196
    17  H   -0.000027   0.000077  -0.000083   0.001628   0.389765  -0.001587
    18  H    0.003448   0.000025  -0.000105  -0.000196  -0.001587   0.316055
    19  H   -0.006574   0.000066   0.007175   0.002453   0.000007  -0.000133
    20  H    0.003813  -0.000047   0.000076  -0.000026  -0.000000   0.003163
    21  H   -0.000348   0.000009  -0.000023   0.000002  -0.000000   0.000000
    22  H    0.000317  -0.000045   0.000002  -0.000001  -0.000000   0.000001
    23  H   -0.005716   0.000005   0.006571   0.000055   0.000000   0.000000
    24  H    0.004132  -0.000058   0.000040   0.000006   0.000000  -0.000000
    25  H   -0.034706  -0.002637   0.000623  -0.000058  -0.000000   0.000002
    26  H   -0.044717  -0.000980   0.004176  -0.000062   0.000000  -0.000001
    27  H    0.004757  -0.000183  -0.038812   0.400827  -0.000063   0.000003
              19         20         21         22         23         24
     1  O    0.000000   0.000000  -0.000000  -0.000000   0.000000   0.000000
     2  N   -0.000001  -0.000000   0.000000   0.000000  -0.000000   0.000000
     3  O    0.000000   0.000000  -0.000000  -0.000000   0.000000   0.000000
     4  C   -0.000623  -0.000035   0.000000  -0.000000   0.000022   0.000000
     5  C    0.000195   0.000032   0.000001  -0.000003  -0.000000  -0.000000
     6  N    0.001089  -0.002370  -0.000054  -0.000099  -0.000024   0.000004
     7  C   -0.034829  -0.041228   0.004019  -0.004066   0.000412  -0.000138
     8  H    0.004209  -0.001941  -0.000081   0.003528   0.000031  -0.000094
     9  C    0.385206   0.397359  -0.035935  -0.045585  -0.002005   0.004389
    10  C   -0.032490  -0.037483   0.400375   0.395891  -0.040141  -0.038453
    11  C   -0.002323   0.004156  -0.035923  -0.045550   0.396767   0.400354
    12  C    0.000667  -0.000353   0.004194  -0.001276  -0.036858  -0.037821
    13  C   -0.006574   0.003813  -0.000348   0.000317  -0.005716   0.004132
    14  H    0.000066  -0.000047   0.000009  -0.000045   0.000005  -0.000058
    15  N    0.007175   0.000076  -0.000023   0.000002   0.006571   0.000040
    16  C    0.002453  -0.000026   0.000002  -0.000001   0.000055   0.000006
    17  H    0.000007  -0.000000  -0.000000  -0.000000   0.000000   0.000000
    18  H   -0.000133   0.003163   0.000000   0.000001   0.000000  -0.000000
    19  H    0.506841  -0.024171  -0.002578   0.003757   0.001643  -0.000069
    20  H   -0.024171   0.550878  -0.002558  -0.002991  -0.000051  -0.000090
    21  H   -0.002578  -0.002558   0.526252  -0.024727  -0.002819  -0.002030
    22  H    0.003757  -0.002991  -0.024727   0.568273   0.004065  -0.003594
    23  H    0.001643  -0.000051  -0.002819   0.004065   0.510579  -0.025055
    24  H   -0.000069  -0.000090  -0.002030  -0.003594  -0.025055   0.541019
    25  H   -0.000027   0.000011  -0.000086  -0.000082  -0.002124  -0.002373
    26  H    0.000024  -0.000036  -0.000074   0.002467   0.003836  -0.002802
    27  H    0.000062  -0.000000  -0.000000   0.000000  -0.000021  -0.000000
              25         26         27
     1  O    0.000000   0.000000   0.006197
     2  N   -0.000000  -0.000000   0.000546
     3  O    0.000000   0.000000   0.000052
     4  C    0.000016   0.000007  -0.062824
     5  C   -0.000001  -0.000005   0.001892
     6  N   -0.000072  -0.000058   0.000072
     7  C    0.004960  -0.004419  -0.000388
     8  H   -0.000005   0.001641   0.000008
     9  C   -0.000361   0.001004  -0.000051
    10  C    0.004095  -0.002383   0.000005
    11  C   -0.034005  -0.042252   0.000005
    12  C    0.395458   0.394735  -0.000020
    13  C   -0.034706  -0.044717   0.004757
    14  H   -0.002637  -0.000980  -0.000183
    15  N    0.000623   0.004176  -0.038812
    16  C   -0.000058  -0.000062   0.400827
    17  H   -0.000000   0.000000  -0.000063
    18  H    0.000002  -0.000001   0.000003
    19  H   -0.000027   0.000024   0.000062
    20  H    0.000011  -0.000036  -0.000000
    21  H   -0.000086  -0.000074  -0.000000
    22  H   -0.000082   0.002467   0.000000
    23  H   -0.002124   0.003836  -0.000021
    24  H   -0.002373  -0.002802  -0.000000
    25  H    0.512239  -0.023225  -0.000009
    26  H   -0.023225   0.560584   0.000001
    27  H   -0.000009   0.000001   0.439177
 Mulliken charges:
               1
     1  O   -0.455331
     2  N    0.503570
     3  O   -0.482512
     4  C    0.000447
     5  C    0.182706
     6  N   -0.802218
     7  C    0.074499
     8  H    0.175314
     9  C   -0.314650
    10  C   -0.320885
    11  C   -0.315246
    12  C   -0.311084
    13  C   -0.040304
    14  H    0.190407
    15  N   -0.494627
    16  C    0.117974
    17  H    0.286308
    18  H    0.402087
    19  H    0.190423
    20  H    0.153892
    21  H    0.172383
    22  H    0.149716
    23  H    0.190827
    24  H    0.162633
    25  H    0.182366
    26  H    0.152539
    27  H    0.248768
 Sum of Mulliken charges =  -0.00000
 Mulliken charges with hydrogens summed into heavy atoms:
               1
     1  O   -0.455331
     2  N    0.503570
     3  O   -0.482512
     4  C    0.000447
     5  C    0.469013
     6  N   -0.400131
     7  C    0.249813
     9  C    0.029664
    10  C    0.001214
    11  C    0.038214
    12  C    0.023821
    13  C    0.150103
    15  N   -0.494627
    16  C    0.366742
 Electronic spatial extent (au):  <R**2>=           3127.4544
 Charge=             -0.0000 electrons
 Dipole moment (field-independent basis, Debye):
    X=              5.1625    Y=              4.1324    Z=              1.0247  Tot=              6.6916
 Quadrupole moment (field-independent basis, Debye-Ang):
   XX=           -105.4395   YY=            -80.7006   ZZ=            -82.1127
   XY=             -1.1951   XZ=             -1.7407   YZ=             -0.6382
 Traceless Quadrupole moment (field-independent basis, Debye-Ang):
   XX=            -16.0219   YY=              8.7170   ZZ=              7.3049
   XY=             -1.1951   XZ=             -1.7407   YZ=             -0.6382
 Octapole moment (field-independent basis, Debye-Ang**2):
  XXX=            100.7088  YYY=             31.0797  ZZZ=             -2.4169  XYY=             -2.9630
  XXY=              7.6463  XXZ=              8.9972  XZZ=             -7.8596  YZZ=             -1.5567
  YYZ=              1.2695  XYZ=             -0.0953
 Hexadecapole moment (field-independent basis, Debye-Ang**3):
 XXXX=          -3562.2091 YYYY=           -603.7164 ZZZZ=           -318.7184 XXXY=            -16.5287
 XXXZ=            -29.2963 YYYX=             -2.3034 YYYZ=             -3.1360 ZZZX=             -1.4315
 ZZZY=              1.1124 XXYY=           -651.4647 XXZZ=           -552.5650 YYZZ=           -163.0776
 XXYZ=             -9.0020 YYXZ=             -4.4046 ZZXY=              0.4092
 N-N= 9.175869279293D+02 E-N=-3.381185941391D+03  KE= 6.588569619507D+02
 Calling FoFJK, ICntrl=  10002127 FMM=F ISym2X=0 I1Cent= 0 IOpClX= 0 NMat=1 NMatS=1 NMatT=0.
 -------------------------------------------------------------------
 Center     Atomic                   Forces (Hartrees/Bohr)
 Number     Number              X              Y              Z
 -------------------------------------------------------------------
      1        8           0.001688859   -0.017355212   -0.010044825
      2        7           0.036153045    0.004305047    0.024736988
      3        8          -0.004015414    0.015961361    0.002526583
      4        6           0.000402152    0.005301955    0.002014608
      5        6          -0.003353995   -0.010149763   -0.027212781
      6        7           0.022077651   -0.015351116    0.003712343
      7        6          -0.004358124    0.006603840    0.004253177
      8        1          -0.008277247   -0.002702125   -0.007336042
      9        6          -0.004695223   -0.000756853   -0.001901438
     10        6           0.003033176   -0.000557072    0.001087575
     11        6          -0.001628874   -0.004635450   -0.002456907
     12        6           0.001336489   -0.008669028   -0.002106277
     13        6           0.012195369   -0.001864050    0.003341591
     14        1          -0.000304824    0.004877116   -0.009670300
     15        7          -0.002190295    0.004183319    0.002031016
     16        6          -0.022181462    0.009852590   -0.000021320
     17        1           0.004658289   -0.003704130   -0.012729013
     18        1          -0.016409099   -0.000628582    0.013713799
     19        1           0.003218318    0.006237067    0.007459236
     20        1          -0.003133415   -0.007157993    0.002793886
     21        1          -0.004315246    0.002566380    0.009598463
     22        1          -0.004008197   -0.004266046   -0.007309978
     23        1           0.004131681    0.006360813    0.009002430
     24        1          -0.009456023    0.002477677   -0.002063909
     25        1          -0.000814578    0.010448941   -0.002620196
     26        1          -0.004843882   -0.005063866   -0.004243923
     27        1           0.005090869    0.003685182    0.003445211
 -------------------------------------------------------------------
 Cartesian Forces:  Max     0.036153045 RMS     0.009300435

 GradGradGradGradGradGradGradGradGradGradGradGradGradGradGradGradGradGrad
 Berny optimization.
 FormGI is forming the generalized inverse of G from B-inverse, IUseBI=4.
 Internal  Forces:  Max     0.036140779 RMS     0.006891569
 Search for a local minimum.
 Step number   1 out of a maximum of   20
 All quantities printed in internal units (Hartrees-Bohrs-Radians)
 Mixed Optimization -- RFO/linear search
 Second derivative matrix not updated -- first step.
 ITU=  0
     Eigenvalues ---    0.00234   0.00766   0.01092   0.01173   0.01366
     Eigenvalues ---    0.01524   0.01596   0.01722   0.01994   0.02096
     Eigenvalues ---    0.02678   0.03625   0.04493   0.04681   0.04839
     Eigenvalues ---    0.05090   0.05136   0.05304   0.05909   0.06259
     Eigenvalues ---    0.07206   0.07703   0.07739   0.07898   0.07990
     Eigenvalues ---    0.08055   0.08094   0.10459   0.11747   0.12248
     Eigenvalues ---    0.13324   0.15345   0.15854   0.15928   0.16000
     Eigenvalues ---    0.20116   0.21151   0.23124   0.24375   0.25000
     Eigenvalues ---    0.25000   0.25355   0.26102   0.26659   0.27986
     Eigenvalues ---    0.28095   0.28393   0.29619   0.30985   0.31456
     Eigenvalues ---    0.32057   0.32232   0.32288   0.32381   0.32388
     Eigenvalues ---    0.32409   0.32503   0.32524   0.32569   0.32980
     Eigenvalues ---    0.33405   0.33611   0.35264   0.43861   0.44148
     Eigenvalues ---    0.48820   0.65905   0.90386   0.912161000.00000
     Eigenvalues --- 1000.000001000.000001000.000001000.000001000.00000
     Eigenvalues --- 1000.000001000.000001000.000001000.000001000.00000
     Eigenvalues --- 1000.000001000.000001000.000001000.000001000.00000
     Eigenvalues --- 1000.000001000.000001000.000001000.000001000.00000
     Eigenvalues --- 1000.000001000.000001000.000001000.000001000.00000
     Eigenvalues --- 1000.000001000.000001000.000001000.000001000.00000
     Eigenvalues --- 1000.000001000.000001000.000001000.000001000.00000
     Eigenvalues --- 1000.000001000.000001000.000001000.000001000.00000
     Eigenvalues --- 1000.000001000.000001000.000001000.000001000.00000
     Eigenvalues --- 1000.000001000.000001000.000001000.000001000.00000
     Eigenvalues --- 1000.000001000.000001000.000001000.000001000.00000
     Eigenvalues --- 1000.000001000.000001000.000001000.000001000.00000
     Eigenvalues --- 1000.000001000.000001000.000001000.000001000.00000
     Eigenvalues --- 1000.000001000.000001000.000001000.000001000.00000
     Eigenvalues --- 1000.000001000.000001000.000001000.000001000.00000
     Eigenvalues --- 1000.000001000.000001000.000001000.000001000.00000
     Eigenvalues --- 1000.000001000.000001000.000001000.000001000.00000
     Eigenvalues --- 1000.000001000.000001000.000001000.000001000.00000
     Eigenvalues --- 1000.00000
 RFO step:  Lambda=-2.65640145D-02 EMin= 2.33749132D-03
 Linear search not attempted -- first point.
 Iteration  1 RMS(Cart)=  0.05837272 RMS(Int)=  0.00182933
 Iteration  2 RMS(Cart)=  0.00222108 RMS(Int)=  0.00047799
 Iteration  3 RMS(Cart)=  0.00000408 RMS(Int)=  0.00047798
 Iteration  4 RMS(Cart)=  0.00000000 RMS(Int)=  0.00047798
 Iteration  1 RMS(Cart)=  0.00005282 RMS(Int)=  0.00005884
 Iteration  2 RMS(Cart)=  0.00002750 RMS(Int)=  0.00006444
 Iteration  3 RMS(Cart)=  0.00001690 RMS(Int)=  0.00007183
 Iteration  4 RMS(Cart)=  0.00001201 RMS(Int)=  0.00007790
 Iteration  5 RMS(Cart)=  0.00000942 RMS(Int)=  0.00008285
 Iteration  6 RMS(Cart)=  0.00000784 RMS(Int)=  0.00008700
 Iteration  7 RMS(Cart)=  0.00000672 RMS(Int)=  0.00009055
 Iteration  8 RMS(Cart)=  0.00000584 RMS(Int)=  0.00009361
 Iteration  9 RMS(Cart)=  0.00000509 RMS(Int)=  0.00009626
 Iteration 10 RMS(Cart)=  0.00000444 RMS(Int)=  0.00009857
 Iteration 11 RMS(Cart)=  0.00000387 RMS(Int)=  0.00010057
 Iteration 12 RMS(Cart)=  0.00000337 RMS(Int)=  0.00010231
 Iteration 13 RMS(Cart)=  0.00000293 RMS(Int)=  0.00010382
 Iteration 14 RMS(Cart)=  0.00000254 RMS(Int)=  0.00010513
 Iteration 15 RMS(Cart)=  0.00000220 RMS(Int)=  0.00010627
 Iteration 16 RMS(Cart)=  0.00000190 RMS(Int)=  0.00010725
 Iteration 17 RMS(Cart)=  0.00000165 RMS(Int)=  0.00010810
 Iteration 18 RMS(Cart)=  0.00000143 RMS(Int)=  0.00010884
 Iteration 19 RMS(Cart)=  0.00000123 RMS(Int)=  0.00010948
 Iteration 20 RMS(Cart)=  0.00000107 RMS(Int)=  0.00011003
 Iteration 21 RMS(Cart)=  0.00000092 RMS(Int)=  0.00011050
 Variable       Old X    -DE/DX   Delta X   Delta X   Delta X     New X
                                 (Linear)    (Quad)   (Total)
    R1        2.32377   0.01823   0.00000   0.01942   0.01942   2.34320
    R2        2.32756   0.01512   0.00000   0.01626   0.01626   2.34381
    R3        2.88730  -0.03614   0.00000  -0.11198  -0.11198   2.77533
    R4        2.64629  -0.03189   0.00000  -0.06863  -0.06849   2.57779
    R5        2.81906  -0.02502   0.00000  -0.07295  -0.07297   2.74609
    R6        2.59028  -0.01872   0.00000  -0.03584  -0.03570   2.55458
    R7        2.08347  -0.00999   0.00000  -0.02770  -0.02770   2.05577
    R8        2.82447  -0.02021   0.00000  -0.05360  -0.05340   2.77106
    R9        1.93321  -0.00766   0.00000  -0.01647  -0.01647   1.91675
   R10        2.11851  -0.01098   0.00000  -0.03217  -0.03217   2.08633
   R11        2.92596  -0.01341   0.00000  -0.04584  -0.04589   2.88007
   R12        2.90520  -0.00682   0.00000  -0.01440  -0.01425   2.89095
   R13        2.91088  -0.00503   0.00000  -0.01403  -0.01405   2.89683
   R14        2.09933  -0.01004   0.00000  -0.02856  -0.02856   2.07077
   R15        2.09895  -0.00788   0.00000  -0.02240  -0.02240   2.07655
   R16        2.90430  -0.00191   0.00000  -0.00683  -0.00681   2.89749
   R17        2.10140  -0.01059   0.00000  -0.03021  -0.03021   2.07119
   R18        2.10319  -0.00908   0.00000  -0.02597  -0.02597   2.07722
   R19        2.91834  -0.00911   0.00000  -0.02805  -0.02800   2.89034
   R20        2.10421  -0.01163   0.00000  -0.03335  -0.03335   2.07086
   R21        2.10102  -0.00997   0.00000  -0.02842  -0.02842   2.07260
   R22        2.93579  -0.01002   0.00000  -0.03580  -0.03578   2.90001
   R23        2.10152  -0.01065   0.00000  -0.03040  -0.03040   2.07112
   R24        2.09815  -0.00798   0.00000  -0.02264  -0.02264   2.07551
   R25        2.10739  -0.00843   0.00000  -0.02430  -0.02430   2.08310
   R26        2.76916  -0.00429   0.00000  -0.01022  -0.01056   2.75860
   R27        2.44703  -0.00465   0.00000  -0.00760  -0.00791   2.43912
   R28        2.07991  -0.00679   0.00000  -0.01873  -0.01873   2.06118
    A1        2.15766   0.01074   0.00000   0.03978   0.03748   2.19515
    A2        2.05456  -0.00618   0.00000  -0.02137  -0.02366   2.03090
    A3        2.07048  -0.00436   0.00000  -0.01481  -0.01710   2.05339
    A4        2.02996  -0.00662   0.00000  -0.02360  -0.02409   2.00587
    A5        2.03663  -0.00129   0.00000  -0.01108  -0.01225   2.02438
    A6        2.20320   0.00820   0.00000   0.02239   0.02111   2.22431
    A7        2.17969   0.00903   0.00000   0.03768   0.03770   2.21739
    A8        2.07053  -0.00513   0.00000  -0.02301  -0.02319   2.04734
    A9        2.02719  -0.00350   0.00000  -0.01674  -0.01674   2.01046
   A10        2.22664  -0.00503   0.00000  -0.01578  -0.01650   2.21014
   A11        2.13677  -0.01274   0.00000  -0.07142  -0.07149   2.06528
   A12        1.89816   0.01778   0.00000   0.09357   0.09400   1.99216
   A13        1.83793   0.00062   0.00000  -0.00816  -0.00792   1.83001
   A14        2.01029  -0.00303   0.00000  -0.01013  -0.00991   2.00038
   A15        1.95908   0.00077   0.00000  -0.00152  -0.00241   1.95667
   A16        1.85106   0.00257   0.00000   0.02278   0.02258   1.87364
   A17        1.84948  -0.00012   0.00000   0.00885   0.00886   1.85833
   A18        1.94188  -0.00036   0.00000  -0.00817  -0.00780   1.93408
   A19        1.91031  -0.00003   0.00000  -0.00513  -0.00533   1.90498
   A20        1.92226  -0.00080   0.00000  -0.01118  -0.01111   1.91115
   A21        1.92313  -0.00141   0.00000  -0.00734  -0.00731   1.91582
   A22        1.91886  -0.00028   0.00000   0.00641   0.00634   1.92520
   A23        1.90426   0.00299   0.00000   0.02273   0.02282   1.92708
   A24        1.88482  -0.00044   0.00000  -0.00508  -0.00533   1.87949
   A25        1.94001  -0.00088   0.00000   0.00514   0.00496   1.94497
   A26        1.91910  -0.00069   0.00000  -0.00629  -0.00628   1.91282
   A27        1.90505   0.00035   0.00000  -0.00272  -0.00275   1.90231
   A28        1.91620   0.00099   0.00000   0.00693   0.00698   1.92318
   A29        1.89856   0.00147   0.00000   0.01041   0.01047   1.90902
   A30        1.88388  -0.00122   0.00000  -0.01392  -0.01401   1.86988
   A31        1.94527  -0.00005   0.00000   0.00436   0.00460   1.94987
   A32        1.90194   0.00111   0.00000   0.00560   0.00550   1.90744
   A33        1.91774   0.00030   0.00000   0.00550   0.00546   1.92320
   A34        1.90553  -0.00081   0.00000  -0.01253  -0.01261   1.89292
   A35        1.91559  -0.00035   0.00000  -0.00050  -0.00062   1.91497
   A36        1.87638  -0.00020   0.00000  -0.00278  -0.00280   1.87359
   A37        1.95202  -0.00254   0.00000  -0.01831  -0.01837   1.93365
   A38        1.90536   0.00273   0.00000   0.01724   0.01711   1.92247
   A39        1.90903   0.00094   0.00000   0.01245   0.01243   1.92146
   A40        1.90584  -0.00025   0.00000  -0.00182  -0.00164   1.90420
   A41        1.90992   0.00000   0.00000  -0.00487  -0.00483   1.90509
   A42        1.88028  -0.00083   0.00000  -0.00418  -0.00436   1.87592
   A43        1.84527   0.00357   0.00000   0.02351   0.02353   1.86880
   A44        1.94578  -0.00445   0.00000  -0.03547  -0.03581   1.90998
   A45        1.97644   0.00236   0.00000   0.01380   0.01375   1.99018
   A46        1.87552   0.00266   0.00000   0.03270   0.03304   1.90856
   A47        1.89175  -0.00286   0.00000  -0.02726  -0.02718   1.86457
   A48        1.92391  -0.00101   0.00000  -0.00470  -0.00451   1.91940
   A49        2.07322  -0.00400   0.00000  -0.00773  -0.00785   2.06537
   A50        2.24695  -0.00544   0.00000  -0.02348  -0.02336   2.22359
   A51        1.98699   0.00505   0.00000   0.02408   0.02401   2.01100
   A52        2.04916   0.00039   0.00000  -0.00054  -0.00060   2.04856
    D1        3.12166  -0.00310   0.00000  -0.07220  -0.07132   3.05034
    D2        0.14413  -0.00569   0.00000   0.00000   0.00000   0.14413
    D3       -0.05223   0.00374   0.00000   0.04825   0.04859  -0.00364
    D4       -3.02976   0.00114   0.00000   0.12045   0.11991  -2.90985
    D5       -2.75913  -0.00953   0.00000   0.00000  -0.00000  -2.75914
    D6        0.26251  -0.00570   0.00000  -0.02277  -0.02289   0.23963
    D7        0.20054  -0.00787   0.00000  -0.08427  -0.08530   0.11525
    D8       -3.06100  -0.00404   0.00000  -0.10704  -0.10818   3.11401
    D9       -2.89889   0.00369   0.00000  -0.03946  -0.04144  -2.94034
   D10        0.22812   0.00318   0.00000  -0.03471  -0.03577   0.19235
   D11        0.42523   0.00251   0.00000   0.04622   0.04566   0.47089
   D12       -2.73095   0.00200   0.00000   0.05098   0.05134  -2.67961
   D13       -0.52485   0.00650   0.00000   0.07799   0.07765  -0.44720
   D14        2.36920   0.00880   0.00000   0.12573   0.12440   2.49360
   D15        2.73401   0.00288   0.00000   0.10076   0.10062   2.83463
   D16       -0.65512   0.00518   0.00000   0.14850   0.14736  -0.50776
   D17       -2.26714  -0.00237   0.00000  -0.03840  -0.03757  -2.30471
   D18        1.98344  -0.00430   0.00000  -0.05555  -0.05473   1.92871
   D19       -0.26280  -0.00178   0.00000  -0.03336  -0.03280  -0.29561
   D20        1.09464  -0.00124   0.00000  -0.06341  -0.06416   1.03048
   D21       -0.93796  -0.00317   0.00000  -0.08056  -0.08132  -1.01929
   D22        3.09898  -0.00065   0.00000  -0.05837  -0.05940   3.03958
   D23        2.94980   0.00315   0.00000   0.02567   0.02586   2.97565
   D24       -1.22183   0.00227   0.00000   0.02325   0.02338  -1.19845
   D25        0.85573   0.00035   0.00000   0.00542   0.00563   0.86137
   D26        0.92467   0.00235   0.00000   0.02619   0.02624   0.95091
   D27        3.03623   0.00147   0.00000   0.02377   0.02376   3.05999
   D28       -1.16939  -0.00045   0.00000   0.00594   0.00601  -1.16338
   D29       -1.07865   0.00123   0.00000   0.00699   0.00690  -1.07175
   D30        1.03291   0.00035   0.00000   0.00458   0.00443   1.03733
   D31        3.11047  -0.00157   0.00000  -0.01326  -0.01332   3.09715
   D32       -2.90508  -0.00290   0.00000  -0.01055  -0.01022  -2.91530
   D33       -0.87220   0.00006   0.00000   0.02388   0.02377  -0.84844
   D34        1.30938  -0.00301   0.00000   0.00000   0.00001   1.30939
   D35       -0.90779  -0.00185   0.00000  -0.01590  -0.01574  -0.92353
   D36        1.12508   0.00111   0.00000   0.01853   0.01825   1.14333
   D37       -2.97652  -0.00196   0.00000  -0.00535  -0.00551  -2.98203
   D38        1.09651   0.00094   0.00000   0.01194   0.01209   1.10860
   D39        3.12939   0.00390   0.00000   0.04637   0.04607  -3.10772
   D40       -0.97222   0.00083   0.00000   0.02249   0.02232  -0.94990
   D41        0.95665   0.00021   0.00000   0.00000   0.00001   0.95665
   D42        3.08221   0.00040   0.00000   0.00790   0.00785   3.09005
   D43       -1.13752  -0.00129   0.00000  -0.01436  -0.01434  -1.15185
   D44       -1.15697   0.00140   0.00000   0.01305   0.01315  -1.14382
   D45        0.96859   0.00159   0.00000   0.02095   0.02099   0.98958
   D46        3.03205  -0.00010   0.00000  -0.00131  -0.00120   3.03086
   D47        3.06223   0.00031   0.00000   0.00187   0.00184   3.06407
   D48       -1.09539   0.00050   0.00000   0.00977   0.00968  -1.08571
   D49        0.96807  -0.00119   0.00000  -0.01249  -0.01250   0.95557
   D50       -0.92193  -0.00093   0.00000   0.00000   0.00001  -0.92192
   D51        1.18217  -0.00124   0.00000  -0.00917  -0.00918   1.17299
   D52       -3.04930  -0.00066   0.00000  -0.00608  -0.00613  -3.05542
   D53       -3.04918  -0.00015   0.00000  -0.00019  -0.00016  -3.04934
   D54       -0.94508  -0.00046   0.00000  -0.00936  -0.00934  -0.95443
   D55        1.10664   0.00012   0.00000  -0.00627  -0.00629   1.10035
   D56        1.17609  -0.00010   0.00000   0.00653   0.00656   1.18265
   D57       -3.00300  -0.00041   0.00000  -0.00264  -0.00262  -3.00563
   D58       -0.95128   0.00017   0.00000   0.00046   0.00043  -0.95085
   D59        0.98580  -0.00015   0.00000  -0.01210  -0.01218   0.97361
   D60        3.09687  -0.00025   0.00000  -0.01457  -0.01473   3.08214
   D61       -1.13291   0.00087   0.00000  -0.00245  -0.00244  -1.13535
   D62       -1.11619  -0.00096   0.00000  -0.01359  -0.01361  -1.12980
   D63        0.99488  -0.00106   0.00000  -0.01605  -0.01616   0.97872
   D64        3.04829   0.00006   0.00000  -0.00394  -0.00387   3.04441
   D65        3.11441  -0.00004   0.00000  -0.00257  -0.00258   3.11182
   D66       -1.05770  -0.00014   0.00000  -0.00504  -0.00514  -1.06284
   D67        0.99570   0.00098   0.00000   0.00708   0.00715   1.00285
   D68       -1.04453  -0.00031   0.00000  -0.00017   0.00002  -1.04451
   D69       -3.12448   0.00169   0.00000   0.01255   0.01219  -3.11229
   D70        1.07971   0.00296   0.00000   0.01481   0.01459   1.09430
   D71        3.12786  -0.00193   0.00000  -0.00876  -0.00850   3.11936
   D72        1.04791   0.00006   0.00000   0.00395   0.00368   1.05158
   D73       -1.03108   0.00134   0.00000   0.00622   0.00607  -1.02501
   D74        1.07366  -0.00079   0.00000   0.00017   0.00047   1.07413
   D75       -1.00629   0.00121   0.00000   0.01289   0.01264  -0.99365
   D76       -3.08528   0.00248   0.00000   0.01515   0.01504  -3.07024
   D77       -1.17217   0.00150   0.00000   0.00000   0.00001  -1.17216
   D78        3.06939  -0.00246   0.00000  -0.01954  -0.01929   3.05011
   D79        1.02116  -0.00342   0.00000  -0.04034  -0.04060   0.98056
   D80        0.07008   0.00351   0.00000  -0.00334  -0.00313   0.06695
   D81       -3.05649   0.00400   0.00000  -0.00840  -0.00909  -3.06557
         Item               Value     Threshold  Converged?
 Maximum Force            0.036141     0.000450     NO 
 RMS     Force            0.006883     0.000300     NO 
 Maximum Displacement     0.308884     0.001800     NO 
 RMS     Displacement     0.059668     0.001200     NO 
 Predicted change in Energy=-1.595792D-02
 GradGradGradGradGradGradGradGradGradGradGradGradGradGradGradGradGradGrad

                          Input orientation:                          
 ---------------------------------------------------------------------
 Center     Atomic      Atomic             Coordinates (Angstroms)
 Number     Number       Type             X           Y           Z
 ---------------------------------------------------------------------
      1          8           0       -3.502746   -1.313199   -0.576541
      2          7           0       -3.136602   -0.210897   -0.142510
      3          8           0       -3.858876    0.786557    0.004899
      4          6           0       -1.697933   -0.053525    0.107221
      5          6           0       -1.312486    1.201706    0.476842
      6          7           0       -0.075928    1.737837    0.372355
      7          6           0        1.195258    1.007247    0.347825
      8          1           0        1.839189    1.535330    1.072661
      9          6           0        1.912952    1.027079   -0.996535
     10          6           0        3.319155    0.441521   -0.824475
     11          6           0        3.271000   -0.957301   -0.198415
     12          6           0        2.461582   -0.969043    1.099308
     13          6           0        1.046036   -0.425363    0.863311
     14          1           0        0.494445   -0.416158    1.817665
     15          7           0        0.396821   -1.331616   -0.079135
     16          6           0       -0.848827   -1.137901   -0.356287
     17          1           0       -2.094777    1.896544    0.774626
     18          1           0        0.004320    2.718407    0.125690
     19          1           0        1.342611    0.439085   -1.724385
     20          1           0        1.970448    2.058218   -1.371972
     21          1           0        3.823069    0.403530   -1.797050
     22          1           0        3.908433    1.109363   -0.180255
     23          1           0        2.804912   -1.653976   -0.904318
     24          1           0        4.287557   -1.320144   -0.003819
     25          1           0        2.392847   -1.989894    1.492161
     26          1           0        2.960979   -0.355308    1.861029
     27          1           0       -1.337418   -1.866098   -1.004897
 ---------------------------------------------------------------------
                    Distance matrix (angstroms):
                    1          2          3          4          5
     1  O    0.000000
     2  N    1.239966   0.000000
     3  O    2.207687   1.240292   0.000000
     4  C    2.304703   1.468639   2.320750   0.000000
     5  C    3.497371   2.388816   2.622819   1.364110   0.000000
     6  N    4.685329   3.664747   3.917990   2.431085   1.351824
     7  C    5.320730   4.526513   5.070559   3.090904   2.518580
     8  H    6.274572   5.411511   5.845402   3.995969   3.224805
     9  C    5.914649   5.268770   5.862995   3.927400   3.550322
    10  C    7.048322   6.524379   7.234020   5.126822   4.870669
    11  C    6.793620   6.451171   7.342854   5.059696   5.111324
    12  C    6.204846   5.784165   6.650417   4.373097   4.398091
    13  C    4.853127   4.307219   5.124820   2.870418   2.891252
    14  H    4.744939   4.131456   4.866626   2.804219   2.771335
    15  N    3.931205   3.707440   4.754438   2.460943   3.106214
    16  C    2.668806   2.477691   3.590876   1.453166   2.526429
    17  H    3.756392   2.523459   2.221845   2.098973   1.087867
    18  H    5.389480   4.303271   4.320986   3.252940   2.039036
    19  H    5.278782   4.794597   5.492416   3.583623   3.532214
    20  H    6.477269   5.722099   6.123227   4.483803   3.863856
    21  H    7.622622   7.179975   7.899747   5.858038   5.672883
    22  H    7.807139   7.167777   7.776218   5.732913   5.262917
    23  H    6.325355   6.161527   7.154645   4.884697   5.197643
    24  H    7.811330   7.507849   8.414430   6.119047   6.160458
    25  H    6.284541   6.034218   7.000333   4.733081   4.994665
    26  H    6.974169   6.419931   7.159573   4.987221   4.754237
    27  H    2.275485   2.592386   3.796580   2.156895   3.406992
                    6          7          8          9         10
     6  N    0.000000
     7  C    1.466383   0.000000
     8  H    2.049174   1.104040   0.000000
     9  C    2.516879   1.524068   2.131979   0.000000
    10  C    3.826151   2.491039   2.643075   1.532936   0.000000
    11  C    4.334914   2.909731   3.143076   2.533586   1.533288
    12  C    3.780822   2.464553   2.580691   2.945854   2.534967
    13  C    2.485815   1.529825   2.125379   2.513993   2.960943
    14  H    2.655926   2.162788   2.484285   3.466240   3.961755
    15  N    3.138292   2.508003   3.409756   2.950206   3.498511
    16  C    3.065642   3.045606   4.051356   3.567138   4.481724
    17  H    2.064645   3.434726   3.961741   4.467088   5.829655
    18  H    1.014298   2.096603   2.379742   2.786190   4.132209
    19  H    2.845229   2.153735   3.044964   1.095805   2.171766
    20  H    2.707947   2.159435   2.503373   1.098866   2.175425
    21  H    4.657132   3.445338   3.667696   2.162911   1.096027
    22  H    4.071301   2.765974   2.456220   2.157552   1.099218
    23  H    4.629636   3.352754   3.874627   2.827040   2.159149
    24  H    5.341606   3.886221   3.912421   3.483345   2.171345
    25  H    4.609207   3.424409   3.593009   3.940309   3.483766
    26  H    3.977463   2.695201   2.335476   3.342907   2.824032
    27  H    4.059128   4.062070   5.096743   4.351487   5.200127
                   11         12         13         14         15
    11  C    0.000000
    12  C    1.529503   0.000000
    13  C    2.522040   1.534618   0.000000
    14  H    3.473711   2.165951   1.102329   0.000000
    15  N    2.900904   2.404875   1.459787   2.108423   0.000000
    16  C    4.126804   3.620231   2.363395   2.655440   1.290728
    17  H    6.154901   5.392348   3.906895   3.624996   4.166292
    18  H    4.928191   4.536888   3.393015   3.595623   4.074150
    19  H    2.827925   3.347858   2.744339   3.741249   2.595525
    20  H    3.487410   3.938622   3.466872   4.298245   3.954580
    21  H    2.170777   3.482311   3.934018   4.981746   4.207272
    22  H    2.162811   2.837327   3.411412   4.239600   4.277852
    23  H    1.095852   2.145116   2.779865   3.778841   2.565881
    24  H    1.096772   2.162023   3.472752   4.303799   3.891481
    25  H    2.166898   1.095990   2.158033   2.487272   2.624198
    26  H    2.167906   1.098311   2.160406   2.467665   3.360404
    27  H    4.765904   4.434499   3.353620   3.664001   2.037226
                   16         17         18         19         20
    16  C    0.000000
    17  H    3.469757   0.000000
    18  H    3.978853   2.345802   0.000000
    19  H    3.026711   4.492759   3.226315   0.000000
    20  H    4.381221   4.600008   2.558222   1.771994   0.000000
    21  H    5.126248   6.622953   4.861936   2.481776   2.520097
    22  H    5.264285   6.129435   4.233759   3.068721   2.465016
    23  H    3.730480   6.279491   5.293577   2.681741   3.833460
    24  H    5.151687   7.189384   5.888359   3.837699   4.319047
    25  H    3.827675   5.979801   5.453476   4.165225   4.976835
    26  H    4.477003   5.640193   4.604450   4.013149   4.154342
    27  H    1.090727   4.230576   4.908785   3.607504   5.145577
                   21         22         23         24         25
    21  H    0.000000
    22  H    1.766214   0.000000
    23  H    2.463116   3.062363   0.000000
    24  H    2.530311   2.465232   1.766515   0.000000
    25  H    4.311950   3.833975   2.454740   2.505283   0.000000
    26  H    3.834133   2.685101   3.059091   2.483621   1.769380
    27  H    5.692920   6.087064   4.148977   5.739387   4.490601
                   26         27
    26  H    0.000000
    27  H    5.382585   0.000000
 Symmetry turned off by external request.
 Stoichiometry    C9H13N3O2
 Framework group  C1[X(C9H13N3O2)]
 Deg. of freedom    75
 Full point group                 C1      NOp   1
 Rotational constants (GHZ):           1.6872436           0.4182803           0.3738547
 Standard basis: 6-31G(d) (6D, 7F)
   236 basis functions,   444 primitive gaussians,   236 cartesian basis functions
    52 alpha electrons       52 beta electrons
       nuclear repulsion energy       931.9478078294 Hartrees.
 NAtoms=   27 NActive=   27 NUniq=   27 SFac= 1.00D+00 NAtFMM=   60 NAOKFM=F Big=F
 Integral buffers will be    131072 words long.
 Raffenetti 1 integral format.
 Two-electron integral symmetry is turned off.
 One-electron integrals computed using PRISM.
 NBasis=   236 RedAO= T EigKep=  1.13D-03  NBF=   236
 NBsUse=   236 1.00D-06 EigRej= -1.00D+00 NBFU=   236
 Initial guess from the checkpoint file:  "/home/alexey/tmp/Gau-1396774.chk"
 B after Tr=     0.055720    0.002983   -0.002228
         Rot=    0.999998    0.000698    0.001680    0.000848 Ang=   0.23 deg.
 ExpMin= 1.61D-01 ExpMax= 5.48D+03 ExpMxC= 8.25D+02 IAcc=3 IRadAn=         5 AccDes= 0.00D+00
 Harris functional with IExCor=  205 and IRadAn=       5 diagonalized for initial guess.
 HarFok:  IExCor=  205 AccDes= 0.00D+00 IRadAn=         5 IDoV= 1 UseB2=F ITyADJ=14
 ICtDFT=  3500011 ScaDFX=  1.000000  1.000000  1.000000  1.000000
 FoFCou: FMM=F IPFlag=           0 FMFlag=      100000 FMFlg1=           0
         NFxFlg=           0 DoJE=T BraDBF=F KetDBF=T FulRan=T
         wScrn=  0.000000 ICntrl=       500 IOpCl=  0 I1Cent=   200000004 NGrid=           0
         NMat0=    1 NMatS0=      1 NMatT0=    0 NMatD0=    1 NMtDS0=    0 NMtDT0=    0
 Symmetry not used in FoFCou.
 Keep R1 ints in memory in canonical form, NReq=397720213.
 Requested convergence on RMS density matrix=1.00D-08 within 128 cycles.
 Requested convergence on MAX density matrix=1.00D-06.
 Requested convergence on             energy=1.00D-06.
 No special actions if energy rises.
 SCF Done:  E(RHF) =  -661.287362734     A.U. after   15 cycles
            NFock= 15  Conv=0.43D-08     -V/T= 2.0025
 ExpMin= 1.61D-01 ExpMax= 5.48D+03 ExpMxC= 8.25D+02 IAcc=3 IRadAn=         5 AccDes= 0.00D+00
 HarFok:  IExCor=  205 AccDes= 0.00D+00 IRadAn=         5 IDoV=-2 UseB2=F ITyADJ=14
 ICtDFT= 12500011 ScaDFX=  1.000000  1.000000  1.000000  1.000000
 Range of M.O.s used for correlation:    15   236
 NBasis=   236 NAE=    52 NBE=    52 NFC=    14 NFV=     0
 NROrb=    222 NOA=    38 NOB=    38 NVA=   184 NVB=   184
 Fully direct method using O(ONN) memory.
 JobTyp=1 Pass  1:  I=  15 to  52 NPSUse=  4 ParTrn=T ParDer=T DoDerP=T.
 Spin components of T(2) and E(2):
     alpha-alpha T2 =       0.9143662509D-01 E2=     -0.2725296156D+00
     alpha-beta  T2 =       0.4923348325D+00 E2=     -0.1488918670D+01
     beta-beta   T2 =       0.9143662509D-01 E2=     -0.2725296156D+00
 ANorm=    0.1294298297D+01
 E2 =    -0.2033977901D+01 EUMP2 =    -0.66332134063503D+03
          IDoAtm=111111111111111111111111111
          Differentiating once with respect to electric field.
                with respect to dipole field.
          Differentiating once with respect to nuclear coordinates.
 Keep R1 ints in memory in canonical form, NReq=397723379.
          There are     1 degrees of freedom in the 1st order CPHF.  IDoFFX=0 NUNeed=     1.
[...]
    19  H    2.975553   4.355708   3.573885   0.000000
    20  H    4.360807   4.503085   2.966059   1.768433   0.000000
    21  H    5.083905   6.545854   5.136646   2.498990   2.522108
    22  H    5.240031   6.106296   4.333317   3.070306   2.461299
    23  H    3.690778   6.240055   5.432089   2.706799   3.844521
    24  H    5.131268   7.189223   5.932776   3.851341   4.317719
    25  H    3.828601   6.038949   5.324399   4.174623   4.987333
    26  H    4.497830   5.730999   4.435816   4.039640   4.185513
    27  H    1.088862   4.221843   5.069776   3.550066   5.117568
                   21         22         23         24         25
    21  H    0.000000
    22  H    1.758736   0.000000
    23  H    2.468681   3.062179   0.000000
    24  H    2.516728   2.459465   1.764609   0.000000
    25  H    4.312108   3.841176   2.443647   2.519944   0.000000
    26  H    3.848261   2.707251   3.060410   2.491169   1.767870
    27  H    5.623132   6.039821   4.075325   5.684017   4.463013
                   26         27
    26  H    0.000000
    27  H    5.379380   0.000000
 Symmetry turned off by external request.
 Stoichiometry    C9H13N3O2
 Framework group  C1[X(C9H13N3O2)]
 Deg. of freedom    75
 Full point group                 C1      NOp   1
 Rotational constants (GHZ):           1.6682506           0.4182908           0.3754990

 **********************************************************************

            Population analysis using the SCF Density.

 **********************************************************************

 Alpha  occ. eigenvalues --  -20.59332 -20.58958 -15.84868 -15.64329 -15.55980
 Alpha  occ. eigenvalues --  -11.35141 -11.29636 -11.29459 -11.28725 -11.27187
 Alpha  occ. eigenvalues --  -11.23628 -11.23159 -11.22722 -11.22072  -1.57224
 Alpha  occ. eigenvalues --   -1.36798  -1.31037  -1.23026  -1.14706  -1.09782
 Alpha  occ. eigenvalues --   -1.02797  -1.01230  -0.94449  -0.89674  -0.85486
 Alpha  occ. eigenvalues --   -0.82452  -0.78610  -0.77385  -0.75195  -0.72132
 Alpha  occ. eigenvalues --   -0.69725  -0.69574  -0.67828  -0.64773  -0.63794
 Alpha  occ. eigenvalues --   -0.62244  -0.60191  -0.57669  -0.57005  -0.55105
 Alpha  occ. eigenvalues --   -0.54536  -0.50708  -0.50111  -0.48743  -0.48059
 Alpha  occ. eigenvalues --   -0.47370  -0.46252  -0.45972  -0.43768  -0.41798
 Alpha  occ. eigenvalues --   -0.39762  -0.33839
 Alpha virt. eigenvalues --    0.07245   0.11593   0.17175   0.21953   0.24324
 Alpha virt. eigenvalues --    0.25483   0.26764   0.28228   0.29128   0.29710
 Alpha virt. eigenvalues --    0.30695   0.31892   0.32116   0.32741   0.33957
 Alpha virt. eigenvalues --    0.34469   0.35771   0.37418   0.38786   0.40354
 Alpha virt. eigenvalues --    0.41300   0.42775   0.44970   0.46183   0.46580
 Alpha virt. eigenvalues --    0.47347   0.49116   0.54030   0.57947   0.59691
 Alpha virt. eigenvalues --    0.63874   0.69710   0.70209   0.72876   0.74300
 Alpha virt. eigenvalues --    0.75029   0.75933   0.76454   0.78526   0.79313
 Alpha virt. eigenvalues --    0.81027   0.85110   0.85556   0.85983   0.88202
 Alpha virt. eigenvalues --    0.89734   0.90948   0.92320   0.92507   0.94278
 Alpha virt. eigenvalues --    0.95929   0.97974   0.99692   1.01323   1.02151
 Alpha virt. eigenvalues --    1.03203   1.05087   1.06877   1.07602   1.08986
 Alpha virt. eigenvalues --    1.10086   1.11195   1.12017   1.12583   1.13918
 Alpha virt. eigenvalues --    1.14540   1.14951   1.15620   1.17127   1.18846
 Alpha virt. eigenvalues --    1.19326   1.20586   1.22555   1.23625   1.24216
 Alpha virt. eigenvalues --    1.25551   1.25918   1.26891   1.28607   1.29362
 Alpha virt. eigenvalues --    1.30075   1.32507   1.33872   1.37176   1.38910
 Alpha virt. eigenvalues --    1.41253   1.44873   1.46878   1.51277   1.54041
 Alpha virt. eigenvalues --    1.56475   1.59306   1.61015   1.63006   1.65928
 Alpha virt. eigenvalues --    1.68430   1.69117   1.73103   1.73584   1.76648
 Alpha virt. eigenvalues --    1.81037   1.84034   1.87959   1.90868   1.94237
 Alpha virt. eigenvalues --    1.95913   1.97298   1.99996   2.01823   2.02614
 Alpha virt. eigenvalues --    2.04316   2.05395   2.08656   2.09094   2.12073
 Alpha virt. eigenvalues --    2.12484   2.15382   2.16571   2.20212   2.22730
 Alpha virt. eigenvalues --    2.22983   2.24674   2.25658   2.27960   2.29662
 Alpha virt. eigenvalues --    2.30760   2.34270   2.34872   2.37279   2.38819
 Alpha virt. eigenvalues --    2.39665   2.42155   2.42865   2.46434   2.46859
 Alpha virt. eigenvalues --    2.50750   2.51781   2.53656   2.55862   2.61762
 Alpha virt. eigenvalues --    2.62388   2.64298   2.67791   2.69640   2.70628
 Alpha virt. eigenvalues --    2.72115   2.73514   2.76154   2.78755   2.84655
 Alpha virt. eigenvalues --    2.88014   2.88654   2.92776   2.93114   2.96067
 Alpha virt. eigenvalues --    2.99515   3.01358   3.03741   3.05912   3.07894
 Alpha virt. eigenvalues --    3.10136   3.14227   3.21480   3.24940   3.26409
 Alpha virt. eigenvalues --    3.33080   3.37412   3.38147   3.51298   3.64688
 Alpha virt. eigenvalues --    4.13394   4.26721   4.31880   4.39220   4.47472
 Alpha virt. eigenvalues --    4.55866   4.61518   4.62171   4.73617   4.79965
 Alpha virt. eigenvalues --    4.99018   5.00985   5.04403   5.10929
          Condensed to atoms (all electrons):
               1          2          3          4          5          6
     1  O    8.314302   0.305358  -0.082694  -0.082190   0.004289  -0.000013
     2  N    0.305358   5.721622   0.298594   0.265335  -0.051386   0.001028
     3  O   -0.082694   0.298594   8.353669  -0.089602   0.000276   0.000728
     4  C   -0.082190   0.265335  -0.089602   5.214888   0.545622  -0.052491
     5  C    0.004289  -0.051386   0.000276   0.545622   4.740864   0.327809
     6  N   -0.000013   0.001028   0.000728  -0.052491   0.327809   7.165610
     7  C    0.000002  -0.000143  -0.000001   0.005092  -0.032182   0.170712
     8  H   -0.000000   0.000002   0.000000  -0.000330   0.002570  -0.049991
     9  C   -0.000000  -0.000002  -0.000000   0.001384   0.000853  -0.059795
    10  C    0.000000   0.000000   0.000000  -0.000053  -0.000058   0.003604
    11  C   -0.000000  -0.000000  -0.000000  -0.000016   0.000022  -0.000202
    12  C    0.000000   0.000002  -0.000000  -0.000179  -0.000132   0.004123
    13  C   -0.000017  -0.000013  -0.000002  -0.012619  -0.001058  -0.047322
    14  H   -0.000002  -0.000091   0.000001   0.002383   0.007163  -0.007324
    15  N    0.000540   0.002137  -0.000017  -0.063025  -0.006297   0.001610
    16  C   -0.000396  -0.027335   0.002856   0.332735  -0.054219  -0.002061
    17  H    0.000236  -0.007648   0.017555  -0.023050   0.375691  -0.034562
    18  H    0.000001  -0.000053   0.000008   0.002131  -0.031730   0.337136
    19  H    0.000001  -0.000009   0.000000  -0.001167   0.000870  -0.000232
    20  H    0.000000  -0.000000   0.000000  -0.000108   0.000172  -0.000537
    21  H   -0.000000   0.000000  -0.000000   0.000001   0.000001  -0.000072
    22  H    0.000000   0.000000  -0.000000  -0.000000  -0.000004  -0.000118
    23  H    0.000000  -0.000000   0.000000   0.000040  -0.000001  -0.000030
    24  H    0.000000   0.000000   0.000000   0.000000  -0.000000   0.000006
    25  H    0.000000  -0.000000   0.000000   0.000019   0.000000  -0.000094
    26  H    0.000000  -0.000000   0.000000   0.000008  -0.000007  -0.000043
    27  H    0.007408  -0.000717   0.000058  -0.061164   0.002312   0.000018
               7          8          9         10         11         12
     1  O    0.000002  -0.000000  -0.000000   0.000000  -0.000000   0.000000
     2  N   -0.000143   0.000002  -0.000002   0.000000  -0.000000   0.000002
     3  O   -0.000001   0.000000  -0.000000   0.000000  -0.000000  -0.000000
     4  C    0.005092  -0.000330   0.001384  -0.000053  -0.000016  -0.000179
     5  C   -0.032182   0.002570   0.000853  -0.000058   0.000022  -0.000132
     6  N    0.170712  -0.049991  -0.059795   0.003604  -0.000202   0.004123
     7  C    5.031314   0.417752   0.346687  -0.055098  -0.008992  -0.061554
     8  H    0.417752   0.540302  -0.054842   0.000786  -0.000375  -0.002116
     9  C    0.346687  -0.054842   5.155859   0.324701  -0.050050  -0.005282
    10  C   -0.055098   0.000786   0.324701   5.120722   0.336826  -0.060898
    11  C   -0.008992  -0.000375  -0.050050   0.336826   5.119264   0.336600
    12  C   -0.061554  -0.002116  -0.005282  -0.060898   0.336600   5.118451
    13  C    0.340987  -0.038294  -0.059835  -0.000196  -0.050732   0.371402
    14  H   -0.047822  -0.000578   0.004438  -0.000397   0.004186  -0.036044
    15  N   -0.059854   0.004020  -0.015161   0.001593  -0.013276  -0.082435
    16  C   -0.002441   0.000016  -0.001458  -0.000023  -0.000001   0.002586
    17  H    0.001728  -0.000059  -0.000070   0.000001   0.000000   0.000000
    18  H   -0.022541  -0.004977   0.001859  -0.000094   0.000003  -0.000125
    19  H   -0.036707   0.004355   0.390793  -0.032081  -0.002214   0.000693
    20  H   -0.041617  -0.002026   0.399562  -0.035461   0.003911  -0.000416
    21  H    0.004627  -0.000072  -0.036394   0.402651  -0.034863   0.004332
    22  H   -0.004865   0.003583  -0.046907   0.397580  -0.045596  -0.000971
    23  H    0.000596   0.000035  -0.001926  -0.038893   0.399151  -0.037719
    24  H   -0.000126  -0.000103   0.004362  -0.038388   0.402292  -0.038827
    25  H    0.005135  -0.000025  -0.000428   0.004179  -0.033307   0.397893
    26  H   -0.003933   0.001659   0.000973  -0.002205  -0.041464   0.396577
    27  H   -0.000382   0.000009  -0.000055   0.000007   0.000012  -0.000033
              13         14         15         16         17         18
     1  O   -0.000017  -0.000002   0.000540  -0.000396   0.000236   0.000001
     2  N   -0.000013  -0.000091   0.002137  -0.027335  -0.007648  -0.000053
     3  O   -0.000002   0.000001  -0.000017   0.002856   0.017555   0.000008
     4  C   -0.012619   0.002383  -0.063025   0.332735  -0.023050   0.002131
     5  C   -0.001058   0.007163  -0.006297  -0.054219   0.375691  -0.031730
     6  N   -0.047322  -0.007324   0.001610  -0.002061  -0.034562   0.337136
     7  C    0.340987  -0.047822  -0.059854  -0.002441   0.001728  -0.022541
     8  H   -0.038294  -0.000578   0.004020   0.000016  -0.000059  -0.004977
     9  C   -0.059835   0.004438  -0.015161  -0.001458  -0.000070   0.001859
    10  C   -0.000196  -0.000397   0.001593  -0.000023   0.000001  -0.000094
    11  C   -0.050732   0.004186  -0.013276  -0.000001   0.000000   0.000003
    12  C    0.371402  -0.036044  -0.082435   0.002586   0.000000  -0.000125
    13  C    5.040580   0.401487   0.248114  -0.070324   0.000016   0.002728
    14  H    0.401487   0.534645  -0.038002  -0.004296   0.000090  -0.000143
    15  N    0.248114  -0.038002   6.973576   0.578111  -0.000095  -0.000130
    16  C   -0.070324  -0.004296   0.578111   4.732549   0.002153  -0.000183
    17  H    0.000016   0.000090  -0.000095   0.002153   0.378783  -0.003149
    18  H    0.002728  -0.000143  -0.000130  -0.000183  -0.003149   0.316046
    19  H   -0.007514   0.000114   0.007810   0.002955   0.000011  -0.000146
    20  H    0.004264  -0.000065   0.000148  -0.000025   0.000004   0.000451
    21  H   -0.000422   0.000010  -0.000037   0.000004  -0.000000   0.000002
    22  H    0.000021  -0.000056   0.000018  -0.000002   0.000000  -0.000000
    23  H   -0.007603   0.000001   0.008619   0.000109   0.000000   0.000000
    24  H    0.004721  -0.000056   0.000143   0.000007   0.000000  -0.000000
    25  H   -0.035268  -0.002794   0.000344  -0.000014  -0.000000   0.000002
    26  H   -0.047522  -0.001044   0.004929  -0.000062   0.000000   0.000001
    27  H    0.004867  -0.000192  -0.039786   0.402618  -0.000085   0.000001
              19         20         21         22         23         24
     1  O    0.000001   0.000000  -0.000000   0.000000   0.000000   0.000000
     2  N   -0.000009  -0.000000   0.000000   0.000000  -0.000000   0.000000
     3  O    0.000000   0.000000  -0.000000  -0.000000   0.000000   0.000000
     4  C   -0.001167  -0.000108   0.000001  -0.000000   0.000040   0.000000
     5  C    0.000870   0.000172   0.000001  -0.000004  -0.000001  -0.000000
     6  N   -0.000232  -0.000537  -0.000072  -0.000118  -0.000030   0.000006
     7  C   -0.036707  -0.041617   0.004627  -0.004865   0.000596  -0.000126
     8  H    0.004355  -0.002026  -0.000072   0.003583   0.000035  -0.000103
     9  C    0.390793   0.399562  -0.036394  -0.046907  -0.001926   0.004362
    10  C   -0.032081  -0.035461   0.402651   0.397580  -0.038893  -0.038388
    11  C   -0.002214   0.003911  -0.034863  -0.045596   0.399151   0.402292
    12  C    0.000693  -0.000416   0.004332  -0.000971  -0.037719  -0.038827
    13  C   -0.007514   0.004264  -0.000422   0.000021  -0.007603   0.004721
    14  H    0.000114  -0.000065   0.000010  -0.000056   0.000001  -0.000056
    15  N    0.007810   0.000148  -0.000037   0.000018   0.008619   0.000143
    16  C    0.002955  -0.000025   0.000004  -0.000002   0.000109   0.000007
    17  H    0.000011   0.000004  -0.000000   0.000000   0.000000   0.000000
    18  H   -0.000146   0.000451   0.000002  -0.000000   0.000000  -0.000000
    19  H    0.501952  -0.024308  -0.002762   0.003935   0.001489  -0.000066
    20  H   -0.024308   0.537865  -0.002639  -0.003004  -0.000047  -0.000082
    21  H   -0.002762  -0.002639   0.523338  -0.027374  -0.002896  -0.002234
    22  H    0.003935  -0.003004  -0.027374   0.572160   0.004136  -0.003675
    23  H    0.001489  -0.000047  -0.002896   0.004136   0.498151  -0.025489
    24  H   -0.000066  -0.000082  -0.002234  -0.003675  -0.025489   0.538551
    25  H   -0.000027   0.000012  -0.000087  -0.000081  -0.002333  -0.002270
    26  H    0.000018  -0.000030  -0.000081   0.002373   0.004069  -0.003060
    27  H    0.000075   0.000000  -0.000000   0.000000  -0.000037  -0.000000
              25         26         27
     1  O    0.000000   0.000000   0.007408
     2  N   -0.000000  -0.000000  -0.000717
     3  O    0.000000   0.000000   0.000058
     4  C    0.000019   0.000008  -0.061164
     5  C    0.000000  -0.000007   0.002312
     6  N   -0.000094  -0.000043   0.000018
     7  C    0.005135  -0.003933  -0.000382
     8  H   -0.000025   0.001659   0.000009
     9  C   -0.000428   0.000973  -0.000055
    10  C    0.004179  -0.002205   0.000007
    11  C   -0.033307  -0.041464   0.000012
    12  C    0.397893   0.396577  -0.000033
    13  C   -0.035268  -0.047522   0.004867
    14  H   -0.002794  -0.001044  -0.000192
    15  N    0.000344   0.004929  -0.039786
    16  C   -0.000014  -0.000062   0.402618
    17  H   -0.000000   0.000000  -0.000085
    18  H    0.000002   0.000001   0.000001
    19  H   -0.000027   0.000018   0.000075
    20  H    0.000012  -0.000030   0.000000
    21  H   -0.000087  -0.000081  -0.000000
    22  H   -0.000081   0.002373   0.000000
    23  H   -0.002333   0.004069  -0.000037
    24  H   -0.002270  -0.003060  -0.000000
    25  H    0.506875  -0.024240  -0.000011
    26  H   -0.024240   0.563449   0.000001
    27  H   -0.000011   0.000001   0.427525
 Mulliken charges:
               1
     1  O   -0.466824
     2  N    0.493319
     3  O   -0.501429
     4  C    0.016356
     5  C    0.168557
     6  N   -0.757496
     7  C    0.053626
     8  H    0.178701
     9  C   -0.299265
    10  C   -0.328803
    11  C   -0.321182
    12  C   -0.305929
    13  C   -0.040447
    14  H    0.184386
    15  N   -0.513599
    16  C    0.106142
    17  H    0.292452
    18  H    0.402902
    19  H    0.192163
    20  H    0.163977
    21  H    0.174968
    22  H    0.148846
    23  H    0.200579
    24  H    0.164294
    25  H    0.186519
    26  H    0.149634
    27  H    0.257554
 Sum of Mulliken charges =  -0.00000
 Mulliken charges with hydrogens summed into heavy atoms:
               1
     1  O   -0.466824
     2  N    0.493319
     3  O   -0.501429
     4  C    0.016356
     5  C    0.461008
     6  N   -0.354594
     7  C    0.232327
     9  C    0.056875
    10  C   -0.004989
    11  C    0.043692
    12  C    0.030224
    13  C    0.143939
    15  N   -0.513599
    16  C    0.363696
 Electronic spatial extent (au):  <R**2>=           2998.5393
 Charge=             -0.0000 electrons
 Dipole moment (field-independent basis, Debye):
    X=              5.3384    Y=              4.5450    Z=              2.0414  Tot=              7.3022
 Quadrupole moment (field-independent basis, Debye-Ang):
   XX=           -105.6930   YY=            -79.3801   ZZ=            -81.7156
   XY=             -0.8535   XZ=             -2.6425   YZ=              2.2788
 Traceless Quadrupole moment (field-independent basis, Debye-Ang):
   XX=            -16.7634   YY=              9.5495   ZZ=              7.2140
   XY=             -0.8535   XZ=             -2.6425   YZ=              2.2788
 Octapole moment (field-independent basis, Debye-Ang**2):
  XXX=             88.7808  YYY=             31.6819  ZZZ=              2.3295  XYY=             -5.8167
  XXY=              5.8565  XXZ=             14.8226  XZZ=             -7.8239  YZZ=              1.2625
  YYZ=             11.4792  XYZ=              1.4377
 Hexadecapole moment (field-independent basis, Debye-Ang**3):
 XXXX=          -3351.7325 YYYY=           -589.7786 ZZZZ=           -327.0075 XXXY=              3.1485
 XXXZ=            -73.3943 YYYX=              8.4724 YYYZ=             23.1908 ZZZX=            -25.1049
 ZZZY=              1.6192 XXYY=           -618.1627 XXZZ=           -533.5415 YYZZ=           -157.0171
 XXYZ=            -11.0638 YYXZ=            -11.6018 ZZXY=              3.8636
 N-N= 9.315289025846D+02 E-N=-3.409754807549D+03  KE= 6.596253921338D+02
 Unable to Open any file for archive entry.
 1\1\GINC-LOTUS\FOpt\RMP2-FC\6-31G(d)\C9H13N3O2\ALEXEY\01-Jul-2023\0\\#
 MP2/6-31G* SCF=Tight Opt=(ModRedun, MaxCycle=20 ) NoSymm\\MolName:\\0,
 1\O,-3.4916208137,-1.2863407427,-0.7020983831\N,-3.1094243512,-0.19046
 28849,-0.2498811158\O,-3.8718636017,0.7776322321,-0.0628190663\C,-1.69
 67830937,-0.0597840343,0.0869871777\C,-1.3014699922,1.2140468192,0.415
 225035\N,-0.066378625,1.7436726612,0.3798022426\C,1.2065419328,1.02683
 20033,0.3477850042\H,1.8672469834,1.5807371335,1.0318352221\C,1.877859
 456,1.0056339523,-1.0228623826\C,3.2833223207,0.4115662703,-0.87135052
 63\C,3.2589867794,-0.967011016,-0.2053999459\C,2.4923124826,-0.9481034
 058,1.1191098485\C,1.0746972661,-0.4085592169,0.8973643642\H,0.5150531
 461,-0.3629439855,1.8459895023\N,0.4166217622,-1.3222185092,-0.0274039
 698\C,-0.8372022738,-1.156521611,-0.3092306581\H,-2.0954691452,1.93508
 55186,0.5898802131\H,-0.0138989988,2.7020375311,0.7074218164\H,1.27245
 00411,0.4057156775,-1.7101933946\H,1.9289441433,2.0234456618,-1.428551
 4868\H,3.7667141948,0.3490850526,-1.852990409\H,3.8923074814,1.0991149
 083,-0.2671681929\H,2.7718828496,-1.685923764,-0.8714417647\H,4.284461
 3181,-1.3182635754,-0.0403107018\H,2.4222896967,-1.9600579606,1.531482
 359\H,3.0146777542,-0.3271110359,1.8600021605\H,-1.2962387131,-1.91930
 36797,-0.9361829479\\Version=ES64L-G16RevC.02\HF=-661.2958341\MP2=-663
 .3313544\RMSD=6.828e-09\RMSF=2.145e-03\Dipole=1.9527747,1.6110895,0.69
 90061\PG=C01 [X(C9H13N3O2)]\\@
 The archive entry for this job was punched.


 AND HERE I AM, FOR ALL MY LORE,
 THE WRETCHED FOOL I WAS BEFORE.
 CALLED MASTER OF ARTS, AND DOCTOR TO BOOT,
 FOR TEN YEARS ALMOST I CONFUTE
 AND UP AND DOWN, WHEREVER IT GOES
 I DRAG MY STUDENTS BY THE NOSE --
 AND SEE THAT FOR ALL OUR SCIENCE AND ART
 WE CAN KNOW NOTHING.  IT BURNS MY HEART.

                                       -- FAUST
 Job cpu time:       0 days  1 hours  8 minutes 54.3 seconds.
 Elapsed time:       0 days  0 hours 20 minutes 40.3 seconds.
 File lengths (MBytes):  RWF=     36 Int=      0 D2E=      0 Chk=      7 Scr=      1
 Normal termination of Gaussian 16 at Sat Jul  1 22:29:55 2023.
