 Entering Gaussian System, Link 0=g16
 Initial command:
 /home/alexey/programs//g16/l1.exe "/home/alexey/tmp/Gau-1538452.inp" -scrdir="/home/alexey/tmp/"
 Entering Link 1 = /home/alexey/programs//g16/l1.exe PID=   1538454.
  
 Copyright (c) 1988-2021, Gaussian, Inc.  All Rights Reserved.
  
 This is part of the Gaussian(R) 16 program.  It is based on
 the Gaussian(R) 09 system (copyright 2009, Gaussian, Inc.),
 the Gaussian(R) 03 system (copyright 2003, Gaussian, Inc.),
 the Gaussian(R) 98 system (copyright 1998, Gaussian, Inc.),
 the Gaussian(R) 94 system (copyright 1995, Gaussian, Inc.),
 the Gaussian 92(TM) system (copyright 1992, Gaussian, Inc.),
 the Gaussian 90(TM) system (copyright 1990, Gaussian, Inc.),
 the Gaussian 88(TM) system (copyright 1988, Gaussian, Inc.),
 the Gaussian 86(TM) system (copyright 1986, Carnegie Mellon
 University), and the Gaussian 82(TM) system (copyright 1983,
 Carnegie Mellon University). Gaussian is a federally registered
 trademark of Gaussian, Inc.
  
 This software contains proprietary and confidential information,
 including trade secrets, belonging to Gaussian, Inc.
  
 This software is provided under written license and may be
 used, copied, transmitted, or stored only in accord with that
 written license.
  
 The following legend is applicable only to US Government
 contracts under FAR:
  
                    RESTRICTED RIGHTS LEGEND
  
 Use, reproduction and disclosure by the US Government is
 subject to restrictions as set forth in subparagraphs (a)
 and (c) of the Commercial Computer Software - Restricted
 Rights clause in FAR 52.227-19.
  
 Gaussian, Inc.
 340 Quinnipiac St., Bldg. 40, Wallingford CT 06492
  
  
 ---------------------------------------------------------------
 Warning -- This program may not be used in any manner that
 competes with the business of Gaussian, Inc. or will provide
 assistance to any competitor of Gaussian, Inc.  The licensee
 of this program is prohibited from giving any competitor of
 Gaussian, Inc. access to this program.  By using this program,
 the user acknowledges that Gaussian, Inc. is engaged in the
 business of creating and licensing software in the field of
 computational chemistry and represents and warrants to the
 licensee that it is not a competitor of Gaussian, Inc. and that
 it will not use this program in any manner prohibited above.
 ---------------------------------------------------------------
  

 Cite this work as:
 Gaussian 16, Revision C.02,
 M. J. Frisch, G. W. Trucks, H. B. Schlegel, G. E. Scuseria, 
 M. A. Robb, J. R. Cheeseman, G. Scalmani, V. Barone, 
 G. A. Petersson, H. Nakatsuji, X. Li, M. Caricato, A. V. Marenich, 
 J. Bloino, B. G. Janesko, R. Gomperts, B. Mennucci, H. P. Hratchian, 
 J. V. Ortiz, A. F. Izmaylov, J. L. Sonnenberg, D. Williams-Young, 
 F. Ding, F. Lipparini, F. Egidi, J. Goings, B. Peng, A. Petrone, 
 T. Henderson, D. Ranasinghe, V. G. Zakrzewski, J. Gao, N. Rega, 
 G. Zheng, W. Liang, M. Hada, M. Ehara, K. Toyota, R. Fukuda, 
 J. Hasegawa, M. Ishida, T. Nakajima, Y. Honda, O. Kitao, H. Nakai, 
 T. Vreven, K. Throssell, J. A. Montgomery, Jr., J. E. Peralta, 
 F. Ogliaro, M. J. Bearpark, J. J. Heyd, E. N. Brothers, K. N. Kudin, 
 V. N. Staroverov, T. A. Keith, R. Kobayashi, J. Normand, 
 K. Raghavachari, A. P. Rendell, J. C. Burant, S. S. Iyengar, 
 J. Tomasi, M. Cossi, J. M. Millam, M. Klene, C. Adamo, R. Cammi, 
 J. W. Ochterski, R. L. Martin, K. Morokuma, O. Farkas, 
 J. B. Foresman, and D. J. Fox, Gaussian, Inc., Wallingford CT, 2019.
 
 ******************************************
 Gaussian 16:  ES64L-G16RevC.02  7-Dec-2021
                 2-Jul-2023 
 ******************************************
 %mem=8GB
 %NPROCS=4
 Will use up to    4 processors via shared memory.
 %NoSave
 ---------------------------------------------------------
 #MP2/6-31G* SCF=Tight Opt=(ModRedun, MaxCycle=20 ) NoSymm
 ---------------------------------------------------------
 1/6=20,18=120,19=15,38=1/1,3;
 2/9=110,12=2,15=1,17=6,18=5,40=1/2;
 3/5=1,6=6,7=1,11=9,25=1,30=1,71=1/1,2,3;
 4//1;
 5/5=2,32=2,38=5/2;
 8/6=4,10=2/1;
 9/15=2,16=-3/6;
 10/5=1,31=1/2;
 6/7=2,8=2,9=2,10=2/1;
 7/12=2,30=1/1,2,3,16;
 1/6=20,18=20,19=15/3(2);
 2/9=110,15=1/2;
 99//99;
 2/9=110,15=1/2;
 3/5=1,6=6,7=1,11=9,25=1,30=1,71=1/1,2,3;
 4/5=5,16=3,69=1/1;
 5/5=2,32=2,38=5/2;
 8/6=4,10=2/1;
 9/15=2,16=-3/6;
 10/5=1,31=1/2;
 7/12=2,30=1/1,2,3,16;
 1/6=20,18=20,19=15/3(-8);
 2/9=110,15=1/2;
 6/7=2,8=2,9=2,10=2/1;
 99/9=10/99;
 --------
 MolName:
 --------
 Symbolic Z-matrix:
 Charge =  0 Multiplicity = 1
 8                    0    -3.63656  -1.30228  -0.57773 
 7                    0    -3.20604  -0.15954  -0.43264 
 8                    0    -3.89299   0.84977  -0.5967 
 6                    0    -1.72812   0.00713  -0.06272 
 6                    0    -1.33186   1.3084    0.26828 
 7                    0    -0.08139   1.69624   0.66082 
 6                    0     1.20482   0.96762   0.48698 
 1                    0     1.93457   1.47768   1.16848 
 6                    0     1.82162   1.03712  -0.93239 
 6                    0     3.25839   0.48268  -0.89192 
 6                    0     3.28866  -0.93443  -0.29737 
 6                    0     2.579    -0.98573   1.07299 
 6                    0     1.11267  -0.48272   0.97253 
 1                    0     0.66253  -0.52956   1.99191 
 7                    0     0.37872  -1.38057   0.07856 
 6                    0    -0.89378  -1.23039  -0.09741 
 1                    0    -2.08756   2.11041   0.23035 
 1                    0     0.15026   2.68964   0.73653 
 1                    0     1.20782   0.44685  -1.64566 
 1                    0     1.84437   2.08901  -1.28824 
 1                    0     3.68904   0.47019  -1.91707 
 1                    0     3.88981   1.14922  -0.263 
 1                    0     2.78076  -1.6331   -0.99999 
 1                    0     4.34108  -1.27607  -0.18861 
 1                    0     2.58285  -2.03249   1.44841 
 1                    0     3.13699  -0.36268   1.80288 
 1                    0    -1.43867  -2.11039  -0.47026 
 
 The following ModRedundant input section has been read:
 D       5       6       7       9 F                                           
 D       1       2       4      16 F                                           
 D       7      13      15      16 F                                           
 D       7       9      10      11 F                                           
 D       9      10      11      12 F                                           
 D       6       7      13      15 F                                           
 

 GradGradGradGradGradGradGradGradGradGradGradGradGradGradGradGradGradGrad
 Berny optimization.
 Initialization pass.
                           ----------------------------
                           !    Initial Parameters    !
                           ! (Angstroms and Degrees)  !
 --------------------------                            --------------------------
 ! Name  Definition              Value          Derivative Info.                !
 --------------------------------------------------------------------------------
 ! R1    R(1,2)                  1.2297         estimate D2E/DX2                !
 ! R2    R(2,3)                  1.2319         estimate D2E/DX2                !
 ! R3    R(2,4)                  1.5326         estimate D2E/DX2                !
 ! R4    R(4,5)                  1.4            estimate D2E/DX2                !
 ! R5    R(4,16)                 1.4929         estimate D2E/DX2                !
 ! R6    R(5,6)                  1.3668         estimate D2E/DX2                !
 ! R7    R(5,17)                 1.1026         estimate D2E/DX2                !
 ! R8    R(6,7)                  1.4884         estimate D2E/DX2                !
 ! R9    R(6,18)                 1.0229         estimate D2E/DX2                !
 ! R10   R(7,8)                  1.1212         estimate D2E/DX2                !
 ! R11   R(7,9)                  1.5492         estimate D2E/DX2                !
 ! R12   R(7,13)                 1.5322         estimate D2E/DX2                !
 ! R13   R(9,10)                 1.5406         estimate D2E/DX2                !
 ! R14   R(9,19)                 1.1108         estimate D2E/DX2                !
 ! R15   R(9,20)                 1.1107         estimate D2E/DX2                !
 ! R16   R(10,11)                1.5371         estimate D2E/DX2                !
 ! R17   R(10,21)                1.112          estimate D2E/DX2                !
 ! R18   R(10,22)                1.1129         estimate D2E/DX2                !
 ! R19   R(11,12)                1.5441         estimate D2E/DX2                !
 ! R20   R(11,23)                1.1135         estimate D2E/DX2                !
 ! R21   R(11,24)                1.1118         estimate D2E/DX2                !
 ! R22   R(12,13)                1.5535         estimate D2E/DX2                !
 ! R23   R(12,25)                1.1121         estimate D2E/DX2                !
 ! R24   R(12,26)                1.1101         estimate D2E/DX2                !
 ! R25   R(13,14)                1.1153         estimate D2E/DX2                !
 ! R26   R(13,15)                1.4642         estimate D2E/DX2                !
 ! R27   R(15,16)                1.2934         estimate D2E/DX2                !
 ! R28   R(16,27)                1.1001         estimate D2E/DX2                !
 ! A1    A(1,2,3)              123.3961         estimate D2E/DX2                !
 ! A2    A(1,2,4)              117.8484         estimate D2E/DX2                !
 ! A3    A(3,2,4)              118.7371         estimate D2E/DX2                !
 ! A4    A(2,4,5)              115.5376         estimate D2E/DX2                !
 ! A5    A(2,4,16)             116.3065         estimate D2E/DX2                !
 ! A6    A(5,4,16)             128.1558         estimate D2E/DX2                !
 ! A7    A(4,5,6)              126.2004         estimate D2E/DX2                !
 ! A8    A(4,5,17)             118.2923         estimate D2E/DX2                !
 ! A9    A(6,5,17)             115.5005         estimate D2E/DX2                !
 ! A10   A(5,6,7)              128.1799         estimate D2E/DX2                !
 ! A11   A(5,6,18)             120.2674         estimate D2E/DX2                !
 ! A12   A(7,6,18)             106.76           estimate D2E/DX2                !
 ! A13   A(6,7,8)              105.5896         estimate D2E/DX2                !
 ! A14   A(6,7,9)              115.4108         estimate D2E/DX2                !
 ! A15   A(6,7,13)             111.9858         estimate D2E/DX2                !
 ! A16   A(8,7,9)              106.1021         estimate D2E/DX2                !
 ! A17   A(8,7,13)             106.0891         estimate D2E/DX2                !
 ! A18   A(9,7,13)             110.9009         estimate D2E/DX2                !
 ! A19   A(7,9,10)             109.3363         estimate D2E/DX2                !
 ! A20   A(7,9,19)             110.1495         estimate D2E/DX2                !
 ! A21   A(7,9,20)             110.1324         estimate D2E/DX2                !
 ! A22   A(10,9,19)            109.9355         estimate D2E/DX2                !
 ! A23   A(10,9,20)            109.2782         estimate D2E/DX2                !
 ! A24   A(19,9,20)            107.9897         estimate D2E/DX2                !
 ! A25   A(9,10,11)            111.1206         estimate D2E/DX2                !
 ! A26   A(9,10,21)            109.9382         estimate D2E/DX2                !
 ! A27   A(9,10,22)            109.1741         estimate D2E/DX2                !
 ! A28   A(11,10,21)           109.7924         estimate D2E/DX2                !
 ! A29   A(11,10,22)           108.8092         estimate D2E/DX2                !
 ! A30   A(21,10,22)           107.9379         estimate D2E/DX2                !
 ! A31   A(10,11,12)           111.3996         estimate D2E/DX2                !
 ! A32   A(10,11,23)           108.9921         estimate D2E/DX2                !
 ! A33   A(10,11,24)           109.8633         estimate D2E/DX2                !
 ! A34   A(12,11,23)           109.241          estimate D2E/DX2                !
 ! A35   A(12,11,24)           109.7566         estimate D2E/DX2                !
 ! A36   A(23,11,24)           107.4994         estimate D2E/DX2                !
 ! A37   A(11,12,13)           111.4492         estimate D2E/DX2                !
 ! A38   A(11,12,25)           109.226          estimate D2E/DX2                !
 ! A39   A(11,12,26)           109.5038         estimate D2E/DX2                !
 ! A40   A(13,12,25)           109.262          estimate D2E/DX2                !
 ! A41   A(13,12,26)           109.5875         estimate D2E/DX2                !
 ! A42   A(25,12,26)           107.7341         estimate D2E/DX2                !
 ! A43   A(7,13,12)            105.6773         estimate D2E/DX2                !
 ! A44   A(7,13,14)            110.711          estimate D2E/DX2                !
 ! A45   A(7,13,15)            114.6507         estimate D2E/DX2                !
 ! A46   A(12,13,14)           107.954          estimate D2E/DX2                !
 ! A47   A(12,13,15)           108.3046         estimate D2E/DX2                !
 ! A48   A(14,13,15)           109.2663         estimate D2E/DX2                !
 ! A49   A(13,15,16)           120.3335         estimate D2E/DX2                !
 ! A50   A(4,16,15)            130.0118         estimate D2E/DX2                !
 ! A51   A(4,16,27)            113.2118         estimate D2E/DX2                !
 ! A52   A(15,16,27)           116.1378         estimate D2E/DX2                !
 ! D1    D(1,2,4,5)           -171.6539         estimate D2E/DX2                !
 ! D2    D(1,2,4,16)             8.2584         Frozen                          !
 ! D3    D(3,2,4,5)              9.8492         estimate D2E/DX2                !
 ! D4    D(3,2,4,16)          -170.2385         estimate D2E/DX2                !
 ! D5    D(2,4,5,6)            178.3047         estimate D2E/DX2                !
 ! D6    D(2,4,5,17)            -0.7053         estimate D2E/DX2                !
 ! D7    D(16,4,5,6)            -1.5954         estimate D2E/DX2                !
 ! D8    D(16,4,5,17)          179.3947         estimate D2E/DX2                !
 ! D9    D(2,4,16,15)          175.0643         estimate D2E/DX2                !
 ! D10   D(2,4,16,27)            4.7232         estimate D2E/DX2                !
 ! D11   D(5,4,16,15)           -5.0363         estimate D2E/DX2                !
 ! D12   D(5,4,16,27)         -175.3774         estimate D2E/DX2                !
 ! D13   D(4,5,6,7)             18.0504         estimate D2E/DX2                !
 ! D14   D(4,5,6,18)           170.1361         estimate D2E/DX2                !
 ! D15   D(17,5,6,7)          -162.9154         estimate D2E/DX2                !
 ! D16   D(17,5,6,18)          -10.8298         estimate D2E/DX2                !
 ! D17   D(5,6,7,8)           -165.4815         estimate D2E/DX2                !
 ! D18   D(5,6,7,9)             77.6894         Frozen                          !
 ! D19   D(5,6,7,13)           -50.4619         estimate D2E/DX2                !
 ! D20   D(18,6,7,8)            39.4966         estimate D2E/DX2                !
 ! D21   D(18,6,7,9)           -77.3325         estimate D2E/DX2                !
 ! D22   D(18,6,7,13)          154.5162         estimate D2E/DX2                !
 ! D23   D(6,7,9,10)           169.1039         estimate D2E/DX2                !
 ! D24   D(6,7,9,19)           -69.9882         estimate D2E/DX2                !
 ! D25   D(6,7,9,20)            49.0178         estimate D2E/DX2                !
 ! D26   D(8,7,9,10)            52.5642         estimate D2E/DX2                !
 ! D27   D(8,7,9,19)           173.4721         estimate D2E/DX2                !
 ! D28   D(8,7,9,20)           -67.5219         estimate D2E/DX2                !
 ! D29   D(13,7,9,10)          -62.2075         estimate D2E/DX2                !
 ! D30   D(13,7,9,19)           58.7004         estimate D2E/DX2                !
 ! D31   D(13,7,9,20)          177.7064         estimate D2E/DX2                !
 ! D32   D(6,7,13,12)         -165.7884         estimate D2E/DX2                !
 ! D33   D(6,7,13,14)          -49.1475         estimate D2E/DX2                !
 ! D34   D(6,7,13,15)           75.0214         Frozen                          !
 ! D35   D(8,7,13,12)          -51.0746         estimate D2E/DX2                !
 ! D36   D(8,7,13,14)           65.5663         estimate D2E/DX2                !
 ! D37   D(8,7,13,15)         -170.2648         estimate D2E/DX2                !
 ! D38   D(9,7,13,12)           63.7052         estimate D2E/DX2                !
 ! D39   D(9,7,13,14)         -179.6538         estimate D2E/DX2                !
 ! D40   D(9,7,13,15)          -55.4849         estimate D2E/DX2                !
 ! D41   D(7,9,10,11)           54.8118         Frozen                          !
 ! D42   D(7,9,10,21)          176.5652         estimate D2E/DX2                !
 ! D43   D(7,9,10,22)          -65.2052         estimate D2E/DX2                !
 ! D44   D(19,9,10,11)         -66.2261         estimate D2E/DX2                !
 ! D45   D(19,9,10,21)          55.5273         estimate D2E/DX2                !
 ! D46   D(19,9,10,22)         173.7568         estimate D2E/DX2                !
 ! D47   D(20,9,10,11)         175.4204         estimate D2E/DX2                !
 ! D48   D(20,9,10,21)         -62.8262         estimate D2E/DX2                !
 ! D49   D(20,9,10,22)          55.4034         estimate D2E/DX2                !
 ! D50   D(9,10,11,12)         -52.8216         Frozen                          !
 ! D51   D(9,10,11,23)          67.7888         estimate D2E/DX2                !
 ! D52   D(9,10,11,24)        -174.665          estimate D2E/DX2                !
 ! D53   D(21,10,11,12)       -174.66           estimate D2E/DX2                !
 ! D54   D(21,10,11,23)        -54.0496         estimate D2E/DX2                !
 ! D55   D(21,10,11,24)         63.4966         estimate D2E/DX2                !
 ! D56   D(22,10,11,12)         67.4119         estimate D2E/DX2                !
 ! D57   D(22,10,11,23)       -171.9777         estimate D2E/DX2                !
 ! D58   D(22,10,11,24)        -54.4315         estimate D2E/DX2                !
 ! D59   D(10,11,12,13)         56.717          estimate D2E/DX2                !
 ! D60   D(10,11,12,25)        177.54           estimate D2E/DX2                !
 ! D61   D(10,11,12,26)        -64.7009         estimate D2E/DX2                !
 ! D62   D(23,11,12,13)        -63.7472         estimate D2E/DX2                !
 ! D63   D(23,11,12,25)         57.0758         estimate D2E/DX2                !
 ! D64   D(23,11,12,26)        174.8348         estimate D2E/DX2                !
 ! D65   D(24,11,12,13)        178.6222         estimate D2E/DX2                !
 ! D66   D(24,11,12,25)        -60.5548         estimate D2E/DX2                !
 ! D67   D(24,11,12,26)         57.2042         estimate D2E/DX2                !
 ! D68   D(11,12,13,7)         -60.6561         estimate D2E/DX2                !
 ! D69   D(11,12,13,14)       -179.15           estimate D2E/DX2                !
 ! D70   D(11,12,13,15)         62.6515         estimate D2E/DX2                !
 ! D71   D(25,12,13,7)         178.5419         estimate D2E/DX2                !
 ! D72   D(25,12,13,14)         60.048          estimate D2E/DX2                !
 ! D73   D(25,12,13,15)        -58.1505         estimate D2E/DX2                !
 ! D74   D(26,12,13,7)          60.7132         estimate D2E/DX2                !
 ! D75   D(26,12,13,14)        -57.7807         estimate D2E/DX2                !
 ! D76   D(26,12,13,15)       -175.9793         estimate D2E/DX2                !
 ! D77   D(7,13,15,16)         -67.1595         Frozen                          !
 ! D78   D(12,13,15,16)        175.1323         estimate D2E/DX2                !
 ! D79   D(14,13,15,16)         57.7726         estimate D2E/DX2                !
 ! D80   D(13,15,16,4)          30.9304         estimate D2E/DX2                !
 ! D81   D(13,15,16,27)       -158.9601         estimate D2E/DX2                !
 --------------------------------------------------------------------------------
 Trust Radius=3.00D-01 FncErr=1.00D-07 GrdErr=1.00D-07 EigMax=2.50D+02 EigMin=1.00D-04
 Number of steps in this run=     20 maximum allowed number of steps=    162.
 GradGradGradGradGradGradGradGradGradGradGradGradGradGradGradGradGradGrad

                          Input orientation:                          
 ---------------------------------------------------------------------
 Center     Atomic      Atomic             Coordinates (Angstroms)
 Number     Number       Type             X           Y           Z
 ---------------------------------------------------------------------
      1          8           0       -3.636560   -1.302280   -0.577730
      2          7           0       -3.206040   -0.159540   -0.432640
      3          8           0       -3.892990    0.849770   -0.596700
      4          6           0       -1.728120    0.007130   -0.062720
      5          6           0       -1.331860    1.308400    0.268280
      6          7           0       -0.081390    1.696240    0.660820
      7          6           0        1.204820    0.967620    0.486980
      8          1           0        1.934570    1.477680    1.168480
      9          6           0        1.821620    1.037120   -0.932390
     10          6           0        3.258390    0.482680   -0.891920
     11          6           0        3.288660   -0.934430   -0.297370
     12          6           0        2.579000   -0.985730    1.072990
     13          6           0        1.112670   -0.482720    0.972530
     14          1           0        0.662530   -0.529560    1.991910
     15          7           0        0.378720   -1.380570    0.078560
     16          6           0       -0.893780   -1.230390   -0.097410
     17          1           0       -2.087560    2.110410    0.230350
     18          1           0        0.150260    2.689640    0.736530
     19          1           0        1.207820    0.446850   -1.645660
     20          1           0        1.844370    2.089010   -1.288240
     21          1           0        3.689040    0.470190   -1.917070
     22          1           0        3.889810    1.149220   -0.263000
     23          1           0        2.780760   -1.633100   -0.999990
     24          1           0        4.341080   -1.276070   -0.188610
     25          1           0        2.582850   -2.032490    1.448410
     26          1           0        3.136990   -0.362680    1.802880
     27          1           0       -1.438670   -2.110390   -0.470260
 ---------------------------------------------------------------------
                    Distance matrix (angstroms):
                    1          2          3          4          5
     1  O    0.000000
     2  N    1.229737   0.000000
     3  O    2.167357   1.231878   0.000000
     4  C    2.371062   1.532601   2.383661   0.000000
     5  C    3.583717   2.481670   2.741882   1.399959   0.000000
     6  N    4.812937   3.795130   4.101971   2.467453   1.366815
     7  C    5.452065   4.644553   5.213053   3.134780   2.568795
     8  H    6.466445   5.627606   6.121322   4.134449   3.392430
     9  C    5.948975   5.192216   5.727526   3.797086   3.385209
    10  C    7.129175   6.512468   7.166878   5.077303   4.806066
    11  C    6.940647   6.542162   7.406015   5.109763   5.167151
    12  C    6.438809   6.034584   6.931348   4.563649   4.604934
    13  C    5.062625   4.553043   5.412453   3.062970   3.111239
    14  H    5.067773   4.580523   5.418138   3.197616   3.213501
    15  N    4.069314   3.821354   4.865994   2.526746   3.192591
    16  C    2.785447   2.570145   3.683968   1.492911   2.602133
    17  H    3.833908   2.615956   2.352191   2.153805   1.102607
    18  H    5.657094   4.555166   4.637941   3.370901   2.079366
    19  H    5.260033   4.617498   5.223114   3.364342   3.294755
    20  H    6.484309   5.594164   5.910266   4.312634   3.622229
    21  H    7.655057   7.081117   7.705494   5.744446   5.539656
    22  H    7.921815   7.217529   7.795704   5.736342   5.251041
    23  H    6.439700   6.191530   7.132056   4.888643   5.212924
    24  H    7.987167   7.633165   8.513850   6.204647   6.250639
    25  H    6.581756   6.368480   7.377425   5.002802   5.280076
    26  H    7.240934   6.728510   7.526529   5.223650   5.011799
    27  H    2.344208   2.632647   3.847365   2.175721   3.499282
                    6          7          8          9         10
     6  N    0.000000
     7  C    1.488437   0.000000
     8  H    2.090354   1.121222   0.000000
     9  C    2.567918   1.549156   2.149536   0.000000
    10  C    3.877868   2.520651   2.643440   1.540568   0.000000
    11  C    4.381300   2.928376   3.130583   2.538201   1.537077
    12  C    3.800069   2.459137   2.548097   2.947388   2.545323
    13  C    2.504158   1.532233   2.134733   2.537961   3.002047
    14  H    2.698037   2.190991   2.514982   3.514186   4.009937
    15  N    3.165041   2.522547   3.431936   2.991522   3.564552
    16  C    3.130504   3.094654   4.115299   3.634858   4.561400
    17  H    2.093217   3.494509   4.178273   4.217298   5.699840
    18  H    1.022857   2.034631   2.199816   2.882631   4.145238
    19  H    2.922822   2.195305   3.083855   1.110821   2.185005
    20  H    2.767969   2.194982   2.533246   1.110684   2.176423
    21  H    4.729150   3.492598   3.689691   2.185924   1.112002
    22  H    4.113770   2.793675   2.445401   2.176708   1.112882
    23  H    4.694113   3.385028   3.885261   2.838062   2.171712
    24  H    5.395776   3.914932   3.900785   3.500248   2.181757
    25  H    4.649936   3.438601   3.580492   3.958558   3.501368
    26  H    3.987659   2.689716   2.288056   3.342355   2.826892
    27  H    4.196663   4.168752   5.190228   4.555203   5.381838
                   11         12         13         14         15
    11  C    0.000000
    12  C    1.544065   0.000000
    13  C    2.559613   1.553459   0.000000
    14  H    3.507318   2.173790   1.115328   0.000000
    15  N    2.967847   2.446635   1.464240   2.113214   0.000000
    16  C    4.197664   3.672859   2.393663   2.697874   1.293358
    17  H    6.201071   5.663295   4.185287   4.199468   4.276975
    18  H    4.904323   4.418182   3.323522   3.493086   4.129374
    19  H    2.838259   3.365038   2.779941   3.805605   2.645715
    20  H    3.494136   3.945772   3.501466   4.360394   4.006776
    21  H    2.180984   3.506045   3.986917   5.043747   4.285565
    22  H    2.168908   2.839208   3.449967   4.279983   4.340997
    23  H    1.113453   2.181064   2.827850   3.828337   2.645154
    24  H    1.111816   2.186517   3.521403   4.340930   3.972732
    25  H    2.179828   1.112053   2.188533   2.498363   2.675757
    26  H    2.181961   1.110083   2.191292   2.487274   3.408436
    27  H    4.874466   4.448388   3.352654   3.602270   2.033899
                   16         17         18         19         20
    16  C    0.000000
    17  H    3.562791   0.000000
    18  H    4.141511   2.366340   0.000000
    19  H    3.102730   4.140818   3.438513   0.000000
    20  H    4.464746   4.215050   2.707482   1.797118   0.000000
    21  H    5.215877   6.377370   4.948789   2.496129   2.533538
    22  H    5.345343   6.074227   4.166076   3.098087   2.473489
    23  H    3.805137   6.263237   5.349870   2.686489   3.848898
    24  H    5.235854   7.278131   5.843433   3.861187   4.332033
    25  H    3.888429   6.360819   5.359364   4.196559   5.002136
    26  H    4.539948   5.990405   4.401626   4.033542   4.151707
    27  H    1.100146   4.327478   5.198204   3.863282   5.392810
                   21         22         23         24         25
    21  H    0.000000
    22  H    1.799260   0.000000
    23  H    2.467760   3.084550   0.000000
    24  H    2.542077   2.468038   1.794549   0.000000
    25  H    4.337455   3.841920   2.488643   2.518606   0.000000
    26  H    3.851813   2.668415   3.097894   2.500029   1.794710
    27  H    5.919971   6.249857   4.279253   5.846446   4.456454
                   26         27
    26  H    0.000000
    27  H    5.399844   0.000000
 Symmetry turned off by external request.
 Stoichiometry    C9H13N3O2
 Framework group  C1[X(C9H13N3O2)]
 Deg. of freedom    75
 Full point group                 C1      NOp   1
 Rotational constants (GHZ):           1.6000480           0.4040927           0.3622910
 Standard basis: 6-31G(d) (6D, 7F)
   236 basis functions,   444 primitive gaussians,   236 cartesian basis functions
    52 alpha electrons       52 beta electrons
       nuclear repulsion energy       917.7673029259 Hartrees.
 NAtoms=   27 NActive=   27 NUniq=   27 SFac= 1.00D+00 NAtFMM=   60 NAOKFM=F Big=F
 Integral buffers will be    131072 words long.
 Raffenetti 1 integral format.
 Two-electron integral symmetry is turned off.
 One-electron integrals computed using PRISM.
 NBasis=   236 RedAO= T EigKep=  1.27D-03  NBF=   236
 NBsUse=   236 1.00D-06 EigRej= -1.00D+00 NBFU=   236
 ExpMin= 1.61D-01 ExpMax= 5.48D+03 ExpMxC= 8.25D+02 IAcc=3 IRadAn=         5 AccDes= 0.00D+00
 Harris functional with IExCor=  205 and IRadAn=       5 diagonalized for initial guess.
 HarFok:  IExCor=  205 AccDes= 0.00D+00 IRadAn=         5 IDoV= 1 UseB2=F ITyADJ=14
 ICtDFT=  3500011 ScaDFX=  1.000000  1.000000  1.000000  1.000000
 FoFCou: FMM=F IPFlag=           0 FMFlag=      100000 FMFlg1=           0
         NFxFlg=           0 DoJE=T BraDBF=F KetDBF=T FulRan=T
         wScrn=  0.000000 ICntrl=       500 IOpCl=  0 I1Cent=   200000004 NGrid=           0
         NMat0=    1 NMatS0=      1 NMatT0=    0 NMatD0=    1 NMtDS0=    0 NMtDT0=    0
 Symmetry not used in FoFCou.
 Keep R1 ints in memory in canonical form, NReq=397720213.
 Requested convergence on RMS density matrix=1.00D-08 within 128 cycles.
 Requested convergence on MAX density matrix=1.00D-06.
 Requested convergence on             energy=1.00D-06.
 No special actions if energy rises.
 SCF Done:  E(RHF) =  -661.275229530     A.U. after   16 cycles
            NFock= 16  Conv=0.71D-08     -V/T= 2.0036
 ExpMin= 1.61D-01 ExpMax= 5.48D+03 ExpMxC= 8.25D+02 IAcc=3 IRadAn=         5 AccDes= 0.00D+00
 HarFok:  IExCor=  205 AccDes= 0.00D+00 IRadAn=         5 IDoV=-2 UseB2=F ITyADJ=14
 ICtDFT= 12500011 ScaDFX=  1.000000  1.000000  1.000000  1.000000
 Range of M.O.s used for correlation:    15   236
 NBasis=   236 NAE=    52 NBE=    52 NFC=    14 NFV=     0
 NROrb=    222 NOA=    38 NOB=    38 NVA=   184 NVB=   184
 Fully direct method using O(ONN) memory.
 JobTyp=1 Pass  1:  I=  15 to  52 NPSUse=  4 ParTrn=T ParDer=T DoDerP=T.
 Spin components of T(2) and E(2):
     alpha-alpha T2 =       0.9216997705D-01 E2=     -0.2720109838D+00
     alpha-beta  T2 =       0.4998388772D+00 E2=     -0.1493877664D+01
     beta-beta   T2 =       0.9216997705D-01 E2=     -0.2720109838D+00
 ANorm=    0.1297759158D+01
 E2 =    -0.2037899632D+01 EUMP2 =    -0.66331312916187D+03
          IDoAtm=111111111111111111111111111
          Differentiating once with respect to electric field.
                with respect to dipole field.
          Differentiating once with respect to nuclear coordinates.
 Keep R1 ints in memory in canonical form, NReq=397723379.
          There are     1 degrees of freedom in the 1st order CPHF.  IDoFFX=0 NUNeed=     1.
 LinEq1:  Iter=  0 NonCon=     1 RMS=4.68D-03 Max=1.30D-01 NDo=     1
 AX will form     1 AO Fock derivatives at one time.
 LinEq1:  Iter=  1 NonCon=     1 RMS=1.59D-03 Max=5.16D-02 NDo=     1
 LinEq1:  Iter=  2 NonCon=     1 RMS=6.58D-04 Max=2.13D-02 NDo=     1
 LinEq1:  Iter=  3 NonCon=     1 RMS=3.00D-04 Max=9.80D-03 NDo=     1
 LinEq1:  Iter=  4 NonCon=     1 RMS=9.54D-05 Max=2.66D-03 NDo=     1
 LinEq1:  Iter=  5 NonCon=     1 RMS=3.95D-05 Max=1.80D-03 NDo=     1
 LinEq1:  Iter=  6 NonCon=     1 RMS=1.63D-05 Max=5.41D-04 NDo=     1
 LinEq1:  Iter=  7 NonCon=     1 RMS=6.19D-06 Max=7.16D-05 NDo=     1
 LinEq1:  Iter=  8 NonCon=     1 RMS=2.45D-06 Max=5.23D-05 NDo=     1
 LinEq1:  Iter=  9 NonCon=     1 RMS=9.14D-07 Max=2.66D-05 NDo=     1
 LinEq1:  Iter= 10 NonCon=     1 RMS=4.30D-07 Max=1.26D-05 NDo=     1
 LinEq1:  Iter= 11 NonCon=     1 RMS=1.65D-07 Max=5.38D-06 NDo=     1
 LinEq1:  Iter= 12 NonCon=     1 RMS=5.90D-08 Max=1.08D-06 NDo=     1
 LinEq1:  Iter= 13 NonCon=     1 RMS=1.88D-08 Max=4.28D-07 NDo=     1
 LinEq1:  Iter= 14 NonCon=     1 RMS=5.94D-09 Max=1.74D-07 NDo=     1
 LinEq1:  Iter= 15 NonCon=     1 RMS=2.16D-09 Max=6.83D-08 NDo=     1
 LinEq1:  Iter= 16 NonCon=     1 RMS=7.68D-10 Max=1.30D-08 NDo=     1
 LinEq1:  Iter= 17 NonCon=     1 RMS=2.57D-10 Max=5.01D-09 NDo=     1
 LinEq1:  Iter= 18 NonCon=     1 RMS=9.16D-11 Max=1.37D-09 NDo=     1
 LinEq1:  Iter= 19 NonCon=     0 RMS=3.20D-11 Max=6.02D-10 NDo=     1
 Linear equations converged to 1.000D-10 1.000D-09 after    19 iterations.
 End of Minotr F.D. properties file   721 does not exist.
 End of Minotr F.D. properties file   722 does not exist.
 End of Minotr F.D. properties file   788 does not exist.

 **********************************************************************

            Population analysis using the SCF Density.

 **********************************************************************

 Alpha  occ. eigenvalues --  -20.59780 -20.59441 -15.85322 -15.63779 -15.55990
 Alpha  occ. eigenvalues --  -11.35985 -11.30541 -11.30210 -11.29965 -11.27509
 Alpha  occ. eigenvalues --  -11.24639 -11.23886 -11.23230 -11.22834  -1.58492
 Alpha  occ. eigenvalues --   -1.37963  -1.29049  -1.22371  -1.13261  -1.08408
 Alpha  occ. eigenvalues --   -1.01667  -1.00715  -0.93713  -0.88888  -0.84868
 Alpha  occ. eigenvalues --   -0.81505  -0.78002  -0.77011  -0.74375  -0.71245
 Alpha  occ. eigenvalues --   -0.70273  -0.69818  -0.67347  -0.63964  -0.63387
 Alpha  occ. eigenvalues --   -0.61925  -0.59710  -0.57405  -0.56478  -0.54765
 Alpha  occ. eigenvalues --   -0.54229  -0.50494  -0.49782  -0.48627  -0.47849
 Alpha  occ. eigenvalues --   -0.47771  -0.46433  -0.45269  -0.44058  -0.42228
 Alpha  occ. eigenvalues --   -0.38757  -0.33485
 Alpha virt. eigenvalues --    0.07242   0.11375   0.17242   0.21622   0.23813
 Alpha virt. eigenvalues --    0.25020   0.25819   0.27945   0.28591   0.28896
 Alpha virt. eigenvalues --    0.30132   0.31540   0.31779   0.32438   0.33161
 Alpha virt. eigenvalues --    0.33961   0.34699   0.35805   0.37651   0.38942
 Alpha virt. eigenvalues --    0.40283   0.41109   0.43788   0.45118   0.45306
 Alpha virt. eigenvalues --    0.47143   0.49852   0.53373   0.57685   0.59076
 Alpha virt. eigenvalues --    0.63211   0.68215   0.69551   0.72560   0.74058
 Alpha virt. eigenvalues --    0.74897   0.75731   0.76053   0.78134   0.78588
 Alpha virt. eigenvalues --    0.81039   0.82233   0.84538   0.84926   0.87817
 Alpha virt. eigenvalues --    0.88379   0.90736   0.92033   0.92590   0.93694
 Alpha virt. eigenvalues --    0.95073   0.97481   0.99291   1.01078   1.01951
 Alpha virt. eigenvalues --    1.03119   1.04976   1.05874   1.07117   1.08554
 Alpha virt. eigenvalues --    1.09894   1.10722   1.11768   1.12871   1.13097
 Alpha virt. eigenvalues --    1.13293   1.14450   1.15088   1.15807   1.16612
 Alpha virt. eigenvalues --    1.17778   1.20108   1.21320   1.21982   1.23029
 Alpha virt. eigenvalues --    1.23142   1.25090   1.25793   1.27260   1.28801
 Alpha virt. eigenvalues --    1.29216   1.31380   1.34502   1.36543   1.39004
 Alpha virt. eigenvalues --    1.41696   1.47547   1.52024   1.52753   1.53673
 Alpha virt. eigenvalues --    1.54352   1.58771   1.60653   1.64275   1.65824
 Alpha virt. eigenvalues --    1.67043   1.68386   1.71935   1.72703   1.76388
 Alpha virt. eigenvalues --    1.79946   1.82450   1.83670   1.86828   1.91336
 Alpha virt. eigenvalues --    1.93334   1.95938   1.98109   2.00062   2.00761
 Alpha virt. eigenvalues --    2.02802   2.03218   2.05602   2.09594   2.11484
 Alpha virt. eigenvalues --    2.11796   2.13127   2.16655   2.18134   2.19620
 Alpha virt. eigenvalues --    2.20481   2.22278   2.24124   2.24672   2.26025
 Alpha virt. eigenvalues --    2.28827   2.31978   2.32906   2.35218   2.37105
 Alpha virt. eigenvalues --    2.39502   2.42053   2.42762   2.44915   2.45473
 Alpha virt. eigenvalues --    2.48730   2.50738   2.51559   2.56174   2.57500
 Alpha virt. eigenvalues --    2.60374   2.63419   2.66678   2.67730   2.68372
 Alpha virt. eigenvalues --    2.69315   2.70573   2.74048   2.75093   2.81481
 Alpha virt. eigenvalues --    2.84662   2.86179   2.89807   2.91635   2.93871
 Alpha virt. eigenvalues --    2.97709   2.97979   3.02148   3.05670   3.07025
 Alpha virt. eigenvalues --    3.08444   3.14732   3.18752   3.22758   3.27231
 Alpha virt. eigenvalues --    3.31327   3.31633   3.38245   3.42155   3.60317
 Alpha virt. eigenvalues --    4.10403   4.23040   4.32296   4.36304   4.44505
 Alpha virt. eigenvalues --    4.51894   4.59473   4.59965   4.70509   4.78322
 Alpha virt. eigenvalues --    4.96427   4.99238   5.04801   5.08804
          Condensed to atoms (all electrons):
               1          2          3          4          5          6
     1  O    8.302936   0.309320  -0.090368  -0.076502   0.003513  -0.000011
     2  N    0.309320   5.677881   0.312627   0.264191  -0.048787   0.000703
     3  O   -0.090368   0.312627   8.328365  -0.088152   0.008071   0.000489
     4  C   -0.076502   0.264191  -0.088152   5.261021   0.563018  -0.052457
     5  C    0.003513  -0.048787   0.008071   0.563018   4.688424   0.317313
     6  N   -0.000011   0.000703   0.000489  -0.052457   0.317313   7.149930
     7  C    0.000001  -0.000101   0.000001   0.006411  -0.029856   0.206936
     8  H   -0.000000   0.000001  -0.000000  -0.000261   0.002982  -0.044900
     9  C    0.000000  -0.000006  -0.000000   0.000659   0.000360  -0.058400
    10  C   -0.000000   0.000000   0.000000  -0.000026  -0.000019   0.003343
    11  C   -0.000000  -0.000000  -0.000000  -0.000012   0.000008  -0.000149
    12  C    0.000000   0.000001  -0.000000  -0.000275  -0.000124   0.003936
    13  C   -0.000007   0.000025  -0.000000  -0.007430  -0.001051  -0.054069
    14  H    0.000000  -0.000025   0.000000   0.001635   0.002442  -0.004910
    15  N    0.000423   0.001433  -0.000008  -0.064180  -0.005024   0.002111
    16  C    0.000635  -0.021176   0.002094   0.308795  -0.044356   0.001595
    17  H    0.000155  -0.004489   0.012772  -0.023986   0.374542  -0.031749
    18  H    0.000000  -0.000032   0.000008   0.001784  -0.026715   0.332381
    19  H    0.000000  -0.000005  -0.000000  -0.000972   0.001374  -0.000514
    20  H    0.000000   0.000000   0.000000  -0.000033  -0.000049  -0.000270
    21  H   -0.000000  -0.000000  -0.000000   0.000001   0.000001  -0.000063
    22  H   -0.000000   0.000000  -0.000000  -0.000001  -0.000001  -0.000090
    23  H    0.000000  -0.000000   0.000000   0.000025  -0.000001  -0.000024
    24  H    0.000000   0.000000   0.000000  -0.000000  -0.000000   0.000005
    25  H    0.000000  -0.000000   0.000000   0.000025  -0.000001  -0.000077
    26  H    0.000000  -0.000000   0.000000   0.000004  -0.000001  -0.000079
    27  H    0.007053  -0.000115   0.000071  -0.068429   0.001972  -0.000025
               7          8          9         10         11         12
     1  O    0.000001  -0.000000   0.000000  -0.000000  -0.000000   0.000000
     2  N   -0.000101   0.000001  -0.000006   0.000000  -0.000000   0.000001
     3  O    0.000001  -0.000000  -0.000000   0.000000  -0.000000  -0.000000
     4  C    0.006411  -0.000261   0.000659  -0.000026  -0.000012  -0.000275
     5  C   -0.029856   0.002982   0.000360  -0.000019   0.000008  -0.000124
     6  N    0.206936  -0.044900  -0.058400   0.003343  -0.000149   0.003936
     7  C    5.056859   0.412408   0.343242  -0.049074  -0.008341  -0.065238
     8  H    0.412408   0.543158  -0.056258   0.000436  -0.000159  -0.003373
     9  C    0.343242  -0.056258   5.171331   0.320457  -0.053855  -0.005206
    10  C   -0.049074   0.000436   0.320457   5.126192   0.332482  -0.060867
    11  C   -0.008341  -0.000159  -0.053855   0.332482   5.125369   0.330348
    12  C   -0.065238  -0.003373  -0.005206  -0.060867   0.330348   5.143614
    13  C    0.310077  -0.037529  -0.055970  -0.000757  -0.046838   0.366637
    14  H   -0.042673  -0.000769   0.003751  -0.000383   0.003967  -0.041380
    15  N   -0.065310   0.004025  -0.011055   0.001136  -0.007112  -0.076060
    16  C   -0.000101  -0.000200   0.000085  -0.000090  -0.000020   0.002638
    17  H    0.001476  -0.000054  -0.000032   0.000001  -0.000000   0.000001
    18  H   -0.030445  -0.004509   0.001176  -0.000111   0.000010  -0.000161
    19  H   -0.035288   0.003940   0.389179  -0.033706  -0.002085   0.000514
    20  H   -0.042058  -0.001815   0.397028  -0.036767   0.004123  -0.000393
    21  H    0.004098  -0.000064  -0.036009   0.400117  -0.035759   0.004248
    22  H   -0.004570   0.003546  -0.045522   0.395717  -0.045476  -0.001254
    23  H    0.000522   0.000035  -0.002052  -0.040289   0.396564  -0.036835
    24  H   -0.000149  -0.000107   0.004412  -0.038480   0.400443  -0.037665
    25  H    0.005261  -0.000022  -0.000397   0.004117  -0.033651   0.394532
    26  H   -0.004384   0.001440   0.001109  -0.002443  -0.042591   0.393799
    27  H   -0.000385   0.000008  -0.000039   0.000002   0.000007  -0.000023
              13         14         15         16         17         18
     1  O   -0.000007   0.000000   0.000423   0.000635   0.000155   0.000000
     2  N    0.000025  -0.000025   0.001433  -0.021176  -0.004489  -0.000032
     3  O   -0.000000   0.000000  -0.000008   0.002094   0.012772   0.000008
     4  C   -0.007430   0.001635  -0.064180   0.308795  -0.023986   0.001784
     5  C   -0.001051   0.002442  -0.005024  -0.044356   0.374542  -0.026715
     6  N   -0.054069  -0.004910   0.002111   0.001595  -0.031749   0.332381
     7  C    0.310077  -0.042673  -0.065310  -0.000101   0.001476  -0.030445
     8  H   -0.037529  -0.000769   0.004025  -0.000200  -0.000054  -0.004509
     9  C   -0.055970   0.003751  -0.011055   0.000085  -0.000032   0.001176
    10  C   -0.000757  -0.000383   0.001136  -0.000090   0.000001  -0.000111
    11  C   -0.046838   0.003967  -0.007112  -0.000020  -0.000000   0.000010
    12  C    0.366637  -0.041380  -0.076060   0.002638   0.000001  -0.000161
    13  C    5.018343   0.410477   0.253714  -0.065555  -0.000090   0.004119
    14  H    0.410477   0.516260  -0.033291  -0.008535   0.000001  -0.000018
    15  N    0.253714  -0.033291   6.967757   0.575343  -0.000060  -0.000127
    16  C   -0.065555  -0.008535   0.575343   4.714533   0.001353  -0.000170
    17  H   -0.000090   0.000001  -0.000060   0.001353   0.380542  -0.002697
    18  H    0.004119  -0.000018  -0.000127  -0.000170  -0.002697   0.326150
    19  H   -0.005730   0.000057   0.006397   0.001506   0.000002  -0.000129
    20  H    0.003981  -0.000054   0.000089  -0.000047  -0.000018   0.001838
    21  H   -0.000421   0.000009  -0.000035   0.000003  -0.000000   0.000001
    22  H    0.000322  -0.000041   0.000011  -0.000000   0.000000   0.000002
    23  H   -0.006038   0.000000   0.006745   0.000087   0.000000   0.000000
    24  H    0.004160  -0.000062   0.000001   0.000005   0.000000  -0.000000
    25  H   -0.034337  -0.002782   0.001624  -0.000068  -0.000000   0.000003
    26  H   -0.045147  -0.000900   0.004238  -0.000028   0.000000  -0.000001
    27  H    0.004645  -0.000130  -0.041527   0.404924  -0.000064   0.000000
              19         20         21         22         23         24
     1  O    0.000000   0.000000  -0.000000  -0.000000   0.000000   0.000000
     2  N   -0.000005   0.000000  -0.000000   0.000000  -0.000000   0.000000
     3  O   -0.000000   0.000000  -0.000000  -0.000000   0.000000   0.000000
     4  C   -0.000972  -0.000033   0.000001  -0.000001   0.000025  -0.000000
     5  C    0.001374  -0.000049   0.000001  -0.000001  -0.000001  -0.000000
     6  N   -0.000514  -0.000270  -0.000063  -0.000090  -0.000024   0.000005
     7  C   -0.035288  -0.042058   0.004098  -0.004570   0.000522  -0.000149
     8  H    0.003940  -0.001815  -0.000064   0.003546   0.000035  -0.000107
     9  C    0.389179   0.397028  -0.036009  -0.045522  -0.002052   0.004412
    10  C   -0.033706  -0.036767   0.400117   0.395717  -0.040289  -0.038480
    11  C   -0.002085   0.004123  -0.035759  -0.045476   0.396564   0.400443
    12  C    0.000514  -0.000393   0.004248  -0.001254  -0.036835  -0.037665
    13  C   -0.005730   0.003981  -0.000421   0.000322  -0.006038   0.004160
    14  H    0.000057  -0.000054   0.000009  -0.000041   0.000000  -0.000062
    15  N    0.006397   0.000089  -0.000035   0.000011   0.006745   0.000001
    16  C    0.001506  -0.000047   0.000003  -0.000000   0.000087   0.000005
    17  H    0.000002  -0.000018  -0.000000   0.000000   0.000000   0.000000
    18  H   -0.000129   0.001838   0.000001   0.000002   0.000000  -0.000000
    19  H    0.505167  -0.023667  -0.002535   0.003763   0.001694  -0.000075
    20  H   -0.023667   0.546005  -0.002670  -0.002919  -0.000049  -0.000090
    21  H   -0.002535  -0.002670   0.525412  -0.024682  -0.002829  -0.002065
    22  H    0.003763  -0.002919  -0.024682   0.569539   0.004071  -0.003537
    23  H    0.001694  -0.000049  -0.002829   0.004071   0.510727  -0.024886
    24  H   -0.000075  -0.000090  -0.002065  -0.003537  -0.024886   0.540362
    25  H   -0.000028   0.000011  -0.000086  -0.000083  -0.002047  -0.002426
    26  H    0.000023  -0.000035  -0.000071   0.002451   0.003852  -0.002762
    27  H    0.000060   0.000000  -0.000000   0.000000  -0.000021  -0.000000
              25         26         27
     1  O    0.000000   0.000000   0.007053
     2  N   -0.000000  -0.000000  -0.000115
     3  O    0.000000   0.000000   0.000071
     4  C    0.000025   0.000004  -0.068429
     5  C   -0.000001  -0.000001   0.001972
     6  N   -0.000077  -0.000079  -0.000025
     7  C    0.005261  -0.004384  -0.000385
     8  H   -0.000022   0.001440   0.000008
     9  C   -0.000397   0.001109  -0.000039
    10  C    0.004117  -0.002443   0.000002
    11  C   -0.033651  -0.042591   0.000007
    12  C    0.394532   0.393799  -0.000023
    13  C   -0.034337  -0.045147   0.004645
    14  H   -0.002782  -0.000900  -0.000130
    15  N    0.001624   0.004238  -0.041527
    16  C   -0.000068  -0.000028   0.404924
    17  H   -0.000000   0.000000  -0.000064
    18  H    0.000003  -0.000001   0.000000
    19  H   -0.000028   0.000023   0.000060
    20  H    0.000011  -0.000035   0.000000
    21  H   -0.000086  -0.000071  -0.000000
    22  H   -0.000083   0.002451   0.000000
    23  H   -0.002047   0.003852  -0.000021
    24  H   -0.002426  -0.002762  -0.000000
    25  H    0.509872  -0.023246  -0.000018
    26  H   -0.023246   0.565594   0.000001
    27  H   -0.000018   0.000001   0.439758
 Mulliken charges:
               1
     1  O   -0.457148
     2  N    0.508553
     3  O   -0.485970
     4  C   -0.024853
     5  C    0.191966
     6  N   -0.770956
     7  C    0.030679
     8  H    0.178042
     9  C   -0.307991
    10  C   -0.320987
    11  C   -0.317273
    12  C   -0.311414
    13  C   -0.015532
    14  H    0.197352
    15  N   -0.521257
    16  C    0.126749
    17  H    0.292395
    18  H    0.397642
    19  H    0.191057
    20  H    0.157857
    21  H    0.173400
    22  H    0.148753
    23  H    0.190748
    24  H    0.162917
    25  H    0.183824
    26  H    0.149175
    27  H    0.252273
 Sum of Mulliken charges =  -0.00000
 Mulliken charges with hydrogens summed into heavy atoms:
               1
     1  O   -0.457148
     2  N    0.508553
     3  O   -0.485970
     4  C   -0.024853
     5  C    0.484361
     6  N   -0.373313
     7  C    0.208721
     9  C    0.040923
    10  C    0.001165
    11  C    0.036392
    12  C    0.021585
    13  C    0.181820
    15  N   -0.521257
    16  C    0.379022
 Electronic spatial extent (au):  <R**2>=           3100.0713
 Charge=              0.0000 electrons
 Dipole moment (field-independent basis, Debye):
    X=              5.2836    Y=              4.4297    Z=              1.7802  Tot=              7.1209
 Quadrupole moment (field-independent basis, Debye-Ang):
   XX=           -104.3824   YY=            -79.7199   ZZ=            -83.2673
   XY=             -0.3375   XZ=             -3.9433   YZ=              1.3836
 Traceless Quadrupole moment (field-independent basis, Debye-Ang):
   XX=            -15.2592   YY=              9.4033   ZZ=              5.8559
   XY=             -0.3375   XZ=             -3.9433   YZ=              1.3836
 Octapole moment (field-independent basis, Debye-Ang**2):
  XXX=             91.9052  YYY=             32.5851  ZZZ=              3.6947  XYY=             -4.0672
  XXY=              6.4353  XXZ=             23.8853  XZZ=             -3.8993  YZZ=             -1.8867
  YYZ=              9.0961  XYZ=             -0.2565
 Hexadecapole moment (field-independent basis, Debye-Ang**3):
 XXXX=          -3437.9640 YYYY=           -616.3837 ZZZZ=           -341.8193 XXXY=              1.3764
 XXXZ=           -153.7222 YYYX=             16.2409 YYYZ=             27.7298 ZZZX=            -69.2755
 ZZZY=              9.4750 XXYY=           -641.6720 XXZZ=           -555.3988 YYZZ=           -171.5620
 XXYZ=              8.1136 YYXZ=            -25.3348 ZZXY=             10.2418
 N-N= 9.177673029259D+02 E-N=-3.381586541092D+03  KE= 6.588755435701D+02
 Calling FoFJK, ICntrl=  10002127 FMM=F ISym2X=0 I1Cent= 0 IOpClX= 0 NMat=1 NMatS=1 NMatT=0.
 -------------------------------------------------------------------
 Center     Atomic                   Forces (Hartrees/Bohr)
 Number     Number              X              Y              Z
 -------------------------------------------------------------------
      1        8          -0.000027641   -0.018861330    0.000580123
      2        7           0.039029992    0.007921973    0.008552087
      3        8          -0.003066790    0.016937833    0.000706419
      4        6          -0.003171771    0.003039080    0.012559244
      5        6           0.001564550   -0.013904310   -0.006053970
      6        7           0.017339388   -0.001013428   -0.010710250
      7        6          -0.003637662    0.005724778    0.006246852
      8        1          -0.012646600   -0.001931951   -0.006527796
      9        6          -0.004467054    0.001484480   -0.002034415
     10        6           0.002642562   -0.001402852    0.000651668
     11        6          -0.001115047   -0.004101216   -0.001674846
     12        6           0.000567571   -0.009652157   -0.002874487
     13        6           0.014646002    0.000624865   -0.003263940
     14        1           0.001090113    0.003147664   -0.011876480
     15        7          -0.000736380   -0.009809001    0.025969814
     16        6          -0.020928663    0.016170353   -0.020315950
     17        1           0.006479136   -0.008647509    0.001292870
     18        1          -0.018520106   -0.002695085   -0.000803905
     19        1           0.003372752    0.005671068    0.007229059
     20        1          -0.002850308   -0.007848461    0.002996995
     21        1          -0.003392518    0.002364941    0.009964250
     22        1          -0.004668385   -0.004042123   -0.006893075
     23        1           0.004615552    0.005908782    0.008655760
     24        1          -0.009654582    0.002252902   -0.001287310
     25        1          -0.001311344    0.010585946   -0.002521034
     26        1          -0.004980031   -0.004679441   -0.003858526
     27        1           0.003827263    0.006754202   -0.004709157
 -------------------------------------------------------------------
 Cartesian Forces:  Max     0.039029992 RMS     0.009421410

 GradGradGradGradGradGradGradGradGradGradGradGradGradGradGradGradGradGrad
 Berny optimization.
 FormGI is forming the generalized inverse of G from B-inverse, IUseBI=4.
 Internal  Forces:  Max     0.037680479 RMS     0.007044979
 Search for a local minimum.
 Step number   1 out of a maximum of   20
 All quantities printed in internal units (Hartrees-Bohrs-Radians)
 Mixed Optimization -- RFO/linear search
 Second derivative matrix not updated -- first step.
 ITU=  0
     Eigenvalues ---    0.00232   0.00834   0.01054   0.01173   0.01356
     Eigenvalues ---    0.01430   0.01549   0.01885   0.02061   0.02110
     Eigenvalues ---    0.02682   0.03393   0.04414   0.04682   0.04821
     Eigenvalues ---    0.05020   0.05139   0.05313   0.05518   0.06237
     Eigenvalues ---    0.06887   0.07630   0.07686   0.07787   0.07983
     Eigenvalues ---    0.08031   0.08045   0.10433   0.11186   0.11839
     Eigenvalues ---    0.12464   0.14304   0.14892   0.15911   0.15999
     Eigenvalues ---    0.19474   0.22283   0.23266   0.25000   0.25000
     Eigenvalues ---    0.25000   0.25343   0.26402   0.26611   0.27971
     Eigenvalues ---    0.28087   0.28517   0.29184   0.31440   0.32023
     Eigenvalues ---    0.32042   0.32237   0.32297   0.32384   0.32389
     Eigenvalues ---    0.32409   0.32513   0.32528   0.32591   0.33291
     Eigenvalues ---    0.33396   0.33666   0.35534   0.43885   0.44348
     Eigenvalues ---    0.50420   0.67160   0.90308   0.911961000.00000
     Eigenvalues --- 1000.000001000.000001000.000001000.000001000.00000
     Eigenvalues --- 1000.000001000.000001000.000001000.000001000.00000
     Eigenvalues --- 1000.000001000.000001000.000001000.000001000.00000
     Eigenvalues --- 1000.000001000.000001000.000001000.000001000.00000
     Eigenvalues --- 1000.000001000.000001000.000001000.000001000.00000
     Eigenvalues --- 1000.000001000.000001000.000001000.000001000.00000
     Eigenvalues --- 1000.000001000.000001000.000001000.000001000.00000
     Eigenvalues --- 1000.000001000.000001000.000001000.000001000.00000
     Eigenvalues --- 1000.000001000.000001000.000001000.000001000.00000
     Eigenvalues --- 1000.000001000.000001000.000001000.000001000.00000
     Eigenvalues --- 1000.000001000.000001000.000001000.000001000.00000
     Eigenvalues --- 1000.000001000.000001000.000001000.000001000.00000
     Eigenvalues --- 1000.000001000.000001000.000001000.000001000.00000
     Eigenvalues --- 1000.000001000.000001000.000001000.000001000.00000
     Eigenvalues --- 1000.000001000.000001000.000001000.000001000.00000
     Eigenvalues --- 1000.000001000.000001000.000001000.000001000.00000
     Eigenvalues --- 1000.000001000.000001000.000001000.000001000.00000
     Eigenvalues --- 1000.000001000.000001000.000001000.000001000.00000
     Eigenvalues --- 1000.00000
 RFO step:  Lambda=-2.71057377D-02 EMin= 2.32449638D-03
 Linear search not attempted -- first point.
 Iteration  1 RMS(Cart)=  0.06778141 RMS(Int)=  0.00181178
 Iteration  2 RMS(Cart)=  0.00224896 RMS(Int)=  0.00049301
 Iteration  3 RMS(Cart)=  0.00000311 RMS(Int)=  0.00049300
 Iteration  4 RMS(Cart)=  0.00000000 RMS(Int)=  0.00049300
 Iteration  1 RMS(Cart)=  0.00004761 RMS(Int)=  0.00006617
 Iteration  2 RMS(Cart)=  0.00003044 RMS(Int)=  0.00007108
 Iteration  3 RMS(Cart)=  0.00002157 RMS(Int)=  0.00008019
 Iteration  4 RMS(Cart)=  0.00001676 RMS(Int)=  0.00008965
 Iteration  5 RMS(Cart)=  0.00001388 RMS(Int)=  0.00009839
 Iteration  6 RMS(Cart)=  0.00001190 RMS(Int)=  0.00010618
 Iteration  7 RMS(Cart)=  0.00001038 RMS(Int)=  0.00011305
 Iteration  8 RMS(Cart)=  0.00000913 RMS(Int)=  0.00011908
 Iteration  9 RMS(Cart)=  0.00000806 RMS(Int)=  0.00012435
 Iteration 10 RMS(Cart)=  0.00000712 RMS(Int)=  0.00012896
 Iteration 11 RMS(Cart)=  0.00000631 RMS(Int)=  0.00013299
 Iteration 12 RMS(Cart)=  0.00000559 RMS(Int)=  0.00013651
 Iteration 13 RMS(Cart)=  0.00000496 RMS(Int)=  0.00013960
 Iteration 14 RMS(Cart)=  0.00000441 RMS(Int)=  0.00014229
 Iteration 15 RMS(Cart)=  0.00000392 RMS(Int)=  0.00014465
 Iteration 16 RMS(Cart)=  0.00000349 RMS(Int)=  0.00014671
 Iteration 17 RMS(Cart)=  0.00000312 RMS(Int)=  0.00014852
 Iteration 18 RMS(Cart)=  0.00000278 RMS(Int)=  0.00015011
 Iteration 19 RMS(Cart)=  0.00000249 RMS(Int)=  0.00015150
 Iteration 20 RMS(Cart)=  0.00000223 RMS(Int)=  0.00015272
 Iteration 21 RMS(Cart)=  0.00000199 RMS(Int)=  0.00015379
 Iteration 22 RMS(Cart)=  0.00000179 RMS(Int)=  0.00015473
 Iteration 23 RMS(Cart)=  0.00000160 RMS(Int)=  0.00015556
 Iteration 24 RMS(Cart)=  0.00000144 RMS(Int)=  0.00015629
 Iteration 25 RMS(Cart)=  0.00000129 RMS(Int)=  0.00015693
 Iteration 26 RMS(Cart)=  0.00000116 RMS(Int)=  0.00015749
 Iteration 27 RMS(Cart)=  0.00000104 RMS(Int)=  0.00015799
 Iteration 28 RMS(Cart)=  0.00000093 RMS(Int)=  0.00015843
 Variable       Old X    -DE/DX   Delta X   Delta X   Delta X     New X
                                 (Linear)    (Quad)   (Total)
    R1        2.32387   0.01747   0.00000   0.01860   0.01860   2.34247
    R2        2.32791   0.01549   0.00000   0.01666   0.01666   2.34457
    R3        2.89620  -0.03768   0.00000  -0.11814  -0.11814   2.77806
    R4        2.64554  -0.03179   0.00000  -0.06851  -0.06832   2.57722
    R5        2.82119  -0.02616   0.00000  -0.07765  -0.07779   2.74340
    R6        2.58291  -0.02236   0.00000  -0.04106  -0.04064   2.54226
    R7        2.08362  -0.01078   0.00000  -0.02984  -0.02984   2.05378
    R8        2.81274  -0.01659   0.00000  -0.04109  -0.04086   2.77188
    R9        1.93292  -0.00687   0.00000  -0.01475  -0.01475   1.91817
   R10        2.11880  -0.01308   0.00000  -0.03829  -0.03829   2.08051
   R11        2.92748  -0.01313   0.00000  -0.04220  -0.04202   2.88546
   R12        2.89550  -0.00099   0.00000   0.00203   0.00207   2.89757
   R13        2.91125  -0.00411   0.00000  -0.01409  -0.01424   2.89701
   R14        2.09915  -0.00952   0.00000  -0.02702  -0.02702   2.07212
   R15        2.09889  -0.00845   0.00000  -0.02398  -0.02398   2.07490
   R16        2.90466  -0.00132   0.00000  -0.00714  -0.00712   2.89754
   R17        2.10138  -0.01053   0.00000  -0.02999  -0.02999   2.07139
   R18        2.10304  -0.00897   0.00000  -0.02561  -0.02561   2.07743
   R19        2.91786  -0.00937   0.00000  -0.03124  -0.03140   2.88646
   R20        2.10412  -0.01128   0.00000  -0.03226  -0.03226   2.07186
   R21        2.10103  -0.00996   0.00000  -0.02835  -0.02835   2.07268
   R22        2.93561  -0.01123   0.00000  -0.03651  -0.03633   2.89928
   R23        2.10148  -0.01082   0.00000  -0.03083  -0.03083   2.07064
   R24        2.09775  -0.00767   0.00000  -0.02172  -0.02172   2.07603
   R25        2.10766  -0.01143   0.00000  -0.03288  -0.03288   2.07478
   R26        2.76701  -0.00453   0.00000  -0.00831  -0.00874   2.75827
   R27        2.44409  -0.00053   0.00000  -0.00198  -0.00237   2.44172
   R28        2.07898  -0.00570   0.00000  -0.01568  -0.01568   2.06330
    A1        2.15367   0.01123   0.00000   0.04065   0.04056   2.19423
    A2        2.05684  -0.00513   0.00000  -0.01838  -0.01847   2.03837
    A3        2.07235  -0.00605   0.00000  -0.02168  -0.02177   2.05058
    A4        2.01651  -0.00996   0.00000  -0.03156  -0.03137   1.98514
    A5        2.02993  -0.00282   0.00000  -0.00581  -0.00568   2.02425
    A6        2.23674   0.01278   0.00000   0.03742   0.03657   2.27331
    A7        2.20261   0.00608   0.00000   0.02241   0.02243   2.22504
    A8        2.06459  -0.00397   0.00000  -0.01624  -0.01628   2.04831
    A9        2.01586  -0.00211   0.00000  -0.00645  -0.00658   2.00929
   A10        2.23716  -0.00718   0.00000  -0.00780  -0.00754   2.22962
   A11        2.09906  -0.01239   0.00000  -0.07845  -0.07973   2.01933
   A12        1.86331   0.01976   0.00000   0.10191   0.10235   1.96567
   A13        1.84289  -0.00241   0.00000  -0.01165  -0.01078   1.83211
   A14        2.01430  -0.00138   0.00000  -0.01847  -0.01889   1.99541
   A15        1.95452   0.00248   0.00000  -0.01249  -0.01451   1.94001
   A16        1.85183   0.00345   0.00000   0.03566   0.03572   1.88755
   A17        1.85160   0.00163   0.00000   0.03448   0.03418   1.88579
   A18        1.93559  -0.00333   0.00000  -0.01848  -0.01813   1.91745
   A19        1.90828   0.00029   0.00000  -0.00666  -0.00673   1.90154
   A20        1.92247  -0.00066   0.00000  -0.01446  -0.01444   1.90803
   A21        1.92217  -0.00194   0.00000  -0.00529  -0.00535   1.91682
   A22        1.91874  -0.00079   0.00000   0.00250   0.00218   1.92091
   A23        1.90727   0.00349   0.00000   0.02888   0.02907   1.93633
   A24        1.88478  -0.00035   0.00000  -0.00452  -0.00474   1.88003
   A25        1.93942  -0.00071   0.00000   0.00515   0.00486   1.94428
   A26        1.91878  -0.00084   0.00000  -0.00740  -0.00732   1.91146
   A27        1.90545   0.00030   0.00000  -0.00258  -0.00261   1.90284
   A28        1.91624   0.00049   0.00000   0.00627   0.00634   1.92257
   A29        1.89908   0.00196   0.00000   0.01183   0.01195   1.91103
   A30        1.88387  -0.00119   0.00000  -0.01370  -0.01381   1.87006
   A31        1.94429   0.00169   0.00000   0.01045   0.01076   1.95505
   A32        1.90227   0.00001   0.00000   0.00433   0.00434   1.90661
   A33        1.91748   0.00046   0.00000   0.00463   0.00446   1.92194
   A34        1.90662  -0.00146   0.00000  -0.01598  -0.01612   1.89050
   A35        1.91561  -0.00078   0.00000  -0.00036  -0.00052   1.91509
   A36        1.87622   0.00003   0.00000  -0.00370  -0.00371   1.87251
   A37        1.94516  -0.00441   0.00000  -0.02776  -0.02780   1.91735
   A38        1.90635   0.00260   0.00000   0.01312   0.01292   1.91927
   A39        1.91120   0.00206   0.00000   0.01976   0.01970   1.93090
   A40        1.90698   0.00099   0.00000  -0.00196  -0.00189   1.90509
   A41        1.91266  -0.00013   0.00000  -0.00042  -0.00018   1.91248
   A42        1.88032  -0.00099   0.00000  -0.00190  -0.00211   1.87820
   A43        1.84442   0.00631   0.00000   0.02327   0.02307   1.86748
   A44        1.93227  -0.00486   0.00000  -0.02094  -0.02137   1.91090
   A45        2.00103  -0.00041   0.00000   0.00561   0.00599   2.00702
   A46        1.88415   0.00200   0.00000   0.02681   0.02694   1.91109
   A47        1.89027  -0.00406   0.00000  -0.03570  -0.03540   1.85488
   A48        1.90706   0.00131   0.00000   0.00273   0.00274   1.90979
   A49        2.10022  -0.00345   0.00000   0.00789   0.00708   2.10730
   A50        2.26913  -0.00623   0.00000  -0.03541  -0.03685   2.23229
   A51        1.97592   0.00254   0.00000   0.01199   0.01248   1.98839
   A52        2.02699   0.00387   0.00000   0.02061   0.02115   2.04814
    D1       -2.99593   0.00057   0.00000  -0.03175  -0.03136  -3.02729
    D2        0.14414   0.00161   0.00000   0.00000   0.00000   0.14414
    D3        0.17190  -0.00172   0.00000  -0.05662  -0.05643   0.11547
    D4       -2.97122  -0.00068   0.00000  -0.02488  -0.02507  -2.99629
    D5        3.11200   0.00135   0.00000  -0.00274  -0.00348   3.10852
    D6       -0.01231   0.00145   0.00000   0.01754   0.01669   0.00438
    D7       -0.02784   0.00018   0.00000  -0.03888  -0.04037  -0.06821
    D8        3.13103   0.00028   0.00000  -0.01860  -0.02020   3.11083
    D9        3.05545   0.00432   0.00000   0.07492   0.07331   3.12876
   D10        0.08244   0.00249   0.00000   0.09321   0.09278   0.17521
   D11       -0.08790   0.00549   0.00000   0.11128   0.11085   0.02295
   D12       -3.06091   0.00366   0.00000   0.12956   0.13032  -2.93059
   D13        0.31504  -0.00288   0.00000  -0.03819  -0.03857   0.27647
   D14        2.96943   0.00260   0.00000   0.02933   0.02722   2.99665
   D15       -2.84341  -0.00300   0.00000  -0.05807  -0.05845  -2.90186
   D16       -0.18902   0.00248   0.00000   0.00945   0.00734  -0.18168
   D17       -2.88820   0.00018   0.00000   0.02607   0.02644  -2.86176
   D18        1.35594  -0.00170   0.00000   0.00000   0.00001   1.35594
   D19       -0.88073   0.00196   0.00000   0.05410   0.05356  -0.82716
   D20        0.68935   0.00151   0.00000   0.00233   0.00126   0.69060
   D21       -1.34971  -0.00038   0.00000  -0.02375  -0.02517  -1.37488
   D22        2.69682   0.00328   0.00000   0.03035   0.02838   2.72520
   D23        2.95142   0.00268   0.00000   0.05283   0.05339   3.00481
   D24       -1.22152   0.00146   0.00000   0.04259   0.04298  -1.17854
   D25        0.85552  -0.00060   0.00000   0.02471   0.02515   0.88067
   D26        0.91742   0.00411   0.00000   0.05355   0.05367   0.97109
   D27        3.02766   0.00289   0.00000   0.04330   0.04327   3.07093
   D28       -1.17848   0.00083   0.00000   0.02543   0.02543  -1.15305
   D29       -1.08573   0.00192   0.00000   0.00228   0.00232  -1.08341
   D30        1.02451   0.00071   0.00000  -0.00796  -0.00809   1.01643
   D31        3.10156  -0.00135   0.00000  -0.02584  -0.02592   3.07564
   D32       -2.89355  -0.00104   0.00000  -0.02524  -0.02483  -2.91839
   D33       -0.85778   0.00244   0.00000   0.00902   0.00902  -0.84876
   D34        1.30937  -0.00006   0.00000   0.00000   0.00001   1.30938
   D35       -0.89142  -0.00172   0.00000  -0.02550  -0.02555  -0.91697
   D36        1.14435   0.00176   0.00000   0.00877   0.00831   1.15266
   D37       -2.97168  -0.00074   0.00000  -0.00025  -0.00071  -2.97239
   D38        1.11187   0.00160   0.00000   0.02651   0.02676   1.13862
   D39       -3.13555   0.00508   0.00000   0.06077   0.06061  -3.07494
   D40       -0.96839   0.00259   0.00000   0.05175   0.05160  -0.91680
   D41        0.95665   0.00113   0.00000   0.00000   0.00001   0.95666
   D42        3.08164   0.00071   0.00000   0.00633   0.00625   3.08789
   D43       -1.13805  -0.00106   0.00000  -0.01624  -0.01622  -1.15426
   D44       -1.15586   0.00226   0.00000   0.02051   0.02065  -1.13522
   D45        0.96913   0.00184   0.00000   0.02684   0.02688   0.99601
   D46        3.03263   0.00008   0.00000   0.00428   0.00442   3.03704
   D47        3.06166   0.00107   0.00000   0.00719   0.00724   3.06890
   D48       -1.09652   0.00065   0.00000   0.01352   0.01347  -1.08305
   D49        0.96697  -0.00111   0.00000  -0.00905  -0.00899   0.95798
   D50       -0.92191  -0.00086   0.00000   0.00000   0.00001  -0.92190
   D51        1.18314  -0.00161   0.00000  -0.01046  -0.01042   1.17272
   D52       -3.04848  -0.00131   0.00000  -0.00972  -0.00976  -3.05824
   D53       -3.04839   0.00034   0.00000   0.00165   0.00169  -3.04670
   D54       -0.94334  -0.00041   0.00000  -0.00881  -0.00874  -0.95208
   D55        1.10822  -0.00011   0.00000  -0.00807  -0.00807   1.10015
   D56        1.17656   0.00034   0.00000   0.00764   0.00766   1.18422
   D57       -3.00158  -0.00041   0.00000  -0.00282  -0.00277  -3.00435
   D58       -0.95001  -0.00011   0.00000  -0.00208  -0.00210  -0.95211
   D59        0.98990  -0.00158   0.00000  -0.00866  -0.00860   0.98130
   D60        3.09866  -0.00143   0.00000  -0.02016  -0.02026   3.07840
   D61       -1.12924   0.00008   0.00000  -0.00332  -0.00318  -1.13243
   D62       -1.11260  -0.00169   0.00000  -0.01016  -0.01010  -1.12270
   D63        0.99616  -0.00154   0.00000  -0.02166  -0.02176   0.97440
   D64        3.05144  -0.00003   0.00000  -0.00482  -0.00469   3.04676
   D65        3.11754  -0.00041   0.00000   0.00392   0.00398   3.12152
   D66       -1.05688  -0.00026   0.00000  -0.00757  -0.00767  -1.06456
   D67        0.99840   0.00125   0.00000   0.00926   0.00940   1.00780
   D68       -1.05865  -0.00003   0.00000  -0.01116  -0.01113  -1.06978
   D69       -3.12676   0.00133   0.00000  -0.01223  -0.01252  -3.13928
   D70        1.09347   0.00089   0.00000  -0.01073  -0.01065   1.08282
   D71        3.11614  -0.00112   0.00000  -0.00848  -0.00843   3.10771
   D72        1.04804   0.00025   0.00000  -0.00955  -0.00982   1.03821
   D73       -1.01492  -0.00020   0.00000  -0.00805  -0.00795  -1.02287
   D74        1.05964  -0.00042   0.00000  -0.00479  -0.00466   1.05498
   D75       -1.00846   0.00094   0.00000  -0.00586  -0.00606  -1.01452
   D76       -3.07142   0.00050   0.00000  -0.00435  -0.00419  -3.07561
   D77       -1.17215   0.00887   0.00000   0.00000   0.00001  -1.17215
   D78        3.05663   0.00399   0.00000  -0.00807  -0.00811   3.04853
   D79        1.00832   0.00316   0.00000  -0.02146  -0.02174   0.98658
   D80        0.53984  -0.00930   0.00000  -0.07988  -0.07826   0.46158
   D81       -2.77438  -0.00756   0.00000  -0.09947  -0.09922  -2.87360
         Item               Value     Threshold  Converged?
 Maximum Force            0.037680     0.000450     NO 
 RMS     Force            0.007024     0.000300     NO 
 Maximum Displacement     0.306105     0.001800     NO 
 RMS     Displacement     0.068114     0.001200     NO 
 Predicted change in Energy=-1.592748D-02
 GradGradGradGradGradGradGradGradGradGradGradGradGradGradGradGradGradGrad

                          Input orientation:                          
 ---------------------------------------------------------------------
 Center     Atomic      Atomic             Coordinates (Angstroms)
 Number     Number       Type             X           Y           Z
 ---------------------------------------------------------------------
      1          8           0       -3.496702   -1.309396   -0.560433
      2          7           0       -3.076489   -0.156315   -0.386120
      3          8           0       -3.752957    0.880767   -0.464664
      4          6           0       -1.650309   -0.013112   -0.059542
      5          6           0       -1.284955    1.262057    0.257370
      6          7           0       -0.067726    1.695937    0.631472
      7          6           0        1.216142    1.000937    0.489327
      8          1           0        1.904743    1.535096    1.162090
      9          6           0        1.801088    1.042240   -0.920500
     10          6           0        3.218286    0.458521   -0.888796
     11          6           0        3.230367   -0.948292   -0.279065
     12          6           0        2.548357   -0.986096    1.087147
     13          6           0        1.114981   -0.451910    0.969012
     14          1           0        0.631271   -0.479474    1.954259
     15          7           0        0.415731   -1.354372    0.059572
     16          6           0       -0.850637   -1.220636   -0.159418
     17          1           0       -2.061250    2.022512    0.241904
     18          1           0        0.038880    2.703086    0.699439
     19          1           0        1.166804    0.453498   -1.593868
     20          1           0        1.810706    2.076313   -1.289536
     21          1           0        3.626666    0.432945   -1.905691
     22          1           0        3.865435    1.120758   -0.296203
     23          1           0        2.700308   -1.636532   -0.947953
     24          1           0        4.261379   -1.311309   -0.188335
     25          1           0        2.518723   -2.015224    1.462190
     26          1           0        3.107174   -0.382784    1.815597
     27          1           0       -1.369027   -2.057204   -0.632244
 ---------------------------------------------------------------------
                    Distance matrix (angstroms):
                    1          2          3          4          5
     1  O    0.000000
     2  N    1.239581   0.000000
     3  O    2.207182   1.240692   0.000000
     4  C    2.310933   1.470085   2.320403   0.000000
     5  C    3.488982   2.373910   2.599566   1.363808   0.000000
     6  N    4.712805   3.676817   3.930259   2.429592   1.345307
     7  C    5.352619   4.531260   5.061273   3.089675   2.525367
     8  H    6.343014   5.483657   5.923178   4.065431   3.326747
     9  C    5.807445   5.051025   5.575058   3.710412   3.310493
    10  C    6.951576   6.344674   6.996885   4.961181   4.715776
    11  C    6.742628   6.357289   7.221268   4.974309   5.055842
    12  C    6.273897   5.873495   6.752766   4.459864   4.520730
    13  C    4.933772   4.414995   5.246740   2.982834   3.033779
    14  H    4.904346   4.396509   5.188728   3.078716   3.095850
    15  N    3.961510   3.718814   4.759057   2.466107   3.126845
    16  C    2.677752   2.477618   3.596183   1.451746   2.554625
    17  H    3.715626   2.484433   2.159789   2.098454   1.086814
    18  H    5.494327   4.365791   4.365089   3.287422   2.006123
    19  H    5.091569   4.453770   5.065738   3.241606   3.176787
    20  H    6.337444   5.448437   5.750138   4.225779   3.555145
    21  H    7.455725   6.898450   7.532326   5.608360   5.430496
    22  H    7.757353   7.058988   7.624032   5.636054   5.181982
    23  H    6.217727   5.989832   6.943702   4.727858   5.073160
    24  H    7.766999   7.430843   8.313310   6.053920   6.130472
    25  H    6.385494   6.178850   7.171715   4.868772   5.163344
    26  H    7.079216   6.567840   7.338769   5.127030   4.942101
    27  H    2.256407   2.566980   3.787199   2.141359   3.437437
                    6          7          8          9         10
     6  N    0.000000
     7  C    1.466816   0.000000
     8  H    2.048917   1.100958   0.000000
     9  C    2.515632   1.526919   2.142623   0.000000
    10  C    3.826263   2.490385   2.662807   1.533030   0.000000
    11  C    4.324169   2.906376   3.162502   2.533080   1.533310
    12  C    3.774232   2.465863   2.603126   2.950119   2.537730
    13  C    2.475071   1.533328   2.146904   2.504692   2.950292
    14  H    2.640222   2.163265   2.511525   3.456635   3.956695
    15  N    3.140889   2.524446   3.432453   2.936581   3.469913
    16  C    3.121675   3.102875   4.114920   3.568123   4.461803
    17  H    2.057317   3.441822   4.100417   4.150877   5.621214
    18  H    1.015054   2.080242   2.249376   2.913416   4.203472
    19  H    2.831935   2.154489   3.051182   1.096520   2.169269
    20  H    2.713570   2.162012   2.512414   1.097992   2.181541
    21  H    4.656273   3.445193   3.686602   2.162077   1.096132
    22  H    4.081810   2.765894   2.478428   2.158111   1.099330
    23  H    4.611068   3.350338   3.891585   2.825804   2.158946
    24  H    5.334488   3.883191   3.934387   3.482569   2.170481
    25  H    4.599187   3.426427   3.615495   3.942118   3.483667
    26  H    3.975326   2.692522   2.356093   3.350041   2.834410
    27  H    4.168504   4.158515   5.180910   4.442891   5.238142
                   11         12         13         14         15
    11  C    0.000000
    12  C    1.527449   0.000000
    13  C    2.505783   1.534234   0.000000
    14  H    3.458732   2.164201   1.097928   0.000000
    15  N    2.863871   2.395753   1.459613   2.098033   0.000000
    16  C    4.091831   3.627959   2.393313   2.685703   1.292102
    17  H    6.090837   5.569079   4.091443   4.054845   4.191900
    18  H    4.947284   4.478599   3.344348   3.471914   4.124853
    19  H    2.819932   3.341999   2.718603   3.707618   2.562493
    20  H    3.490662   3.946023   3.460778   4.294801   3.941529
    21  H    2.170433   3.483318   3.918603   4.970323   4.167357
    22  H    2.164387   2.843798   3.411606   4.252662   4.260670
    23  H    1.096380   2.141912   2.755240   3.747337   2.512771
    24  H    1.096813   2.160338   3.460901   4.296549   3.853871
    25  H    2.162579   1.095738   2.158162   2.482566   2.612783
    26  H    2.173150   1.098590   2.165713   2.481666   3.357301
    27  H    4.744350   4.410156   3.363226   3.630485   2.039103
                   16         17         18         19         20
    16  C    0.000000
    17  H    3.484918   0.000000
    18  H    4.113936   2.254566   0.000000
    19  H    2.988384   4.031402   3.404719   0.000000
    20  H    4.385178   4.164162   2.736463   1.772218   0.000000
    21  H    5.082326   6.284209   4.981210   2.479632   2.525473
    22  H    5.267084   6.018997   4.258825   3.067863   2.474208
    23  H    3.661143   6.121830   5.350644   2.671529   3.833183
    24  H    5.112901   7.160664   5.893471   3.829681   4.323705
    25  H    3.822769   6.226441   5.384595   4.154727   4.981361
    26  H    4.501882   5.913930   4.492530   4.011091   4.167713
    27  H    1.091851   4.229349   5.139644   3.695780   5.256301
                   21         22         23         24         25
    21  H    0.000000
    22  H    1.766508   0.000000
    23  H    2.461328   3.063486   0.000000
    24  H    2.528754   2.466446   1.766276   0.000000
    25  H    4.308560   3.839266   2.446461   2.501315   0.000000
    26  H    3.844902   2.700981   3.061802   2.492005   1.770885
    27  H    5.725335   6.132860   4.103185   5.696919   4.416221
                   26         27
    26  H    0.000000
    27  H    5.369542   0.000000
 Symmetry turned off by external request.
 Stoichiometry    C9H13N3O2
 Framework group  C1[X(C9H13N3O2)]
 Deg. of freedom    75
 Full point group                 C1      NOp   1
 Rotational constants (GHZ):           1.6217298           0.4261529           0.3796217
 Standard basis: 6-31G(d) (6D, 7F)
   236 basis functions,   444 primitive gaussians,   236 cartesian basis functions
    52 alpha electrons       52 beta electrons
       nuclear repulsion energy       932.7119818152 Hartrees.
 NAtoms=   27 NActive=   27 NUniq=   27 SFac= 1.00D+00 NAtFMM=   60 NAOKFM=F Big=F
 Integral buffers will be    131072 words long.
 Raffenetti 1 integral format.
 Two-electron integral symmetry is turned off.
 One-electron integrals computed using PRISM.
 NBasis=   236 RedAO= T EigKep=  1.02D-03  NBF=   236
 NBsUse=   236 1.00D-06 EigRej= -1.00D+00 NBFU=   236
 Initial guess from the checkpoint file:  "/home/alexey/tmp/Gau-1538454.chk"
 B after Tr=     0.058432    0.003697    0.016459
         Rot=    0.999997   -0.001251   -0.002196   -0.000060 Ang=  -0.29 deg.
 ExpMin= 1.61D-01 ExpMax= 5.48D+03 ExpMxC= 8.25D+02 IAcc=3 IRadAn=         5 AccDes= 0.00D+00
 Harris functional with IExCor=  205 and IRadAn=       5 diagonalized for initial guess.
 HarFok:  IExCor=  205 AccDes= 0.00D+00 IRadAn=         5 IDoV= 1 UseB2=F ITyADJ=14
 ICtDFT=  3500011 ScaDFX=  1.000000  1.000000  1.000000  1.000000
 FoFCou: FMM=F IPFlag=           0 FMFlag=      100000 FMFlg1=           0
         NFxFlg=           0 DoJE=T BraDBF=F KetDBF=T FulRan=T
         wScrn=  0.000000 ICntrl=       500 IOpCl=  0 I1Cent=   200000004 NGrid=           0
         NMat0=    1 NMatS0=      1 NMatT0=    0 NMatD0=    1 NMtDS0=    0 NMtDT0=    0
 Symmetry not used in FoFCou.
 Keep R1 ints in memory in canonical form, NReq=397720213.
 Requested convergence on RMS density matrix=1.00D-08 within 128 cycles.
 Requested convergence on MAX density matrix=1.00D-06.
 Requested convergence on             energy=1.00D-06.
 No special actions if energy rises.
 SCF Done:  E(RHF) =  -661.294070383     A.U. after   15 cycles
            NFock= 15  Conv=0.67D-08     -V/T= 2.0025
 ExpMin= 1.61D-01 ExpMax= 5.48D+03 ExpMxC= 8.25D+02 IAcc=3 IRadAn=         5 AccDes= 0.00D+00
 HarFok:  IExCor=  205 AccDes= 0.00D+00 IRadAn=         5 IDoV=-2 UseB2=F ITyADJ=14
 ICtDFT= 12500011 ScaDFX=  1.000000  1.000000  1.000000  1.000000
 Range of M.O.s used for correlation:    15   236
 NBasis=   236 NAE=    52 NBE=    52 NFC=    14 NFV=     0
 NROrb=    222 NOA=    38 NOB=    38 NVA=   184 NVB=   184
 Fully direct method using O(ONN) memory.
 JobTyp=1 Pass  1:  I=  15 to  52 NPSUse=  4 ParTrn=T ParDer=T DoDerP=T.
 Spin components of T(2) and E(2):
     alpha-alpha T2 =       0.9152820332D-01 E2=     -0.2726757874D+00
     alpha-beta  T2 =       0.4918700442D+00 E2=     -0.1488582650D+01
     beta-beta   T2 =       0.9152820332D-01 E2=     -0.2726757874D+00
 ANorm=    0.1294189496D+01
[...]
    27  H    4.629643   4.400916   3.372962   3.677460   2.025849
                   16         17         18         19         20
    16  C    0.000000
    17  H    3.462457   0.000000
    18  H    4.091755   2.218772   0.000000
    19  H    2.888580   4.040078   3.441722   0.000000
    20  H    4.335704   4.251406   2.864214   1.768657   0.000000
    21  H    4.992680   6.326908   5.075207   2.501886   2.517007
    22  H    5.210151   6.047495   4.345686   3.070848   2.460229
    23  H    3.591395   6.125678   5.400460   2.715486   3.849662
    24  H    5.071494   7.164018   5.948355   3.853936   4.315097
    25  H    3.846034   6.185807   5.381074   4.179325   4.990441
    26  H    4.522727   5.894530   4.509593   4.024820   4.169858
    27  H    1.089907   4.219404   5.102514   3.508435   5.124151
                   21         22         23         24         25
    21  H    0.000000
    22  H    1.758753   0.000000
    23  H    2.471800   3.062705   0.000000
    24  H    2.514095   2.454451   1.764263   0.000000
    25  H    4.311079   3.833808   2.445665   2.519571   0.000000
    26  H    3.841908   2.695284   3.062008   2.502312   1.770012
    27  H    5.529486   6.003073   3.953350   5.590262   4.442744
                   26         27
    26  H    0.000000
    27  H    5.377709   0.000000
 Symmetry turned off by external request.
 Stoichiometry    C9H13N3O2
 Framework group  C1[X(C9H13N3O2)]
 Deg. of freedom    75
 Full point group                 C1      NOp   1
 Rotational constants (GHZ):           1.6416195           0.4233516           0.3778922

 **********************************************************************

            Population analysis using the SCF Density.

 **********************************************************************

 Alpha  occ. eigenvalues --  -20.59315 -20.58980 -15.84793 -15.64043 -15.55845
 Alpha  occ. eigenvalues --  -11.34992 -11.29630 -11.29614 -11.28722 -11.27076
 Alpha  occ. eigenvalues --  -11.23847 -11.23212 -11.22570 -11.21916  -1.57198
 Alpha  occ. eigenvalues --   -1.36788  -1.30858  -1.22839  -1.14716  -1.09741
 Alpha  occ. eigenvalues --   -1.02733  -1.01267  -0.94461  -0.89737  -0.85523
 Alpha  occ. eigenvalues --   -0.82361  -0.78604  -0.77455  -0.74963  -0.71817
 Alpha  occ. eigenvalues --   -0.69782  -0.69481  -0.67894  -0.64779  -0.63915
 Alpha  occ. eigenvalues --   -0.62422  -0.60125  -0.57854  -0.56729  -0.55106
 Alpha  occ. eigenvalues --   -0.54421  -0.50735  -0.50448  -0.48779  -0.48194
 Alpha  occ. eigenvalues --   -0.47372  -0.46159  -0.45863  -0.43742  -0.41776
 Alpha  occ. eigenvalues --   -0.39122  -0.33754
 Alpha virt. eigenvalues --    0.07260   0.11538   0.17429   0.22013   0.24183
 Alpha virt. eigenvalues --    0.25823   0.27235   0.28694   0.29227   0.29595
 Alpha virt. eigenvalues --    0.30732   0.31939   0.32125   0.32866   0.33817
 Alpha virt. eigenvalues --    0.34430   0.36012   0.37590   0.38373   0.40329
 Alpha virt. eigenvalues --    0.41224   0.42302   0.44484   0.45820   0.46397
 Alpha virt. eigenvalues --    0.47645   0.48959   0.53853   0.57548   0.59509
 Alpha virt. eigenvalues --    0.63940   0.68999   0.69811   0.73302   0.73982
 Alpha virt. eigenvalues --    0.75219   0.75642   0.76485   0.78696   0.79350
 Alpha virt. eigenvalues --    0.81589   0.84229   0.85471   0.85558   0.88376
 Alpha virt. eigenvalues --    0.88509   0.91527   0.92095   0.92997   0.94487
 Alpha virt. eigenvalues --    0.95445   0.97810   0.99781   1.01593   1.02287
 Alpha virt. eigenvalues --    1.03136   1.05836   1.07103   1.07992   1.09080
 Alpha virt. eigenvalues --    1.10484   1.11904   1.12194   1.12615   1.13780
 Alpha virt. eigenvalues --    1.14724   1.15211   1.16063   1.17335   1.18606
 Alpha virt. eigenvalues --    1.18795   1.21863   1.23076   1.23877   1.24877
 Alpha virt. eigenvalues --    1.25090   1.25864   1.27097   1.28362   1.30037
 Alpha virt. eigenvalues --    1.30736   1.32975   1.35792   1.37428   1.39933
 Alpha virt. eigenvalues --    1.41253   1.46820   1.48657   1.52415   1.54792
 Alpha virt. eigenvalues --    1.57730   1.59365   1.61303   1.63585   1.65830
 Alpha virt. eigenvalues --    1.67870   1.69396   1.72040   1.75537   1.79208
 Alpha virt. eigenvalues --    1.81502   1.84266   1.86895   1.89272   1.92218
 Alpha virt. eigenvalues --    1.95386   1.96408   1.99740   2.01550   2.02551
 Alpha virt. eigenvalues --    2.04588   2.05917   2.09431   2.09891   2.11972
 Alpha virt. eigenvalues --    2.12477   2.15725   2.18883   2.20052   2.21352
 Alpha virt. eigenvalues --    2.22598   2.24454   2.24904   2.27536   2.29278
 Alpha virt. eigenvalues --    2.30932   2.33945   2.34599   2.36449   2.38091
 Alpha virt. eigenvalues --    2.40931   2.42302   2.44479   2.44975   2.48117
 Alpha virt. eigenvalues --    2.50887   2.52182   2.53927   2.55282   2.59976
 Alpha virt. eigenvalues --    2.63081   2.66488   2.67569   2.69498   2.70340
 Alpha virt. eigenvalues --    2.71378   2.72173   2.75888   2.78275   2.84091
 Alpha virt. eigenvalues --    2.87368   2.88612   2.92465   2.93213   2.95836
 Alpha virt. eigenvalues --    2.98682   3.01160   3.03866   3.06755   3.08554
 Alpha virt. eigenvalues --    3.10023   3.16171   3.20595   3.25215   3.27149
 Alpha virt. eigenvalues --    3.33615   3.37471   3.38387   3.51906   3.66135
 Alpha virt. eigenvalues --    4.13740   4.27991   4.34067   4.39410   4.47204
 Alpha virt. eigenvalues --    4.55702   4.62238   4.62400   4.73145   4.80836
 Alpha virt. eigenvalues --    4.99173   5.01186   5.05986   5.10763
          Condensed to atoms (all electrons):
               1          2          3          4          5          6
     1  O    8.315874   0.305550  -0.082583  -0.084445   0.004555  -0.000013
     2  N    0.305550   5.722168   0.302255   0.261275  -0.054712   0.000908
     3  O   -0.082583   0.302255   8.352055  -0.092263   0.002948   0.000782
     4  C   -0.084445   0.261275  -0.092263   5.234158   0.562299  -0.051492
     5  C    0.004555  -0.054712   0.002948   0.562299   4.715909   0.322145
     6  N   -0.000013   0.000908   0.000782  -0.051492   0.322145   7.172965
     7  C    0.000002  -0.000117   0.000001   0.005558  -0.029545   0.185010
     8  H   -0.000000   0.000002  -0.000000  -0.000275   0.003515  -0.045441
     9  C   -0.000000  -0.000008  -0.000000   0.000522   0.000089  -0.064553
    10  C   -0.000000   0.000000   0.000000  -0.000046  -0.000016   0.003853
    11  C   -0.000000  -0.000000  -0.000000  -0.000023   0.000012  -0.000179
    12  C    0.000000   0.000002  -0.000000  -0.000266  -0.000140   0.003763
    13  C   -0.000016   0.000008  -0.000002  -0.007665  -0.001602  -0.059228
    14  H   -0.000001  -0.000068   0.000001   0.001870   0.003878  -0.006081
    15  N    0.000530   0.002261  -0.000015  -0.065861  -0.006296   0.001572
    16  C    0.000600  -0.025236   0.002601   0.321500  -0.051515  -0.000374
    17  H    0.000226  -0.007017   0.017450  -0.023426   0.375481  -0.033635
    18  H    0.000001  -0.000054   0.000014   0.001987  -0.033079   0.338223
    19  H    0.000001  -0.000014   0.000000  -0.001579   0.002231  -0.001405
    20  H    0.000000  -0.000000   0.000000  -0.000050  -0.000038   0.000403
    21  H   -0.000000  -0.000000  -0.000000   0.000002   0.000000  -0.000083
    22  H   -0.000000   0.000000  -0.000000  -0.000000  -0.000002  -0.000093
    23  H    0.000000  -0.000000   0.000000   0.000055  -0.000001  -0.000029
    24  H    0.000000   0.000000   0.000000   0.000000  -0.000000   0.000006
    25  H    0.000000  -0.000000   0.000000   0.000027  -0.000002  -0.000090
    26  H    0.000000  -0.000000   0.000000   0.000004  -0.000000  -0.000057
    27  H    0.006487  -0.000685   0.000029  -0.066991   0.002077  -0.000003
               7          8          9         10         11         12
     1  O    0.000002  -0.000000  -0.000000  -0.000000  -0.000000   0.000000
     2  N   -0.000117   0.000002  -0.000008   0.000000  -0.000000   0.000002
     3  O    0.000001  -0.000000  -0.000000   0.000000  -0.000000  -0.000000
     4  C    0.005558  -0.000275   0.000522  -0.000046  -0.000023  -0.000266
     5  C   -0.029545   0.003515   0.000089  -0.000016   0.000012  -0.000140
     6  N    0.185010  -0.045441  -0.064553   0.003853  -0.000179   0.003763
     7  C    5.027071   0.413160   0.356348  -0.054937  -0.009416  -0.062866
     8  H    0.413160   0.522170  -0.049029   0.000563  -0.000065  -0.001636
     9  C    0.356348  -0.049029   5.162601   0.326208  -0.050572  -0.004855
    10  C   -0.054937   0.000563   0.326208   5.114712   0.337875  -0.062109
    11  C   -0.009416  -0.000065  -0.050572   0.337875   5.125964   0.335465
    12  C   -0.062866  -0.001636  -0.004855  -0.062109   0.335465   5.120329
    13  C    0.330133  -0.034444  -0.066125   0.000694  -0.050650   0.370775
    14  H   -0.044677  -0.000754   0.004340  -0.000381   0.004253  -0.036363
    15  N   -0.057821   0.003639  -0.017501   0.001522  -0.017736  -0.083344
    16  C   -0.001074  -0.000054  -0.001151  -0.000070   0.000017   0.002221
    17  H    0.001566  -0.000042  -0.000055   0.000001  -0.000000   0.000001
    18  H   -0.023948  -0.004240   0.001048  -0.000085   0.000005  -0.000121
    19  H   -0.035862   0.003932   0.392387  -0.032141  -0.002007   0.000771
    20  H   -0.043264  -0.002132   0.397459  -0.034419   0.003901  -0.000478
    21  H    0.004555  -0.000086  -0.036362   0.402233  -0.035002   0.004441
    22  H   -0.004433   0.003280  -0.047381   0.397921  -0.045303  -0.000921
    23  H    0.000842   0.000023  -0.002060  -0.038301   0.399329  -0.037091
    24  H   -0.000145  -0.000091   0.004437  -0.038761   0.402096  -0.038900
    25  H    0.005103  -0.000048  -0.000406   0.004224  -0.033471   0.397634
    26  H   -0.003499   0.001566   0.000965  -0.002265  -0.041284   0.397374
    27  H   -0.000398   0.000007  -0.000044   0.000006   0.000023  -0.000029
              13         14         15         16         17         18
     1  O   -0.000016  -0.000001   0.000530   0.000600   0.000226   0.000001
     2  N    0.000008  -0.000068   0.002261  -0.025236  -0.007017  -0.000054
     3  O   -0.000002   0.000001  -0.000015   0.002601   0.017450   0.000014
     4  C   -0.007665   0.001870  -0.065861   0.321500  -0.023426   0.001987
     5  C   -0.001602   0.003878  -0.006296  -0.051515   0.375481  -0.033079
     6  N   -0.059228  -0.006081   0.001572  -0.000374  -0.033635   0.338223
     7  C    0.330133  -0.044677  -0.057821  -0.001074   0.001566  -0.023948
     8  H   -0.034444  -0.000754   0.003639  -0.000054  -0.000042  -0.004240
     9  C   -0.066125   0.004340  -0.017501  -0.001151  -0.000055   0.001048
    10  C    0.000694  -0.000381   0.001522  -0.000070   0.000001  -0.000085
    11  C   -0.050650   0.004253  -0.017736   0.000017  -0.000000   0.000005
    12  C    0.370775  -0.036363  -0.083344   0.002221   0.000001  -0.000121
    13  C    5.046355   0.406307   0.242959  -0.065966  -0.000089   0.003775
    14  H    0.406307   0.516539  -0.035390  -0.004495   0.000040  -0.000064
    15  N    0.242959  -0.035390   6.989309   0.586393  -0.000038  -0.000152
    16  C   -0.065966  -0.004495   0.586393   4.704073   0.001950  -0.000210
    17  H   -0.000089   0.000040  -0.000038   0.001950   0.376039  -0.003474
    18  H    0.003775  -0.000064  -0.000152  -0.000210  -0.003474   0.318938
    19  H   -0.008442   0.000095   0.007232   0.002908   0.000025  -0.000141
    20  H    0.004724  -0.000066   0.000208  -0.000053  -0.000011   0.001153
    21  H   -0.000472   0.000010  -0.000066   0.000006  -0.000000   0.000001
    22  H   -0.000228  -0.000052   0.000040  -0.000002   0.000000   0.000002
    23  H   -0.008813   0.000002   0.009462   0.000175   0.000000   0.000000
    24  H    0.004833  -0.000059   0.000217   0.000008   0.000000  -0.000000
    25  H   -0.034939  -0.002964   0.000952  -0.000078  -0.000000   0.000003
    26  H   -0.048195  -0.000743   0.004971  -0.000029   0.000000  -0.000001
    27  H    0.004750  -0.000163  -0.041472   0.407025  -0.000078   0.000001
              19         20         21         22         23         24
     1  O    0.000001   0.000000  -0.000000  -0.000000   0.000000   0.000000
     2  N   -0.000014  -0.000000  -0.000000   0.000000  -0.000000   0.000000
     3  O    0.000000   0.000000  -0.000000  -0.000000   0.000000   0.000000
     4  C   -0.001579  -0.000050   0.000002  -0.000000   0.000055   0.000000
     5  C    0.002231  -0.000038   0.000000  -0.000002  -0.000001  -0.000000
     6  N   -0.001405   0.000403  -0.000083  -0.000093  -0.000029   0.000006
     7  C   -0.035862  -0.043264   0.004555  -0.004433   0.000842  -0.000145
     8  H    0.003932  -0.002132  -0.000086   0.003280   0.000023  -0.000091
     9  C    0.392387   0.397459  -0.036362  -0.047381  -0.002060   0.004437
    10  C   -0.032141  -0.034419   0.402233   0.397921  -0.038301  -0.038761
    11  C   -0.002007   0.003901  -0.035002  -0.045303   0.399329   0.402096
    12  C    0.000771  -0.000478   0.004441  -0.000921  -0.037091  -0.038900
    13  C   -0.008442   0.004724  -0.000472  -0.000228  -0.008813   0.004833
    14  H    0.000095  -0.000066   0.000010  -0.000052   0.000002  -0.000059
    15  N    0.007232   0.000208  -0.000066   0.000040   0.009462   0.000217
    16  C    0.002908  -0.000053   0.000006  -0.000002   0.000175   0.000008
    17  H    0.000025  -0.000011  -0.000000   0.000000   0.000000   0.000000
    18  H   -0.000141   0.001153   0.000001   0.000002   0.000000  -0.000000
    19  H    0.502818  -0.025395  -0.002771   0.003961   0.001417  -0.000069
    20  H   -0.025395   0.544439  -0.002790  -0.003055  -0.000043  -0.000084
    21  H   -0.002771  -0.002790   0.524639  -0.027480  -0.002845  -0.002300
    22  H    0.003961  -0.003055  -0.027480   0.571506   0.004090  -0.003729
    23  H    0.001417  -0.000043  -0.002845   0.004090   0.493603  -0.025413
    24  H   -0.000069  -0.000084  -0.002300  -0.003729  -0.025413   0.539731
    25  H   -0.000031   0.000013  -0.000087  -0.000085  -0.002157  -0.002356
    26  H    0.000021  -0.000031  -0.000079   0.002424   0.004001  -0.002864
    27  H    0.000077  -0.000000  -0.000000   0.000000  -0.000052  -0.000000
              25         26         27
     1  O    0.000000   0.000000   0.006487
     2  N   -0.000000  -0.000000  -0.000685
     3  O    0.000000   0.000000   0.000029
     4  C    0.000027   0.000004  -0.066991
     5  C   -0.000002  -0.000000   0.002077
     6  N   -0.000090  -0.000057  -0.000003
     7  C    0.005103  -0.003499  -0.000398
     8  H   -0.000048   0.001566   0.000007
     9  C   -0.000406   0.000965  -0.000044
    10  C    0.004224  -0.002265   0.000006
    11  C   -0.033471  -0.041284   0.000023
    12  C    0.397634   0.397374  -0.000029
    13  C   -0.034939  -0.048195   0.004750
    14  H   -0.002964  -0.000743  -0.000163
    15  N    0.000952   0.004971  -0.041472
    16  C   -0.000078  -0.000029   0.407025
    17  H   -0.000000   0.000000  -0.000078
    18  H    0.000003  -0.000001   0.000001
    19  H   -0.000031   0.000021   0.000077
    20  H    0.000013  -0.000031  -0.000000
    21  H   -0.000087  -0.000079  -0.000000
    22  H   -0.000085   0.002424   0.000000
    23  H   -0.002157   0.004001  -0.000052
    24  H   -0.002356  -0.002864  -0.000000
    25  H    0.507304  -0.024056  -0.000015
    26  H   -0.024056   0.561921   0.000001
    27  H   -0.000015   0.000001   0.438218
 Mulliken charges:
               1
     1  O   -0.466768
     2  N    0.493484
     3  O   -0.503271
     4  C    0.005124
     5  C    0.181807
     6  N   -0.766873
     7  C    0.042654
     8  H    0.186479
     9  C   -0.306304
    10  C   -0.326282
    11  C   -0.323234
    12  C   -0.303656
    13  C   -0.028436
    14  H    0.194986
    15  N   -0.525574
    16  C    0.120832
    17  H    0.295089
    18  H    0.400417
    19  H    0.191983
    20  H    0.159609
    21  H    0.174535
    22  H    0.149538
    23  H    0.203808
    24  H    0.163443
    25  H    0.185525
    26  H    0.149855
    27  H    0.251231
 Sum of Mulliken charges =  -0.00000
 Mulliken charges with hydrogens summed into heavy atoms:
               1
     1  O   -0.466768
     2  N    0.493484
     3  O   -0.503271
     4  C    0.005124
     5  C    0.476896
     6  N   -0.366456
     7  C    0.229132
     9  C    0.045288
    10  C   -0.002209
    11  C    0.044017
    12  C    0.031723
    13  C    0.166550
    15  N   -0.525574
    16  C    0.372063
 Electronic spatial extent (au):  <R**2>=           2980.1464
 Charge=              0.0000 electrons
 Dipole moment (field-independent basis, Debye):
    X=              5.3537    Y=              4.6546    Z=              1.5152  Tot=              7.2541
 Quadrupole moment (field-independent basis, Debye-Ang):
   XX=           -105.6346   YY=            -78.9553   ZZ=            -81.9870
   XY=             -1.0611   XZ=             -2.0738   YZ=              1.6166
 Traceless Quadrupole moment (field-independent basis, Debye-Ang):
   XX=            -16.7756   YY=              9.9037   ZZ=              6.8719
   XY=             -1.0611   XZ=             -2.0738   YZ=              1.6166
 Octapole moment (field-independent basis, Debye-Ang**2):
  XXX=             85.7121  YYY=             33.4615  ZZZ=              0.9376  XYY=             -5.6158
  XXY=              7.4406  XXZ=             15.7986  XZZ=             -8.4329  YZZ=             -0.7907
  YYZ=              8.6117  XYZ=              1.0333
 Hexadecapole moment (field-independent basis, Debye-Ang**3):
 XXXX=          -3305.2252 YYYY=           -598.3354 ZZZZ=           -327.7509 XXXY=              2.6265
 XXXZ=            -98.8441 YYYX=              7.4307 YYYZ=             21.3764 ZZZX=            -45.0415
 ZZZY=              1.4906 XXYY=           -617.8374 XXZZ=           -524.8017 YYZZ=           -162.0638
 XXYZ=             -3.0625 YYXZ=            -16.1195 ZZXY=              8.2332
 N-N= 9.324232628419D+02 E-N=-3.411581111475D+03  KE= 6.596238292099D+02
 Unable to Open any file for archive entry.
 1\1\GINC-LOTUS\FOpt\RMP2-FC\6-31G(d)\C9H13N3O2\ALEXEY\02-Jul-2023\0\\#
 MP2/6-31G* SCF=Tight Opt=(ModRedun, MaxCycle=20 ) NoSymm\\MolName:\\0,
 1\O,-3.4836314233,-1.3445677212,-0.5628348787\N,-3.0880443222,-0.19030
 7781,-0.3093473934\O,-3.8421782432,0.8009258076,-0.2656142244\C,-1.667
 9691089,-0.0201509718,-0.0398322138\C,-1.2779871842,1.2639468773,0.241
 758756\N,-0.0585961966,1.7085371032,0.5894657378\C,1.2324901352,1.0400
 346388,0.4772762802\H,1.9062455088,1.5829983958,1.15299827\C,1.8220441
 593,1.0379139773,-0.9356810873\C,3.2234348673,0.4148635078,-0.88677838
 74\C,3.2185085441,-0.9783703401,-0.2534823417\C,2.5386339006,-0.975718
 6526,1.1150756595\C,1.114204723,-0.4253285663,0.9615249527\H,0.5778551
 998,-0.4342752744,1.9212161173\N,0.4365906198,-1.3002523588,0.00998123
 8\C,-0.8190872893,-1.1707394034,-0.271494272\H,-2.0648742124,2.0117808
 771,0.2836549627\H,-0.0086194698,2.7109750857,0.7374109424\H,1.1609597
 105,0.4649951295,-1.5934926563\H,1.8700046858,2.0629461563,-1.32524519
 27\H,3.6423510512,0.3702385284,-1.8987024388\H,3.8808440678,1.07761780
 9,-0.3062366807\H,2.6803343469,-1.6764862984,-0.9010877114\H,4.2482581
 327,-1.3449647615,-0.1632988077\H,2.4854415345,-1.9931930579,1.5161404
 892\H,3.1019953854,-0.3646413393,1.8333514999\H,-1.2622191226,-1.96676
 7367,-0.8697166194\\Version=ES64L-G16RevC.02\HF=-661.2960116\MP2=-663.
 3314696\RMSD=5.292e-09\RMSF=3.097e-03\Dipole=1.955118,1.6403472,0.5550
 379\PG=C01 [X(C9H13N3O2)]\\@
 The archive entry for this job was punched.


 The arm of the moral universe is long, but it bends toward justice.
 -- Martin Luther King, Jr.
 Job cpu time:       0 days  1 hours  6 minutes 45.9 seconds.
 Elapsed time:       0 days  0 hours 19 minutes 57.3 seconds.
 File lengths (MBytes):  RWF=     36 Int=      0 D2E=      0 Chk=      7 Scr=      1
 Normal termination of Gaussian 16 at Sun Jul  2 15:59:38 2023.
