 Entering Gaussian System, Link 0=g16
 Initial command:
 /home/alexey/programs//g16/l1.exe "/home/alexey/tmp/Gau-1534989.inp" -scrdir="/home/alexey/tmp/"
 Entering Link 1 = /home/alexey/programs//g16/l1.exe PID=   1534991.
  
 Copyright (c) 1988-2021, Gaussian, Inc.  All Rights Reserved.
  
 This is part of the Gaussian(R) 16 program.  It is based on
 the Gaussian(R) 09 system (copyright 2009, Gaussian, Inc.),
 the Gaussian(R) 03 system (copyright 2003, Gaussian, Inc.),
 the Gaussian(R) 98 system (copyright 1998, Gaussian, Inc.),
 the Gaussian(R) 94 system (copyright 1995, Gaussian, Inc.),
 the Gaussian 92(TM) system (copyright 1992, Gaussian, Inc.),
 the Gaussian 90(TM) system (copyright 1990, Gaussian, Inc.),
 the Gaussian 88(TM) system (copyright 1988, Gaussian, Inc.),
 the Gaussian 86(TM) system (copyright 1986, Carnegie Mellon
 University), and the Gaussian 82(TM) system (copyright 1983,
 Carnegie Mellon University). Gaussian is a federally registered
 trademark of Gaussian, Inc.
  
 This software contains proprietary and confidential information,
 including trade secrets, belonging to Gaussian, Inc.
  
 This software is provided under written license and may be
 used, copied, transmitted, or stored only in accord with that
 written license.
  
 The following legend is applicable only to US Government
 contracts under FAR:
  
                    RESTRICTED RIGHTS LEGEND
  
 Use, reproduction and disclosure by the US Government is
 subject to restrictions as set forth in subparagraphs (a)
 and (c) of the Commercial Computer Software - Restricted
 Rights clause in FAR 52.227-19.
  
 Gaussian, Inc.
 340 Quinnipiac St., Bldg. 40, Wallingford CT 06492
  
  
 ---------------------------------------------------------------
 Warning -- This program may not be used in any manner that
 competes with the business of Gaussian, Inc. or will provide
 assistance to any competitor of Gaussian, Inc.  The licensee
 of this program is prohibited from giving any competitor of
 Gaussian, Inc. access to this program.  By using this program,
 the user acknowledges that Gaussian, Inc. is engaged in the
 business of creating and licensing software in the field of
 computational chemistry and represents and warrants to the
 licensee that it is not a competitor of Gaussian, Inc. and that
 it will not use this program in any manner prohibited above.
 ---------------------------------------------------------------
  

 Cite this work as:
 Gaussian 16, Revision C.02,
 M. J. Frisch, G. W. Trucks, H. B. Schlegel, G. E. Scuseria, 
 M. A. Robb, J. R. Cheeseman, G. Scalmani, V. Barone, 
 G. A. Petersson, H. Nakatsuji, X. Li, M. Caricato, A. V. Marenich, 
 J. Bloino, B. G. Janesko, R. Gomperts, B. Mennucci, H. P. Hratchian, 
 J. V. Ortiz, A. F. Izmaylov, J. L. Sonnenberg, D. Williams-Young, 
 F. Ding, F. Lipparini, F. Egidi, J. Goings, B. Peng, A. Petrone, 
 T. Henderson, D. Ranasinghe, V. G. Zakrzewski, J. Gao, N. Rega, 
 G. Zheng, W. Liang, M. Hada, M. Ehara, K. Toyota, R. Fukuda, 
 J. Hasegawa, M. Ishida, T. Nakajima, Y. Honda, O. Kitao, H. Nakai, 
 T. Vreven, K. Throssell, J. A. Montgomery, Jr., J. E. Peralta, 
 F. Ogliaro, M. J. Bearpark, J. J. Heyd, E. N. Brothers, K. N. Kudin, 
 V. N. Staroverov, T. A. Keith, R. Kobayashi, J. Normand, 
 K. Raghavachari, A. P. Rendell, J. C. Burant, S. S. Iyengar, 
 J. Tomasi, M. Cossi, J. M. Millam, M. Klene, C. Adamo, R. Cammi, 
 J. W. Ochterski, R. L. Martin, K. Morokuma, O. Farkas, 
 J. B. Foresman, and D. J. Fox, Gaussian, Inc., Wallingford CT, 2019.
 
 ******************************************
 Gaussian 16:  ES64L-G16RevC.02  7-Dec-2021
                 2-Jul-2023 
 ******************************************
 %mem=8GB
 %NPROCS=4
 Will use up to    4 processors via shared memory.
 %NoSave
 ---------------------------------------------------------
 #MP2/6-31G* SCF=Tight Opt=(ModRedun, MaxCycle=20 ) NoSymm
 ---------------------------------------------------------
 1/6=20,18=120,19=15,38=1/1,3;
 2/9=110,12=2,15=1,17=6,18=5,40=1/2;
 3/5=1,6=6,7=1,11=9,25=1,30=1,71=1/1,2,3;
 4//1;
 5/5=2,32=2,38=5/2;
 8/6=4,10=2/1;
 9/15=2,16=-3/6;
 10/5=1,31=1/2;
 6/7=2,8=2,9=2,10=2/1;
 7/12=2,30=1/1,2,3,16;
 1/6=20,18=20,19=15/3(2);
 2/9=110,15=1/2;
 99//99;
 2/9=110,15=1/2;
 3/5=1,6=6,7=1,11=9,25=1,30=1,71=1/1,2,3;
 4/5=5,16=3,69=1/1;
 5/5=2,32=2,38=5/2;
 8/6=4,10=2/1;
 9/15=2,16=-3/6;
 10/5=1,31=1/2;
 7/12=2,30=1/1,2,3,16;
 1/6=20,18=20,19=15/3(-8);
 2/9=110,15=1/2;
 6/7=2,8=2,9=2,10=2/1;
 99/9=10/99;
 --------
 MolName:
 --------
 Symbolic Z-matrix:
 Charge =  0 Multiplicity = 1
 8                    0    -3.64355  -1.38975  -0.32491 
 7                    0    -3.25592  -0.23187  -0.17801 
 8                    0    -4.01285   0.73893  -0.13644 
 6                    0    -1.74889   0.00473  -0.05679 
 6                    0    -1.35312   1.31546   0.23342 
 7                    0    -0.08054   1.73515   0.51557 
 6                    0     1.20867   0.98891   0.42477 
 1                    0     1.90121   1.49033   1.14855 
 6                    0     1.90476   1.04526  -0.95908 
 6                    0     3.32766   0.46625  -0.83766 
 6                    0     3.30208  -0.94991  -0.24096 
 6                    0     2.5171   -0.98761   1.08761 
 6                    0     1.06669  -0.46399   0.89934 
 1                    0     0.55214  -0.51138   1.88743 
 7                    0     0.38085  -1.33924  -0.054 
 6                    0    -0.87245  -1.16907  -0.31755 
 1                    0    -2.13408   2.08971   0.31227 
 1                    0     0.1547    2.72997   0.48107 
 1                    0     1.32187   0.46736  -1.70715 
 1                    0     1.96743   2.09641  -1.31228 
 1                    0     3.81504   0.44513  -1.83692 
 1                    0     3.93354   1.12345  -0.17464 
 1                    0     2.82618  -1.64291  -0.97089 
 1                    0     4.34171  -1.30644  -0.07227 
 1                    0     2.48314  -2.03369   1.46336 
 1                    0     3.0407   -0.37094   1.84762 
 1                    0    -1.38109  -1.97823  -0.86345 
 
 The following ModRedundant input section has been read:
 D       5       6       7       9 F                                           
 D       1       2       4      16 F                                           
 D       7      13      15      16 F                                           
 D       7       9      10      11 F                                           
 D       9      10      11      12 F                                           
 D       6       7      13      15 F                                           
 

 GradGradGradGradGradGradGradGradGradGradGradGradGradGradGradGradGradGrad
 Berny optimization.
 Initialization pass.
                           ----------------------------
                           !    Initial Parameters    !
                           ! (Angstroms and Degrees)  !
 --------------------------                            --------------------------
 ! Name  Definition              Value          Derivative Info.                !
 --------------------------------------------------------------------------------
 ! R1    R(1,2)                  1.2298         estimate D2E/DX2                !
 ! R2    R(2,3)                  1.2317         estimate D2E/DX2                !
 ! R3    R(2,4)                  1.5303         estimate D2E/DX2                !
 ! R4    R(4,5)                  1.3996         estimate D2E/DX2                !
 ! R5    R(4,16)                 1.4879         estimate D2E/DX2                !
 ! R6    R(5,6)                  1.3694         estimate D2E/DX2                !
 ! R7    R(5,17)                 1.1025         estimate D2E/DX2                !
 ! R8    R(6,7)                  1.4924         estimate D2E/DX2                !
 ! R9    R(6,18)                 1.0228         estimate D2E/DX2                !
 ! R10   R(7,8)                  1.1202         estimate D2E/DX2                !
 ! R11   R(7,9)                  1.5501         estimate D2E/DX2                !
 ! R12   R(7,13)                 1.535          estimate D2E/DX2                !
 ! R13   R(9,10)                 1.541          estimate D2E/DX2                !
 ! R14   R(9,19)                 1.1106         estimate D2E/DX2                !
 ! R15   R(9,20)                 1.1107         estimate D2E/DX2                !
 ! R16   R(10,11)                1.5369         estimate D2E/DX2                !
 ! R17   R(10,21)                1.112          estimate D2E/DX2                !
 ! R18   R(10,22)                1.1129         estimate D2E/DX2                !
 ! R19   R(11,12)                1.5436         estimate D2E/DX2                !
 ! R20   R(11,23)                1.1133         estimate D2E/DX2                !
 ! R21   R(11,24)                1.1119         estimate D2E/DX2                !
 ! R22   R(12,13)                1.5535         estimate D2E/DX2                !
 ! R23   R(12,25)                1.112          estimate D2E/DX2                !
 ! R24   R(12,26)                1.11           estimate D2E/DX2                !
 ! R25   R(13,14)                1.115          estimate D2E/DX2                !
 ! R26   R(13,15)                1.4647         estimate D2E/DX2                !
 ! R27   R(15,16)                1.292          estimate D2E/DX2                !
 ! R28   R(16,27)                1.1007         estimate D2E/DX2                !
 ! A1    A(1,2,3)              123.5309         estimate D2E/DX2                !
 ! A2    A(1,2,4)              117.7373         estimate D2E/DX2                !
 ! A3    A(3,2,4)              118.7283         estimate D2E/DX2                !
 ! A4    A(2,4,5)              116.0843         estimate D2E/DX2                !
 ! A5    A(2,4,16)             116.3737         estimate D2E/DX2                !
 ! A6    A(5,4,16)             127.4858         estimate D2E/DX2                !
 ! A7    A(4,5,6)              126.3367         estimate D2E/DX2                !
 ! A8    A(4,5,17)             118.1765         estimate D2E/DX2                !
 ! A9    A(6,5,17)             115.3597         estimate D2E/DX2                !
 ! A10   A(5,6,7)              129.5692         estimate D2E/DX2                !
 ! A11   A(5,6,18)             120.3225         estimate D2E/DX2                !
 ! A12   A(7,6,18)             106.5952         estimate D2E/DX2                !
 ! A13   A(6,7,8)              105.7194         estimate D2E/DX2                !
 ! A14   A(6,7,9)              115.092          estimate D2E/DX2                !
 ! A15   A(6,7,13)             111.9978         estimate D2E/DX2                !
 ! A16   A(8,7,9)              106.4348         estimate D2E/DX2                !
 ! A17   A(8,7,13)             106.3254         estimate D2E/DX2                !
 ! A18   A(9,7,13)             110.6067         estimate D2E/DX2                !
 ! A19   A(7,9,10)             109.3083         estimate D2E/DX2                !
 ! A20   A(7,9,19)             110.2884         estimate D2E/DX2                !
 ! A21   A(7,9,20)             110.0991         estimate D2E/DX2                !
 ! A22   A(10,9,19)            110.0106         estimate D2E/DX2                !
 ! A23   A(10,9,20)            109.1813         estimate D2E/DX2                !
 ! A24   A(19,9,20)            107.9321         estimate D2E/DX2                !
 ! A25   A(9,10,11)            111.1882         estimate D2E/DX2                !
 ! A26   A(9,10,21)            109.9403         estimate D2E/DX2                !
 ! A27   A(9,10,22)            109.1321         estimate D2E/DX2                !
 ! A28   A(11,10,21)           109.7962         estimate D2E/DX2                !
 ! A29   A(11,10,22)           108.7765         estimate D2E/DX2                !
 ! A30   A(21,10,22)           107.9363         estimate D2E/DX2                !
 ! A31   A(10,11,12)           111.415          estimate D2E/DX2                !
 ! A32   A(10,11,23)           109.0329         estimate D2E/DX2                !
 ! A33   A(10,11,24)           109.8024         estimate D2E/DX2                !
 ! A34   A(12,11,23)           109.3727         estimate D2E/DX2                !
 ! A35   A(12,11,24)           109.698          estimate D2E/DX2                !
 ! A36   A(23,11,24)           107.4298         estimate D2E/DX2                !
 ! A37   A(11,12,13)           111.2387         estimate D2E/DX2                !
 ! A38   A(11,12,25)           109.228          estimate D2E/DX2                !
 ! A39   A(11,12,26)           109.6252         estimate D2E/DX2                !
 ! A40   A(13,12,25)           109.2389         estimate D2E/DX2                !
 ! A41   A(13,12,26)           109.642          estimate D2E/DX2                !
 ! A42   A(25,12,26)           107.7982         estimate D2E/DX2                !
 ! A43   A(7,13,12)            105.6726         estimate D2E/DX2                !
 ! A44   A(7,13,14)            110.9081         estimate D2E/DX2                !
 ! A45   A(7,13,15)            114.0593         estimate D2E/DX2                !
 ! A46   A(12,13,14)           108.0064         estimate D2E/DX2                !
 ! A47   A(12,13,15)           108.3395         estimate D2E/DX2                !
 ! A48   A(14,13,15)           109.5908         estimate D2E/DX2                !
 ! A49   A(13,15,16)           120.5509         estimate D2E/DX2                !
 ! A50   A(4,16,15)            129.759          estimate D2E/DX2                !
 ! A51   A(4,16,27)            113.2451         estimate D2E/DX2                !
 ! A52   A(15,16,27)           116.9128         estimate D2E/DX2                !
 ! D1    D(1,2,4,5)           -174.2604         estimate D2E/DX2                !
 ! D2    D(1,2,4,16)             8.2582         Frozen                          !
 ! D3    D(3,2,4,5)              6.397          estimate D2E/DX2                !
 ! D4    D(3,2,4,16)          -171.0844         estimate D2E/DX2                !
 ! D5    D(2,4,5,6)            173.1612         estimate D2E/DX2                !
 ! D6    D(2,4,5,17)            -2.5337         estimate D2E/DX2                !
 ! D7    D(16,4,5,6)            -9.6827         estimate D2E/DX2                !
 ! D8    D(16,4,5,17)          174.6225         estimate D2E/DX2                !
 ! D9    D(2,4,16,15)         -165.5727         estimate D2E/DX2                !
 ! D10   D(2,4,16,27)           17.8952         estimate D2E/DX2                !
 ! D11   D(5,4,16,15)           17.2783         estimate D2E/DX2                !
 ! D12   D(5,4,16,27)         -159.2539         estimate D2E/DX2                !
 ! D13   D(4,5,6,7)              8.5435         estimate D2E/DX2                !
 ! D14   D(4,5,6,18)           164.4042         estimate D2E/DX2                !
 ! D15   D(17,5,6,7)          -175.6559         estimate D2E/DX2                !
 ! D16   D(17,5,6,18)          -19.7953         estimate D2E/DX2                !
 ! D17   D(5,6,7,8)           -154.9522         estimate D2E/DX2                !
 ! D18   D(5,6,7,9)             87.8967         Frozen                          !
 ! D19   D(5,6,7,13)           -39.5707         estimate D2E/DX2                !
 ! D20   D(18,6,7,8)            46.6619         estimate D2E/DX2                !
 ! D21   D(18,6,7,9)           -70.4891         estimate D2E/DX2                !
 ! D22   D(18,6,7,13)          162.0434         estimate D2E/DX2                !
 ! D23   D(6,7,9,10)           169.5583         estimate D2E/DX2                !
 ! D24   D(6,7,9,19)           -69.3712         estimate D2E/DX2                !
 ! D25   D(6,7,9,20)            49.6295         estimate D2E/DX2                !
 ! D26   D(8,7,9,10)            52.8129         estimate D2E/DX2                !
 ! D27   D(8,7,9,19)           173.8834         estimate D2E/DX2                !
 ! D28   D(8,7,9,20)           -67.116          estimate D2E/DX2                !
 ! D29   D(13,7,9,10)          -62.2753         estimate D2E/DX2                !
 ! D30   D(13,7,9,19)           58.7952         estimate D2E/DX2                !
 ! D31   D(13,7,9,20)          177.7959         estimate D2E/DX2                !
 ! D32   D(6,7,13,12)         -166.0856         estimate D2E/DX2                !
 ! D33   D(6,7,13,14)          -49.2857         estimate D2E/DX2                !
 ! D34   D(6,7,13,15)           75.0227         Frozen                          !
 ! D35   D(8,7,13,12)          -51.074          estimate D2E/DX2                !
 ! D36   D(8,7,13,14)           65.726          estimate D2E/DX2                !
 ! D37   D(8,7,13,15)         -169.9657         estimate D2E/DX2                !
 ! D38   D(9,7,13,12)           64.0827         estimate D2E/DX2                !
 ! D39   D(9,7,13,14)         -179.1173         estimate D2E/DX2                !
 ! D40   D(9,7,13,15)          -54.809          estimate D2E/DX2                !
 ! D41   D(7,9,10,11)           54.8123         Frozen                          !
 ! D42   D(7,9,10,21)          176.6171         estimate D2E/DX2                !
 ! D43   D(7,9,10,22)          -65.1793         estimate D2E/DX2                !
 ! D44   D(19,9,10,11)         -66.4268         estimate D2E/DX2                !
 ! D45   D(19,9,10,21)          55.3779         estimate D2E/DX2                !
 ! D46   D(19,9,10,22)         173.5816         estimate D2E/DX2                !
 ! D47   D(20,9,10,11)         175.3037         estimate D2E/DX2                !
 ! D48   D(20,9,10,21)         -62.8915         estimate D2E/DX2                !
 ! D49   D(20,9,10,22)          55.3121         estimate D2E/DX2                !
 ! D50   D(9,10,11,12)         -52.8222         Frozen                          !
 ! D51   D(9,10,11,23)          67.9892         estimate D2E/DX2                !
 ! D52   D(9,10,11,24)        -174.56           estimate D2E/DX2                !
 ! D53   D(21,10,11,12)       -174.7108         estimate D2E/DX2                !
 ! D54   D(21,10,11,23)        -53.8995         estimate D2E/DX2                !
 ! D55   D(21,10,11,24)         63.5514         estimate D2E/DX2                !
 ! D56   D(22,10,11,12)         67.3801         estimate D2E/DX2                !
 ! D57   D(22,10,11,23)       -171.8086         estimate D2E/DX2                !
 ! D58   D(22,10,11,24)        -54.3578         estimate D2E/DX2                !
 ! D59   D(10,11,12,13)         56.862          estimate D2E/DX2                !
 ! D60   D(10,11,12,25)        177.5232         estimate D2E/DX2                !
 ! D61   D(10,11,12,26)        -64.5685         estimate D2E/DX2                !
 ! D62   D(23,11,12,13)        -63.7501         estimate D2E/DX2                !
 ! D63   D(23,11,12,25)         56.9112         estimate D2E/DX2                !
 ! D64   D(23,11,12,26)        174.8195         estimate D2E/DX2                !
 ! D65   D(24,11,12,13)        178.6604         estimate D2E/DX2                !
 ! D66   D(24,11,12,25)        -60.6784         estimate D2E/DX2                !
 ! D67   D(24,11,12,26)         57.2299         estimate D2E/DX2                !
 ! D68   D(11,12,13,7)         -61.0711         estimate D2E/DX2                !
 ! D69   D(11,12,13,14)       -179.8177         estimate D2E/DX2                !
 ! D70   D(11,12,13,15)         61.5504         estimate D2E/DX2                !
 ! D71   D(25,12,13,7)         178.2741         estimate D2E/DX2                !
 ! D72   D(25,12,13,14)         59.5275         estimate D2E/DX2                !
 ! D73   D(25,12,13,15)        -59.1044         estimate D2E/DX2                !
 ! D74   D(26,12,13,7)          60.3496         estimate D2E/DX2                !
 ! D75   D(26,12,13,14)        -58.3971         estimate D2E/DX2                !
 ! D76   D(26,12,13,15)       -177.029          estimate D2E/DX2                !
 ! D77   D(7,13,15,16)         -67.1599         Frozen                          !
 ! D78   D(12,13,15,16)        175.4743         estimate D2E/DX2                !
 ! D79   D(14,13,15,16)         57.8513         estimate D2E/DX2                !
 ! D80   D(13,15,16,4)          16.5023         estimate D2E/DX2                !
 ! D81   D(13,15,16,27)       -167.0712         estimate D2E/DX2                !
 --------------------------------------------------------------------------------
 Trust Radius=3.00D-01 FncErr=1.00D-07 GrdErr=1.00D-07 EigMax=2.50D+02 EigMin=1.00D-04
 Number of steps in this run=     20 maximum allowed number of steps=    162.
 GradGradGradGradGradGradGradGradGradGradGradGradGradGradGradGradGradGrad

                          Input orientation:                          
 ---------------------------------------------------------------------
 Center     Atomic      Atomic             Coordinates (Angstroms)
 Number     Number       Type             X           Y           Z
 ---------------------------------------------------------------------
      1          8           0       -3.643550   -1.389750   -0.324910
      2          7           0       -3.255920   -0.231870   -0.178010
      3          8           0       -4.012850    0.738930   -0.136440
      4          6           0       -1.748890    0.004730   -0.056790
      5          6           0       -1.353120    1.315460    0.233420
      6          7           0       -0.080540    1.735150    0.515570
      7          6           0        1.208670    0.988910    0.424770
      8          1           0        1.901210    1.490330    1.148550
      9          6           0        1.904760    1.045260   -0.959080
     10          6           0        3.327660    0.466250   -0.837660
     11          6           0        3.302080   -0.949910   -0.240960
     12          6           0        2.517100   -0.987610    1.087610
     13          6           0        1.066690   -0.463990    0.899340
     14          1           0        0.552140   -0.511380    1.887430
     15          7           0        0.380850   -1.339240   -0.054000
     16          6           0       -0.872450   -1.169070   -0.317550
     17          1           0       -2.134080    2.089710    0.312270
     18          1           0        0.154700    2.729970    0.481070
     19          1           0        1.321870    0.467360   -1.707150
     20          1           0        1.967430    2.096410   -1.312280
     21          1           0        3.815040    0.445130   -1.836920
     22          1           0        3.933540    1.123450   -0.174640
     23          1           0        2.826180   -1.642910   -0.970890
     24          1           0        4.341710   -1.306440   -0.072270
     25          1           0        2.483140   -2.033690    1.463360
     26          1           0        3.040700   -0.370940    1.847620
     27          1           0       -1.381090   -1.978230   -0.863450
 ---------------------------------------------------------------------
                    Distance matrix (angstroms):
                    1          2          3          4          5
     1  O    0.000000
     2  N    1.229847   0.000000
     3  O    2.168682   1.231716   0.000000
     4  C    2.367741   1.530298   2.381367   0.000000
     5  C    3.588309   2.486796   2.746515   1.399596   0.000000
     6  N    4.813154   3.799113   4.108605   2.470899   1.369382
     7  C    5.455647   4.667570   5.257539   3.153993   2.589598
     8  H    6.419526   5.596581   6.098517   4.121053   3.385071
     9  C    6.092224   5.373430   5.982364   3.904611   3.479777
    10  C    7.232248   6.653273   7.378967   5.156949   4.876276
    11  C    6.960049   6.597493   7.508083   5.143691   5.198829
    12  C    6.333288   5.958246   6.864363   4.526926   4.583926
    13  C    4.954007   4.460888   5.321803   3.010212   3.076584
    14  H    4.823878   4.341139   5.147665   3.056321   3.114981
    15  N    4.033824   3.803649   4.861089   2.518344   3.183818
    16  C    2.779883   2.564906   3.679046   1.487935   2.589884
    17  H    3.845925   2.624621   2.357058   2.152143   1.102533
    18  H    5.661131   4.564999   4.659832   3.367474   2.082232
    19  H    5.478580   4.876818   5.567775   3.516715   3.411841
    20  H    6.679170   5.830166   6.244125   4.445494   3.745013
    21  H    7.828379   7.294435   8.015848   5.858339   5.635039
    22  H    7.984425   7.316095   7.955780   5.792705   5.305860
    23  H    6.506826   6.293777   7.289842   4.947885   5.260120
    24  H    7.989690   7.673973   8.601531   6.230154   6.276854
    25  H    6.414741   6.235179   7.241869   4.937215   5.238936
    26  H    7.101905   6.615885   7.410862   5.167986   4.975464
    27  H    2.398970   2.652280   3.851969   2.172121   3.471642
                    6          7          8          9         10
     6  N    0.000000
     7  C    1.492374   0.000000
     8  H    2.094740   1.120219   0.000000
     9  C    2.567481   1.550083   2.154113   0.000000
    10  C    3.880356   2.521313   2.651137   1.540987   0.000000
    11  C    4.384519   2.929946   3.138144   2.539469   1.536950
    12  C    3.806361   2.461296   2.554060   2.948976   2.545070
    13  C    2.509907   1.535022   2.139602   2.536518   2.999083
    14  H    2.707246   2.195740   2.524436   3.515015   4.010659
    15  N    3.160564   2.516901   3.429882   2.971079   3.543671
    16  C    3.123412   3.088523   4.112791   3.609392   4.537148
    17  H    2.093817   3.521135   4.164395   4.361128   5.812793
    18  H    1.022837   2.036004   2.243331   2.824002   4.114748
    19  H    2.917967   2.197706   3.088224   1.110557   2.186140
    20  H    2.768705   2.195362   2.535232   1.110673   2.175526
    21  H    4.730106   3.493437   3.697056   2.186305   1.111983
    22  H    4.118665   2.793262   2.452712   2.176559   1.112923
    23  H    4.697858   3.389791   3.894199   2.841727   2.172047
    24  H    5.399363   3.915561   3.907475   3.500807   2.180951
    25  H    4.655633   3.440793   3.585591   3.960135   3.501087
    26  H    3.994009   2.688871   2.291607   3.342686   2.827360
    27  H    4.169211   4.143705   5.181944   4.466256   5.305514
                   11         12         13         14         15
    11  C    0.000000
    12  C    1.543604   0.000000
    13  C    2.556046   1.553484   0.000000
    14  H    3.504928   2.174299   1.115047   0.000000
    15  N    2.952984   2.447546   1.464683   2.117509   0.000000
    16  C    4.180980   3.673752   2.395459   2.706280   1.291966
    17  H    6.252774   5.630677   4.136540   4.057410   4.268106
    18  H    4.895799   4.446260   3.347843   3.555581   4.110464
    19  H    2.842464   3.369896   2.779626   3.804132   2.623400
    20  H    3.494150   3.946237   3.501177   4.363686   3.988006
    21  H    2.180906   3.505748   3.983346   5.043036   4.261038
    22  H    2.168401   2.838336   3.448511   4.284702   4.324466
    23  H    1.113341   2.182286   2.825494   3.823822   2.629171
    24  H    1.111935   2.185446   3.518452   4.339745   3.961038
    25  H    2.179438   1.112036   2.188243   2.495200   2.684076
    26  H    2.183047   1.109979   2.191942   2.492838   3.410068
    27  H    4.834978   4.470330   3.375200   3.668292   2.041556
                   16         17         18         19         20
    16  C    0.000000
    17  H    3.550779   0.000000
    18  H    4.110395   2.382633   0.000000
    19  H    3.069842   4.318989   3.357082   0.000000
    20  H    4.440469   4.411529   2.627450   1.796239   0.000000
    21  H    5.185238   6.535724   4.898128   2.496644   2.532910
    22  H    5.326689   6.163339   4.158184   3.098364   2.471126
    23  H    3.785663   6.339017   5.326075   2.694117   3.851819
    24  H    5.221733   7.322401   5.842075   3.865053   4.330614
    25  H    3.896048   6.296519   5.392493   4.201896   5.002785
    26  H    4.542875   5.932154   4.451078   4.036522   4.150264
    27  H    1.100664   4.300866   5.131621   3.741488   5.293083
                   21         22         23         24         25
    21  H    0.000000
    22  H    1.799260   0.000000
    23  H    2.467339   3.084316   0.000000
    24  H    2.541529   2.466059   1.793756   0.000000
    25  H    4.337091   3.841124   2.489168   2.518201   0.000000
    26  H    3.852455   2.668314   3.099665   2.500753   1.795346
    27  H    5.815504   6.191944   4.221979   5.816159   4.511030
                   26         27
    26  H    0.000000
    27  H    5.430056   0.000000
 Symmetry turned off by external request.
 Stoichiometry    C9H13N3O2
 Framework group  C1[X(C9H13N3O2)]
 Deg. of freedom    75
 Full point group                 C1      NOp   1
 Rotational constants (GHZ):           1.6557454           0.4002878           0.3562872
 Standard basis: 6-31G(d) (6D, 7F)
   236 basis functions,   444 primitive gaussians,   236 cartesian basis functions
    52 alpha electrons       52 beta electrons
       nuclear repulsion energy       917.2421629447 Hartrees.
 NAtoms=   27 NActive=   27 NUniq=   27 SFac= 1.00D+00 NAtFMM=   60 NAOKFM=F Big=F
 Integral buffers will be    131072 words long.
 Raffenetti 1 integral format.
 Two-electron integral symmetry is turned off.
 One-electron integrals computed using PRISM.
 NBasis=   236 RedAO= T EigKep=  1.27D-03  NBF=   236
 NBsUse=   236 1.00D-06 EigRej= -1.00D+00 NBFU=   236
 ExpMin= 1.61D-01 ExpMax= 5.48D+03 ExpMxC= 8.25D+02 IAcc=3 IRadAn=         5 AccDes= 0.00D+00
 Harris functional with IExCor=  205 and IRadAn=       5 diagonalized for initial guess.
 HarFok:  IExCor=  205 AccDes= 0.00D+00 IRadAn=         5 IDoV= 1 UseB2=F ITyADJ=14
 ICtDFT=  3500011 ScaDFX=  1.000000  1.000000  1.000000  1.000000
 FoFCou: FMM=F IPFlag=           0 FMFlag=      100000 FMFlg1=           0
         NFxFlg=           0 DoJE=T BraDBF=F KetDBF=T FulRan=T
         wScrn=  0.000000 ICntrl=       500 IOpCl=  0 I1Cent=   200000004 NGrid=           0
         NMat0=    1 NMatS0=      1 NMatT0=    0 NMatD0=    1 NMtDS0=    0 NMtDT0=    0
 Symmetry not used in FoFCou.
 Keep R1 ints in memory in canonical form, NReq=397720213.
 Requested convergence on RMS density matrix=1.00D-08 within 128 cycles.
 Requested convergence on MAX density matrix=1.00D-06.
 Requested convergence on             energy=1.00D-06.
 No special actions if energy rises.
 SCF Done:  E(RHF) =  -661.281713191     A.U. after   16 cycles
            NFock= 16  Conv=0.68D-08     -V/T= 2.0037
 ExpMin= 1.61D-01 ExpMax= 5.48D+03 ExpMxC= 8.25D+02 IAcc=3 IRadAn=         5 AccDes= 0.00D+00
 HarFok:  IExCor=  205 AccDes= 0.00D+00 IRadAn=         5 IDoV=-2 UseB2=F ITyADJ=14
 ICtDFT= 12500011 ScaDFX=  1.000000  1.000000  1.000000  1.000000
 Range of M.O.s used for correlation:    15   236
 NBasis=   236 NAE=    52 NBE=    52 NFC=    14 NFV=     0
 NROrb=    222 NOA=    38 NOB=    38 NVA=   184 NVB=   184
 Fully direct method using O(ONN) memory.
 JobTyp=1 Pass  1:  I=  15 to  52 NPSUse=  4 ParTrn=T ParDer=T DoDerP=T.
 Spin components of T(2) and E(2):
     alpha-alpha T2 =       0.9205931370D-01 E2=     -0.2718742790D+00
     alpha-beta  T2 =       0.4994673110D+00 E2=     -0.1493572535D+01
     beta-beta   T2 =       0.9205931370D-01 E2=     -0.2718742790D+00
 ANorm=    0.1297530708D+01
 E2 =    -0.2037321094D+01 EUMP2 =    -0.66331903428454D+03
          IDoAtm=111111111111111111111111111
          Differentiating once with respect to electric field.
                with respect to dipole field.
          Differentiating once with respect to nuclear coordinates.
 Keep R1 ints in memory in canonical form, NReq=397723379.
          There are     1 degrees of freedom in the 1st order CPHF.  IDoFFX=0 NUNeed=     1.
 LinEq1:  Iter=  0 NonCon=     1 RMS=4.64D-03 Max=1.17D-01 NDo=     1
 AX will form     1 AO Fock derivatives at one time.
 LinEq1:  Iter=  1 NonCon=     1 RMS=1.58D-03 Max=3.29D-02 NDo=     1
 LinEq1:  Iter=  2 NonCon=     1 RMS=6.46D-04 Max=1.90D-02 NDo=     1
 LinEq1:  Iter=  3 NonCon=     1 RMS=2.95D-04 Max=9.40D-03 NDo=     1
 LinEq1:  Iter=  4 NonCon=     1 RMS=9.16D-05 Max=2.27D-03 NDo=     1
 LinEq1:  Iter=  5 NonCon=     1 RMS=3.78D-05 Max=1.83D-03 NDo=     1
 LinEq1:  Iter=  6 NonCon=     1 RMS=1.55D-05 Max=5.70D-04 NDo=     1
 LinEq1:  Iter=  7 NonCon=     1 RMS=5.91D-06 Max=8.81D-05 NDo=     1
 LinEq1:  Iter=  8 NonCon=     1 RMS=2.34D-06 Max=5.35D-05 NDo=     1
 LinEq1:  Iter=  9 NonCon=     1 RMS=8.57D-07 Max=2.43D-05 NDo=     1
 LinEq1:  Iter= 10 NonCon=     1 RMS=4.17D-07 Max=1.44D-05 NDo=     1
 LinEq1:  Iter= 11 NonCon=     1 RMS=1.52D-07 Max=5.67D-06 NDo=     1
 LinEq1:  Iter= 12 NonCon=     1 RMS=5.34D-08 Max=8.23D-07 NDo=     1
 LinEq1:  Iter= 13 NonCon=     1 RMS=1.65D-08 Max=2.95D-07 NDo=     1
 LinEq1:  Iter= 14 NonCon=     1 RMS=4.90D-09 Max=7.87D-08 NDo=     1
 LinEq1:  Iter= 15 NonCon=     1 RMS=1.72D-09 Max=3.89D-08 NDo=     1
 LinEq1:  Iter= 16 NonCon=     1 RMS=6.67D-10 Max=1.15D-08 NDo=     1
 LinEq1:  Iter= 17 NonCon=     1 RMS=2.26D-10 Max=3.83D-09 NDo=     1
 LinEq1:  Iter= 18 NonCon=     1 RMS=8.11D-11 Max=1.14D-09 NDo=     1
 LinEq1:  Iter= 19 NonCon=     0 RMS=2.77D-11 Max=4.72D-10 NDo=     1
 Linear equations converged to 1.000D-10 1.000D-09 after    19 iterations.
 End of Minotr F.D. properties file   721 does not exist.
 End of Minotr F.D. properties file   722 does not exist.
 End of Minotr F.D. properties file   788 does not exist.

 **********************************************************************

            Population analysis using the SCF Density.

 **********************************************************************

 Alpha  occ. eigenvalues --  -20.59762 -20.59362 -15.85255 -15.63767 -15.56397
 Alpha  occ. eigenvalues --  -11.35988 -11.30428 -11.30129 -11.30049 -11.27580
 Alpha  occ. eigenvalues --  -11.24663 -11.23897 -11.23325 -11.22820  -1.58439
 Alpha  occ. eigenvalues --   -1.37929  -1.28860  -1.22542  -1.13302  -1.08381
 Alpha  occ. eigenvalues --   -1.01765  -1.00721  -0.93683  -0.88926  -0.84923
 Alpha  occ. eigenvalues --   -0.81517  -0.77962  -0.77075  -0.74367  -0.71199
 Alpha  occ. eigenvalues --   -0.70259  -0.69760  -0.67358  -0.64229  -0.63256
 Alpha  occ. eigenvalues --   -0.61864  -0.59956  -0.57396  -0.56551  -0.54800
 Alpha  occ. eigenvalues --   -0.53986  -0.50595  -0.49765  -0.48528  -0.47889
 Alpha  occ. eigenvalues --   -0.47709  -0.46243  -0.45539  -0.44002  -0.42102
 Alpha  occ. eigenvalues --   -0.39374  -0.33659
 Alpha virt. eigenvalues --    0.07495   0.11736   0.17594   0.21442   0.23558
 Alpha virt. eigenvalues --    0.24619   0.26381   0.28070   0.28548   0.28882
 Alpha virt. eigenvalues --    0.29766   0.31280   0.31785   0.32379   0.33286
 Alpha virt. eigenvalues --    0.33871   0.34433   0.35602   0.37577   0.38635
 Alpha virt. eigenvalues --    0.40442   0.41371   0.43958   0.45168   0.45444
 Alpha virt. eigenvalues --    0.46701   0.49793   0.53208   0.57539   0.59040
 Alpha virt. eigenvalues --    0.63357   0.68620   0.69378   0.72386   0.74082
 Alpha virt. eigenvalues --    0.74855   0.75614   0.75836   0.78219   0.78740
 Alpha virt. eigenvalues --    0.80738   0.83261   0.84660   0.85306   0.87829
 Alpha virt. eigenvalues --    0.88731   0.90481   0.90972   0.92081   0.93867
 Alpha virt. eigenvalues --    0.94887   0.97274   0.99280   1.00716   1.01973
 Alpha virt. eigenvalues --    1.02839   1.05004   1.06464   1.07070   1.08730
 Alpha virt. eigenvalues --    1.09729   1.10550   1.11719   1.12358   1.13201
 Alpha virt. eigenvalues --    1.13828   1.14112   1.15639   1.15982   1.16979
 Alpha virt. eigenvalues --    1.18016   1.20339   1.21553   1.22308   1.23092
 Alpha virt. eigenvalues --    1.23676   1.24591   1.25294   1.26948   1.27893
 Alpha virt. eigenvalues --    1.29147   1.31742   1.33687   1.36606   1.39210
 Alpha virt. eigenvalues --    1.42227   1.47899   1.48376   1.51057   1.53243
 Alpha virt. eigenvalues --    1.56072   1.57926   1.59450   1.61751   1.65784
 Alpha virt. eigenvalues --    1.67902   1.70165   1.71633   1.73282   1.76523
 Alpha virt. eigenvalues --    1.78434   1.81413   1.84480   1.88639   1.91226
 Alpha virt. eigenvalues --    1.93809   1.96006   1.97578   1.99272   2.01005
 Alpha virt. eigenvalues --    2.02911   2.03515   2.06135   2.09271   2.11820
 Alpha virt. eigenvalues --    2.12106   2.13412   2.17388   2.18511   2.19841
 Alpha virt. eigenvalues --    2.20202   2.21992   2.23734   2.24998   2.25967
 Alpha virt. eigenvalues --    2.29334   2.32017   2.32854   2.35340   2.36451
 Alpha virt. eigenvalues --    2.39653   2.40362   2.42132   2.43999   2.46432
 Alpha virt. eigenvalues --    2.48788   2.50245   2.50571   2.56373   2.57053
 Alpha virt. eigenvalues --    2.60564   2.64038   2.65343   2.68334   2.68714
 Alpha virt. eigenvalues --    2.69293   2.69866   2.74483   2.76067   2.81199
 Alpha virt. eigenvalues --    2.84681   2.86668   2.90052   2.91039   2.94634
 Alpha virt. eigenvalues --    2.97482   2.98192   3.02189   3.05152   3.05990
 Alpha virt. eigenvalues --    3.07514   3.14090   3.18347   3.22891   3.27089
 Alpha virt. eigenvalues --    3.31704   3.33558   3.37850   3.42922   3.60675
 Alpha virt. eigenvalues --    4.10444   4.23416   4.31952   4.36829   4.43793
 Alpha virt. eigenvalues --    4.52311   4.59532   4.60353   4.70726   4.78107
 Alpha virt. eigenvalues --    4.96937   4.99305   5.03561   5.09640
          Condensed to atoms (all electrons):
               1          2          3          4          5          6
     1  O    8.301082   0.312127  -0.090103  -0.078571   0.003570  -0.000011
     2  N    0.312127   5.678869   0.310550   0.266131  -0.047885   0.000740
     3  O   -0.090103   0.310550   8.331348  -0.088127   0.007984   0.000476
     4  C   -0.078571   0.266131  -0.088127   5.252686   0.565780  -0.049254
     5  C    0.003570  -0.047885   0.007984   0.565780   4.678533   0.311557
     6  N   -0.000011   0.000740   0.000476  -0.049254   0.311557   7.166858
     7  C    0.000002  -0.000091   0.000002   0.005098  -0.028673   0.203121
     8  H   -0.000000   0.000001  -0.000000  -0.000250   0.002822  -0.046140
     9  C   -0.000000  -0.000003   0.000000   0.000608   0.000839  -0.058042
    10  C   -0.000000   0.000000   0.000000  -0.000026  -0.000039   0.003374
    11  C   -0.000000  -0.000000  -0.000000  -0.000011   0.000013  -0.000158
    12  C   -0.000000   0.000001  -0.000000  -0.000205  -0.000150   0.003773
    13  C   -0.000013  -0.000003  -0.000002  -0.008481   0.000100  -0.050450
    14  H   -0.000001  -0.000047   0.000000   0.002330   0.003621  -0.005435
    15  N    0.000324   0.001570  -0.000011  -0.062114  -0.003870   0.001861
    16  C    0.002597  -0.024395   0.002035   0.314538  -0.042828  -0.000046
    17  H    0.000144  -0.004494   0.012798  -0.024479   0.375042  -0.032565
    18  H    0.000000  -0.000034   0.000008   0.001454  -0.025938   0.330048
    19  H    0.000000  -0.000001   0.000000  -0.000976   0.001101   0.000045
    20  H    0.000000  -0.000000   0.000000  -0.000030   0.000002  -0.000885
    21  H   -0.000000  -0.000000  -0.000000   0.000001   0.000001  -0.000062
    22  H   -0.000000   0.000000  -0.000000  -0.000000  -0.000002  -0.000092
    23  H    0.000000  -0.000000   0.000000   0.000027  -0.000001  -0.000024
    24  H    0.000000   0.000000   0.000000   0.000000  -0.000000   0.000005
    25  H    0.000000  -0.000000   0.000000   0.000021  -0.000001  -0.000075
    26  H    0.000000  -0.000000   0.000000   0.000004  -0.000001  -0.000069
    27  H    0.006135  -0.000248   0.000028  -0.067845   0.002014   0.000003
               7          8          9         10         11         12
     1  O    0.000002  -0.000000  -0.000000  -0.000000  -0.000000  -0.000000
     2  N   -0.000091   0.000001  -0.000003   0.000000  -0.000000   0.000001
     3  O    0.000002  -0.000000   0.000000   0.000000  -0.000000  -0.000000
     4  C    0.005098  -0.000250   0.000608  -0.000026  -0.000011  -0.000205
     5  C   -0.028673   0.002822   0.000839  -0.000039   0.000013  -0.000150
     6  N    0.203121  -0.046140  -0.058042   0.003374  -0.000158   0.003773
     7  C    5.027946   0.413764   0.343190  -0.049593  -0.007976  -0.065509
     8  H    0.413764   0.540856  -0.057510   0.001105  -0.000229  -0.002937
     9  C    0.343190  -0.057510   5.177251   0.318793  -0.053324  -0.005687
    10  C   -0.049593   0.001105   0.318793   5.126693   0.332701  -0.060622
    11  C   -0.007976  -0.000229  -0.053324   0.332701   5.125463   0.330364
    12  C   -0.065509  -0.002937  -0.005687  -0.060622   0.330364   5.139596
    13  C    0.323222  -0.038152  -0.054561  -0.001068  -0.047806   0.368535
    14  H   -0.040746  -0.000877   0.003823  -0.000386   0.003984  -0.040944
    15  N   -0.059654   0.003924  -0.012816   0.001372  -0.008151  -0.075063
    16  C   -0.001373  -0.000054  -0.000542  -0.000057   0.000003   0.002206
    17  H    0.001398  -0.000032  -0.000063   0.000001   0.000000   0.000001
    18  H   -0.029890  -0.003585   0.000884  -0.000115   0.000011  -0.000152
    19  H   -0.034765   0.003912   0.387637  -0.032884  -0.002140   0.000582
    20  H   -0.041990  -0.001809   0.396798  -0.037033   0.004126  -0.000383
    21  H    0.004068  -0.000077  -0.035828   0.400011  -0.035769   0.004232
    22  H   -0.004343   0.003474  -0.045742   0.395974  -0.045678  -0.001167
    23  H    0.000503   0.000032  -0.002010  -0.039974   0.396613  -0.036219
    24  H   -0.000143  -0.000102   0.004413  -0.038570   0.400312  -0.038032
    25  H    0.005098  -0.000014  -0.000379   0.004104  -0.033755   0.394950
    26  H   -0.004448   0.001490   0.001088  -0.002413  -0.042317   0.394609
    27  H   -0.000392   0.000008  -0.000053   0.000004   0.000006  -0.000020
              13         14         15         16         17         18
     1  O   -0.000013  -0.000001   0.000324   0.002597   0.000144   0.000000
     2  N   -0.000003  -0.000047   0.001570  -0.024395  -0.004494  -0.000034
     3  O   -0.000002   0.000000  -0.000011   0.002035   0.012798   0.000008
     4  C   -0.008481   0.002330  -0.062114   0.314538  -0.024479   0.001454
     5  C    0.000100   0.003621  -0.003870  -0.042828   0.375042  -0.025938
     6  N   -0.050450  -0.005435   0.001861  -0.000046  -0.032565   0.330048
     7  C    0.323222  -0.040746  -0.059654  -0.001373   0.001398  -0.029890
     8  H   -0.038152  -0.000877   0.003924  -0.000054  -0.000032  -0.003585
     9  C   -0.054561   0.003823  -0.012816  -0.000542  -0.000063   0.000884
    10  C   -0.001068  -0.000386   0.001372  -0.000057   0.000001  -0.000115
    11  C   -0.047806   0.003984  -0.008151   0.000003   0.000000   0.000011
    12  C    0.368535  -0.040944  -0.075063   0.002206   0.000001  -0.000152
    13  C    5.020399   0.405464   0.244243  -0.067698  -0.000058   0.004031
    14  H    0.405464   0.516877  -0.034908  -0.005429   0.000032  -0.000001
    15  N    0.244243  -0.034908   6.950967   0.587322  -0.000046  -0.000122
    16  C   -0.067698  -0.005429   0.587322   4.697114   0.001572  -0.000192
    17  H   -0.000058   0.000032  -0.000046   0.001572   0.381795  -0.002370
    18  H    0.004031  -0.000001  -0.000122  -0.000192  -0.002370   0.327482
    19  H   -0.006038   0.000064   0.006705   0.002314   0.000011  -0.000127
    20  H    0.003966  -0.000051   0.000097  -0.000037  -0.000006   0.002331
    21  H   -0.000404   0.000009  -0.000036   0.000003  -0.000000   0.000000
    22  H    0.000281  -0.000042   0.000007  -0.000001   0.000000   0.000002
    23  H   -0.006141   0.000008   0.006983   0.000093   0.000000   0.000000
    24  H    0.004193  -0.000060   0.000041   0.000005   0.000000  -0.000000
    25  H   -0.034299  -0.002721   0.001147  -0.000066  -0.000000   0.000003
    26  H   -0.045120  -0.000822   0.004218  -0.000035   0.000000  -0.000001
    27  H    0.004772  -0.000158  -0.040489   0.403799  -0.000061   0.000001
              19         20         21         22         23         24
     1  O    0.000000   0.000000  -0.000000  -0.000000   0.000000   0.000000
     2  N   -0.000001  -0.000000  -0.000000   0.000000  -0.000000   0.000000
     3  O    0.000000   0.000000  -0.000000  -0.000000   0.000000   0.000000
     4  C   -0.000976  -0.000030   0.000001  -0.000000   0.000027   0.000000
     5  C    0.001101   0.000002   0.000001  -0.000002  -0.000001  -0.000000
     6  N    0.000045  -0.000885  -0.000062  -0.000092  -0.000024   0.000005
     7  C   -0.034765  -0.041990   0.004068  -0.004343   0.000503  -0.000143
     8  H    0.003912  -0.001809  -0.000077   0.003474   0.000032  -0.000102
     9  C    0.387637   0.396798  -0.035828  -0.045742  -0.002010   0.004413
    10  C   -0.032884  -0.037033   0.400011   0.395974  -0.039974  -0.038570
    11  C   -0.002140   0.004126  -0.035769  -0.045678   0.396613   0.400312
    12  C    0.000582  -0.000383   0.004232  -0.001167  -0.036219  -0.038032
    13  C   -0.006038   0.003966  -0.000404   0.000281  -0.006141   0.004193
    14  H    0.000064  -0.000051   0.000009  -0.000042   0.000008  -0.000060
    15  N    0.006705   0.000097  -0.000036   0.000007   0.006983   0.000041
    16  C    0.002314  -0.000037   0.000003  -0.000001   0.000093   0.000005
    17  H    0.000011  -0.000006  -0.000000   0.000000   0.000000   0.000000
    18  H   -0.000127   0.002331   0.000000   0.000002   0.000000  -0.000000
    19  H    0.505066  -0.023948  -0.002570   0.003751   0.001626  -0.000072
    20  H   -0.023948   0.548829  -0.002646  -0.002974  -0.000049  -0.000090
    21  H   -0.002570  -0.002646   0.525743  -0.024656  -0.002798  -0.002076
    22  H    0.003751  -0.002974  -0.024656   0.569575   0.004053  -0.003614
    23  H    0.001626  -0.000049  -0.002798   0.004053   0.508316  -0.025017
    24  H   -0.000072  -0.000090  -0.002076  -0.003614  -0.025017   0.541610
    25  H   -0.000027   0.000011  -0.000086  -0.000083  -0.002040  -0.002417
    26  H    0.000022  -0.000035  -0.000072   0.002455   0.003794  -0.002734
    27  H    0.000072   0.000000  -0.000000   0.000000  -0.000024  -0.000000
              25         26         27
     1  O    0.000000   0.000000   0.006135
     2  N   -0.000000  -0.000000  -0.000248
     3  O    0.000000   0.000000   0.000028
     4  C    0.000021   0.000004  -0.067845
     5  C   -0.000001  -0.000001   0.002014
     6  N   -0.000075  -0.000069   0.000003
     7  C    0.005098  -0.004448  -0.000392
     8  H   -0.000014   0.001490   0.000008
     9  C   -0.000379   0.001088  -0.000053
    10  C    0.004104  -0.002413   0.000004
    11  C   -0.033755  -0.042317   0.000006
    12  C    0.394950   0.394609  -0.000020
    13  C   -0.034299  -0.045120   0.004772
    14  H   -0.002721  -0.000822  -0.000158
    15  N    0.001147   0.004218  -0.040489
    16  C   -0.000066  -0.000035   0.403799
    17  H   -0.000000   0.000000  -0.000061
    18  H    0.000003  -0.000001   0.000001
    19  H   -0.000027   0.000022   0.000072
    20  H    0.000011  -0.000035   0.000000
    21  H   -0.000086  -0.000072  -0.000000
    22  H   -0.000083   0.002455   0.000000
    23  H   -0.002040   0.003794  -0.000024
    24  H   -0.002417  -0.002734  -0.000000
    25  H    0.510121  -0.023127  -0.000013
    26  H   -0.023127   0.562605   0.000001
    27  H   -0.000013   0.000001   0.447578
 Mulliken charges:
               1
     1  O   -0.457283
     2  N    0.507213
     3  O   -0.486987
     4  C   -0.028309
     5  C    0.196406
     6  N   -0.778554
     7  C    0.042174
     8  H    0.180378
     9  C   -0.308765
    10  C   -0.321355
    11  C   -0.316284
    12  C   -0.311759
    13  C   -0.018913
    14  H    0.196415
    15  N   -0.513500
    16  C    0.129153
    17  H    0.291380
    18  H    0.396271
    19  H    0.190642
    20  H    0.155808
    21  H    0.173013
    22  H    0.148822
    23  H    0.192248
    24  H    0.162350
    25  H    0.183648
    26  H    0.150908
    27  H    0.244880
 Sum of Mulliken charges =  -0.00000
 Mulliken charges with hydrogens summed into heavy atoms:
               1
     1  O   -0.457283
     2  N    0.507213
     3  O   -0.486987
     4  C   -0.028309
     5  C    0.487786
     6  N   -0.382282
     7  C    0.222552
     9  C    0.037684
    10  C    0.000480
    11  C    0.038314
    12  C    0.022797
    13  C    0.177503
    15  N   -0.513500
    16  C    0.374033
 Electronic spatial extent (au):  <R**2>=           3124.0987
 Charge=             -0.0000 electrons
 Dipole moment (field-independent basis, Debye):
    X=              5.4277    Y=              4.5390    Z=              0.9196  Tot=              7.1350
 Quadrupole moment (field-independent basis, Debye-Ang):
   XX=           -105.5918   YY=            -79.8046   ZZ=            -82.5167
   XY=             -1.2200   XZ=             -0.5919   YZ=              0.6294
 Traceless Quadrupole moment (field-independent basis, Debye-Ang):
   XX=            -16.2874   YY=              9.4998   ZZ=              6.7876
   XY=             -1.2200   XZ=             -0.5919   YZ=              0.6294
 Octapole moment (field-independent basis, Debye-Ang**2):
  XXX=            101.2903  YYY=             35.4595  ZZZ=             -2.3936  XYY=             -2.2481
  XXY=              9.7173  XXZ=              8.4844  XZZ=             -7.0750  YZZ=             -2.5818
  YYZ=              4.0269  XYZ=             -0.3532
 Hexadecapole moment (field-independent basis, Debye-Ang**3):
 XXXX=          -3548.6502 YYYY=           -616.6408 ZZZZ=           -307.9522 XXXY=            -22.1260
 XXXZ=            -44.0714 YYYX=             -5.7023 YYYZ=             18.3566 ZZZX=            -14.6696
 ZZZY=              6.9960 XXYY=           -654.4242 XXZZ=           -545.7646 YYZZ=           -165.8443
 XXYZ=              3.0456 YYXZ=             -2.3310 ZZXY=              5.6482
 N-N= 9.172421629447D+02 E-N=-3.380511006394D+03  KE= 6.588599013144D+02
 Calling FoFJK, ICntrl=  10002127 FMM=F ISym2X=0 I1Cent= 0 IOpClX= 0 NMat=1 NMatS=1 NMatT=0.
 -------------------------------------------------------------------
 Center     Atomic                   Forces (Hartrees/Bohr)
 Number     Number              X              Y              Z
 -------------------------------------------------------------------
      1        8           0.001789111   -0.019011337   -0.001373822
      2        7           0.040071269    0.011931011    0.000143024
      3        8          -0.004647274    0.016461640    0.002349028
      4        6          -0.003433199    0.005234730    0.008116336
      5        6           0.003247126   -0.016387870   -0.000220414
      6        7           0.016226293   -0.003049354   -0.010216064
      7        6          -0.007124370    0.002516388    0.002177108
      8        1          -0.011527933   -0.001444445   -0.007157166
      9        6          -0.003365035    0.001734461   -0.001497648
     10        6           0.002599362   -0.001048062    0.000777680
     11        6          -0.000062060   -0.004465508   -0.002057112
     12        6          -0.000137987   -0.009653019   -0.003490567
     13        6           0.010078957   -0.001370512    0.002467788
     14        1           0.001186123    0.004021477   -0.010340421
     15        7           0.001042528   -0.004362619    0.009919438
     16        6          -0.020986936    0.012334816   -0.003691042
     17        1           0.007458938   -0.007548933   -0.001512537
     18        1          -0.018335033   -0.002109123    0.001696466
     19        1           0.003153437    0.005615321    0.007766506
     20        1          -0.003029910   -0.007529589    0.002719892
     21        1          -0.003890392    0.002411131    0.009782677
     22        1          -0.004312986   -0.003982355   -0.007181751
     23        1           0.004083767    0.006120981    0.009231250
     24        1          -0.009449003    0.002534611   -0.001790868
     25        1          -0.000854624    0.010575636   -0.002440795
     26        1          -0.004829374   -0.004727037   -0.004151952
     27        1           0.005049205    0.005197557   -0.000025035
 -------------------------------------------------------------------
 Cartesian Forces:  Max     0.040071269 RMS     0.008493778

 GradGradGradGradGradGradGradGradGradGradGradGradGradGradGradGradGradGrad
 Berny optimization.
 FormGI is forming the generalized inverse of G from B-inverse, IUseBI=4.
 Internal  Forces:  Max     0.038186302 RMS     0.006993304
 Search for a local minimum.
 Step number   1 out of a maximum of   20
 All quantities printed in internal units (Hartrees-Bohrs-Radians)
 Mixed Optimization -- RFO/linear search
 Second derivative matrix not updated -- first step.
 ITU=  0
     Eigenvalues ---    0.00230   0.00834   0.01067   0.01170   0.01283
     Eigenvalues ---    0.01491   0.01552   0.01915   0.02035   0.02101
     Eigenvalues ---    0.02675   0.03376   0.04405   0.04681   0.04816
     Eigenvalues ---    0.04991   0.05144   0.05307   0.05519   0.06235
     Eigenvalues ---    0.06964   0.07649   0.07685   0.07777   0.07994
     Eigenvalues ---    0.07996   0.08050   0.10437   0.11499   0.11922
     Eigenvalues ---    0.12610   0.14813   0.15157   0.15971   0.15990
     Eigenvalues ---    0.19445   0.22227   0.23307   0.24977   0.25000
     Eigenvalues ---    0.25000   0.25267   0.26154   0.26598   0.27966
     Eigenvalues ---    0.28058   0.28469   0.29396   0.31542   0.31974
     Eigenvalues ---    0.32071   0.32249   0.32292   0.32385   0.32391
     Eigenvalues ---    0.32396   0.32529   0.32541   0.32602   0.33382
     Eigenvalues ---    0.33404   0.33609   0.35426   0.43889   0.44299
     Eigenvalues ---    0.49742   0.67438   0.90375   0.911501000.00000
     Eigenvalues --- 1000.000001000.000001000.000001000.000001000.00000
     Eigenvalues --- 1000.000001000.000001000.000001000.000001000.00000
     Eigenvalues --- 1000.000001000.000001000.000001000.000001000.00000
     Eigenvalues --- 1000.000001000.000001000.000001000.000001000.00000
     Eigenvalues --- 1000.000001000.000001000.000001000.000001000.00000
     Eigenvalues --- 1000.000001000.000001000.000001000.000001000.00000
     Eigenvalues --- 1000.000001000.000001000.000001000.000001000.00000
     Eigenvalues --- 1000.000001000.000001000.000001000.000001000.00000
     Eigenvalues --- 1000.000001000.000001000.000001000.000001000.00000
     Eigenvalues --- 1000.000001000.000001000.000001000.000001000.00000
     Eigenvalues --- 1000.000001000.000001000.000001000.000001000.00000
     Eigenvalues --- 1000.000001000.000001000.000001000.000001000.00000
     Eigenvalues --- 1000.000001000.000001000.000001000.000001000.00000
     Eigenvalues --- 1000.000001000.000001000.000001000.000001000.00000
     Eigenvalues --- 1000.000001000.000001000.000001000.000001000.00000
     Eigenvalues --- 1000.000001000.000001000.000001000.000001000.00000
     Eigenvalues --- 1000.000001000.000001000.000001000.000001000.00000
     Eigenvalues --- 1000.000001000.000001000.000001000.000001000.00000
     Eigenvalues --- 1000.00000
 RFO step:  Lambda=-2.43929382D-02 EMin= 2.30471156D-03
 Linear search not attempted -- first point.
 Iteration  1 RMS(Cart)=  0.05953483 RMS(Int)=  0.00119851
 Iteration  2 RMS(Cart)=  0.00143542 RMS(Int)=  0.00027397
 Iteration  3 RMS(Cart)=  0.00000089 RMS(Int)=  0.00027397
 Iteration  1 RMS(Cart)=  0.00003577 RMS(Int)=  0.00003222
 Iteration  2 RMS(Cart)=  0.00002137 RMS(Int)=  0.00003563
 Iteration  3 RMS(Cart)=  0.00001462 RMS(Int)=  0.00004003
 Iteration  4 RMS(Cart)=  0.00001072 RMS(Int)=  0.00004334
 Iteration  5 RMS(Cart)=  0.00000809 RMS(Int)=  0.00004572
 Iteration  6 RMS(Cart)=  0.00000619 RMS(Int)=  0.00004745
 Iteration  7 RMS(Cart)=  0.00000480 RMS(Int)=  0.00004875
 Iteration  8 RMS(Cart)=  0.00000377 RMS(Int)=  0.00004974
 Iteration  9 RMS(Cart)=  0.00000300 RMS(Int)=  0.00005050
 Iteration 10 RMS(Cart)=  0.00000241 RMS(Int)=  0.00005111
 Iteration 11 RMS(Cart)=  0.00000196 RMS(Int)=  0.00005159
 Iteration 12 RMS(Cart)=  0.00000161 RMS(Int)=  0.00005198
 Iteration 13 RMS(Cart)=  0.00000134 RMS(Int)=  0.00005230
 Iteration 14 RMS(Cart)=  0.00000112 RMS(Int)=  0.00005256
 Iteration 15 RMS(Cart)=  0.00000094 RMS(Int)=  0.00005278
 Variable       Old X    -DE/DX   Delta X   Delta X   Delta X     New X
                                 (Linear)    (Quad)   (Total)
    R1        2.32407   0.01750   0.00000   0.01870   0.01870   2.34277
    R2        2.32761   0.01591   0.00000   0.01714   0.01714   2.34475
    R3        2.89184  -0.03819   0.00000  -0.11995  -0.11995   2.77189
    R4        2.64485  -0.03320   0.00000  -0.07178  -0.07151   2.57335
    R5        2.81179  -0.02389   0.00000  -0.07008  -0.06981   2.74198
    R6        2.58776  -0.02533   0.00000  -0.04778  -0.04768   2.54008
    R7        2.08349  -0.01069   0.00000  -0.02983  -0.02983   2.05365
    R8        2.82018  -0.01861   0.00000  -0.04933  -0.04950   2.77068
    R9        1.93288  -0.00633   0.00000  -0.01365  -0.01365   1.91923
   R10        2.11691  -0.01240   0.00000  -0.03648  -0.03648   2.08042
   R11        2.92923  -0.01324   0.00000  -0.04394  -0.04393   2.88530
   R12        2.90077  -0.00227   0.00000  -0.00185  -0.00187   2.89890
   R13        2.91204  -0.00424   0.00000  -0.01408  -0.01413   2.89792
   R14        2.09865  -0.00981   0.00000  -0.02804  -0.02804   2.07061
   R15        2.09887  -0.00816   0.00000  -0.02334  -0.02334   2.07553
   R16        2.90441  -0.00152   0.00000  -0.00701  -0.00707   2.89735
   R17        2.10134  -0.01054   0.00000  -0.03027  -0.03027   2.07108
   R18        2.10312  -0.00898   0.00000  -0.02585  -0.02585   2.07727
   R19        2.91699  -0.00910   0.00000  -0.02979  -0.02980   2.88719
   R20        2.10391  -0.01161   0.00000  -0.03346  -0.03346   2.07045
   R21        2.10125  -0.00992   0.00000  -0.02847  -0.02847   2.07278
   R22        2.93566  -0.01083   0.00000  -0.03612  -0.03608   2.89958
   R23        2.10144  -0.01075   0.00000  -0.03086  -0.03086   2.07058
   R24        2.09756  -0.00775   0.00000  -0.02211  -0.02211   2.07545
   R25        2.10713  -0.00988   0.00000  -0.02863  -0.02863   2.07850
   R26        2.76785  -0.00588   0.00000  -0.01208  -0.01244   2.75541
   R27        2.44146  -0.00355   0.00000  -0.00542  -0.00543   2.43604
   R28        2.07995  -0.00614   0.00000  -0.01704  -0.01704   2.06292
    A1        2.15602   0.01114   0.00000   0.04066   0.04059   2.19661
    A2        2.05490  -0.00687   0.00000  -0.02498  -0.02504   2.02987
    A3        2.07220  -0.00426   0.00000  -0.01547  -0.01553   2.05667
    A4        2.02605  -0.00898   0.00000  -0.02846  -0.02896   1.99710
    A5        2.03110  -0.00258   0.00000  -0.00515  -0.00569   2.02542
    A6        2.22505   0.01149   0.00000   0.03180   0.03198   2.25703
    A7        2.20499   0.00677   0.00000   0.02203   0.02249   2.22748
    A8        2.06257  -0.00368   0.00000  -0.01232  -0.01258   2.04999
    A9        2.01341  -0.00302   0.00000  -0.00880  -0.00909   2.00432
   A10        2.26141  -0.00743   0.00000  -0.02159  -0.02174   2.23967
   A11        2.10002  -0.01220   0.00000  -0.07321  -0.07375   2.02627
   A12        1.86044   0.01987   0.00000   0.10591   0.10620   1.96664
   A13        1.84515  -0.00277   0.00000  -0.02011  -0.01984   1.82531
   A14        2.00873  -0.00083   0.00000  -0.01584  -0.01595   1.99279
   A15        1.95473   0.00220   0.00000   0.00121   0.00057   1.95530
   A16        1.85764   0.00284   0.00000   0.02615   0.02604   1.88368
   A17        1.85573   0.00119   0.00000   0.02622   0.02593   1.88166
   A18        1.93045  -0.00240   0.00000  -0.01247  -0.01213   1.91832
   A19        1.90779   0.00045   0.00000  -0.00415  -0.00427   1.90352
   A20        1.92490  -0.00097   0.00000  -0.01635  -0.01633   1.90856
   A21        1.92159  -0.00175   0.00000  -0.00552  -0.00556   1.91603
   A22        1.92005  -0.00051   0.00000   0.00431   0.00423   1.92427
   A23        1.90557   0.00307   0.00000   0.02618   0.02619   1.93176
   A24        1.88377  -0.00026   0.00000  -0.00399  -0.00424   1.87953
   A25        1.94060  -0.00066   0.00000   0.00618   0.00607   1.94667
   A26        1.91882  -0.00075   0.00000  -0.00765  -0.00765   1.91117
   A27        1.90471   0.00021   0.00000  -0.00261  -0.00269   1.90202
   A28        1.91630   0.00056   0.00000   0.00623   0.00627   1.92257
   A29        1.89851   0.00185   0.00000   0.01184   0.01187   1.91038
   A30        1.88384  -0.00119   0.00000  -0.01447  -0.01455   1.86929
   A31        1.94456   0.00102   0.00000   0.00694   0.00706   1.95162
   A32        1.90298   0.00041   0.00000   0.00570   0.00568   1.90866
   A33        1.91641   0.00044   0.00000   0.00503   0.00497   1.92138
   A34        1.90891  -0.00152   0.00000  -0.01683  -0.01688   1.89203
   A35        1.91459  -0.00041   0.00000   0.00096   0.00086   1.91546
   A36        1.87500   0.00003   0.00000  -0.00221  -0.00225   1.87276
   A37        1.94148  -0.00338   0.00000  -0.02066  -0.02067   1.92081
   A38        1.90639   0.00249   0.00000   0.01555   0.01540   1.92178
   A39        1.91332   0.00155   0.00000   0.01437   0.01433   1.92765
   A40        1.90658   0.00064   0.00000  -0.00173  -0.00160   1.90498
   A41        1.91361  -0.00029   0.00000  -0.00364  -0.00355   1.91006
   A42        1.88143  -0.00091   0.00000  -0.00333  -0.00351   1.87792
   A43        1.84434   0.00548   0.00000   0.02530   0.02529   1.86962
   A44        1.93571  -0.00456   0.00000  -0.02669  -0.02718   1.90853
   A45        1.99071   0.00023   0.00000   0.00691   0.00728   1.99799
   A46        1.88507   0.00208   0.00000   0.02819   0.02844   1.91351
   A47        1.89088  -0.00455   0.00000  -0.03169  -0.03171   1.85917
   A48        1.91272   0.00152   0.00000   0.00012   0.00021   1.91293
   A49        2.10401  -0.00611   0.00000  -0.01076  -0.01129   2.09272
   A50        2.26472  -0.00564   0.00000  -0.02762  -0.02768   2.23704
   A51        1.97650   0.00436   0.00000   0.02107   0.02049   1.99699
   A52        2.04051   0.00120   0.00000   0.00397   0.00342   2.04393
    D1       -3.04142  -0.00017   0.00000  -0.03978  -0.03899  -3.08041
    D2        0.14413   0.00111   0.00000   0.00000  -0.00000   0.14413
    D3        0.11165  -0.00170   0.00000  -0.05968  -0.05929   0.05236
    D4       -2.98599  -0.00042   0.00000  -0.01990  -0.02030  -3.00628
    D5        3.02223   0.00220   0.00000   0.04019   0.04033   3.06256
    D6       -0.04422   0.00116   0.00000   0.02527   0.02520  -0.01902
    D7       -0.16899   0.00026   0.00000  -0.00608  -0.00640  -0.17540
    D8        3.04774  -0.00078   0.00000  -0.02100  -0.02153   3.02620
    D9       -2.88979  -0.00087   0.00000  -0.02828  -0.02879  -2.91858
   D10        0.31233   0.00051   0.00000   0.02501   0.02462   0.33695
   D11        0.30156   0.00123   0.00000   0.01867   0.01911   0.32068
   D12       -2.77950   0.00261   0.00000   0.07196   0.07252  -2.70698
   D13        0.14911  -0.00253   0.00000  -0.02567  -0.02542   0.12369
   D14        2.86939   0.00251   0.00000   0.03313   0.03181   2.90121
   D15       -3.06577  -0.00156   0.00000  -0.01129  -0.01080  -3.07658
   D16       -0.34549   0.00348   0.00000   0.04751   0.04643  -0.29907
   D17       -2.70443   0.00005   0.00000   0.01003   0.01025  -2.69418
   D18        1.53409  -0.00114   0.00000   0.00000   0.00000   1.53409
   D19       -0.69064   0.00097   0.00000   0.03017   0.02981  -0.66083
   D20        0.81440   0.00078   0.00000  -0.01248  -0.01306   0.80135
   D21       -1.23027  -0.00042   0.00000  -0.02252  -0.02331  -1.25357
   D22        2.82819   0.00169   0.00000   0.00765   0.00650   2.83469
   D23        2.95935   0.00175   0.00000   0.03227   0.03216   2.99151
   D24       -1.21076   0.00080   0.00000   0.02462   0.02455  -1.18621
   D25        0.86620  -0.00122   0.00000   0.00605   0.00604   0.87224
   D26        0.92176   0.00375   0.00000   0.04860   0.04857   0.97033
   D27        3.03484   0.00279   0.00000   0.04095   0.04096   3.07580
   D28       -1.17140   0.00077   0.00000   0.02238   0.02246  -1.14894
   D29       -1.08691   0.00198   0.00000   0.00944   0.00944  -1.07746
   D30        1.02617   0.00102   0.00000   0.00180   0.00183   1.02800
   D31        3.10312  -0.00100   0.00000  -0.01677  -0.01667   3.08645
   D32       -2.89874  -0.00046   0.00000  -0.01835  -0.01815  -2.91689
   D33       -0.86020   0.00282   0.00000   0.01592   0.01575  -0.84445
   D34        1.30939   0.00138   0.00000   0.00000  -0.00001   1.30939
   D35       -0.89141  -0.00194   0.00000  -0.02647  -0.02643  -0.91784
   D36        1.14713   0.00133   0.00000   0.00780   0.00747   1.15460
   D37       -2.96646  -0.00011   0.00000  -0.00812  -0.00829  -2.97475
   D38        1.11845   0.00087   0.00000   0.01264   0.01276   1.13122
   D39       -3.12619   0.00415   0.00000   0.04690   0.04666  -3.07953
   D40       -0.95660   0.00270   0.00000   0.03099   0.03090  -0.92570
   D41        0.95665   0.00087   0.00000   0.00000   0.00001   0.95666
   D42        3.08255   0.00062   0.00000   0.00678   0.00674   3.08929
   D43       -1.13759  -0.00115   0.00000  -0.01686  -0.01683  -1.15443
   D44       -1.15937   0.00210   0.00000   0.02015   0.02022  -1.13914
   D45        0.96653   0.00185   0.00000   0.02693   0.02695   0.99348
   D46        3.02957   0.00009   0.00000   0.00329   0.00338   3.03295
   D47        3.05963   0.00088   0.00000   0.00673   0.00672   3.06634
   D48       -1.09766   0.00063   0.00000   0.01352   0.01345  -1.08422
   D49        0.96538  -0.00114   0.00000  -0.01013  -0.01012   0.95525
   D50       -0.92192  -0.00060   0.00000   0.00000   0.00001  -0.92191
   D51        1.18663  -0.00158   0.00000  -0.01283  -0.01283   1.17380
   D52       -3.04665  -0.00105   0.00000  -0.00927  -0.00931  -3.05596
   D53       -3.04928   0.00041   0.00000   0.00130   0.00132  -3.04796
   D54       -0.94072  -0.00057   0.00000  -0.01152  -0.01152  -0.95224
   D55        1.10918  -0.00004   0.00000  -0.00797  -0.00799   1.10119
   D56        1.17600   0.00045   0.00000   0.00825   0.00829   1.18429
   D57       -2.99863  -0.00053   0.00000  -0.00458  -0.00455  -3.00317
   D58       -0.94872  -0.00000   0.00000  -0.00102  -0.00103  -0.94975
   D59        0.99243  -0.00139   0.00000  -0.01189  -0.01191   0.98052
   D60        3.09836  -0.00110   0.00000  -0.01695  -0.01708   3.08128
   D61       -1.12693   0.00016   0.00000  -0.00345  -0.00341  -1.13034
   D62       -1.11265  -0.00154   0.00000  -0.01229  -0.01226  -1.12491
   D63        0.99329  -0.00125   0.00000  -0.01734  -0.01743   0.97585
   D64        3.05118   0.00001   0.00000  -0.00385  -0.00376   3.04742
   D65        3.11821  -0.00044   0.00000  -0.00027  -0.00026   3.11795
   D66       -1.05904  -0.00016   0.00000  -0.00533  -0.00543  -1.06447
   D67        0.99885   0.00110   0.00000   0.00817   0.00824   1.00709
   D68       -1.06589   0.00022   0.00000  -0.00153  -0.00148  -1.06737
   D69       -3.13841   0.00162   0.00000   0.00221   0.00183  -3.13658
   D70        1.07426   0.00116   0.00000   0.00389   0.00386   1.07812
   D71        3.11147  -0.00115   0.00000  -0.00665  -0.00653   3.10494
   D72        1.03895   0.00025   0.00000  -0.00291  -0.00322   1.03573
   D73       -1.03157  -0.00021   0.00000  -0.00123  -0.00118  -1.03275
   D74        1.05330  -0.00025   0.00000   0.00054   0.00071   1.05400
   D75       -1.01922   0.00115   0.00000   0.00428   0.00402  -1.01520
   D76       -3.08974   0.00069   0.00000   0.00596   0.00605  -3.08369
   D77       -1.17216   0.00601   0.00000   0.00000  -0.00001  -1.17217
   D78        3.06260   0.00208   0.00000  -0.01445  -0.01444   3.04817
   D79        1.00970   0.00134   0.00000  -0.03012  -0.03040   0.97930
   D80        0.28802  -0.00231   0.00000  -0.00849  -0.00859   0.27943
   D81       -2.91594  -0.00366   0.00000  -0.06298  -0.06277  -2.97872
         Item               Value     Threshold  Converged?
 Maximum Force            0.038186     0.000450     NO 
 RMS     Force            0.007033     0.000300     NO 
 Maximum Displacement     0.309336     0.001800     NO 
 RMS     Displacement     0.059553     0.001200     NO 
 Predicted change in Energy=-1.361626D-02
 GradGradGradGradGradGradGradGradGradGradGradGradGradGradGradGradGradGrad

                          Input orientation:                          
 ---------------------------------------------------------------------
 Center     Atomic      Atomic             Coordinates (Angstroms)
 Number     Number       Type             X           Y           Z
 ---------------------------------------------------------------------
      1          8           0       -3.497329   -1.374193   -0.372522
      2          7           0       -3.117458   -0.208887   -0.186198
      3          8           0       -3.849157    0.789919   -0.105232
      4          6           0       -1.671329   -0.012345   -0.039044
      5          6           0       -1.302534    1.268813    0.238456
      6          7           0       -0.067875    1.727533    0.506669
      7          6           0        1.206290    1.006031    0.431680
      8          1           0        1.864578    1.531624    1.140495
      9          6           0        1.868263    1.047204   -0.943575
     10          6           0        3.277274    0.450995   -0.839290
     11          6           0        3.248765   -0.958643   -0.236931
     12          6           0        2.494886   -0.993389    1.091503
     13          6           0        1.073233   -0.447351    0.904146
     14          1           0        0.538698   -0.470686    1.865134
     15          7           0        0.410650   -1.333139   -0.045814
     16          6           0       -0.839938   -1.169684   -0.312414
     17          1           0       -2.090899    2.013790    0.305602
     18          1           0        0.050600    2.735741    0.475897
     19          1           0        1.264659    0.471959   -1.654459
     20          1           0        1.911356    2.083645   -1.304467
     21          1           0        3.739207    0.427815   -1.832881
     22          1           0        3.896761    1.105627   -0.209979
     23          1           0        2.751830   -1.641751   -0.934663
     24          1           0        4.271661   -1.327278   -0.092319
     25          1           0        2.438512   -2.021602    1.465898
     26          1           0        3.020303   -0.393416    1.846611
     27          1           0       -1.328028   -1.946309   -0.904291
 ---------------------------------------------------------------------
                    Distance matrix (angstroms):
                    1          2          3          4          5
     1  O    0.000000
     2  N    1.239741   0.000000
     3  O    2.208757   1.240787   0.000000
     4  C    2.302198   1.466824   2.321840   0.000000
     5  C    3.489399   2.378629   2.613952   1.361757   0.000000
     6  N    4.706893   3.678280   3.943556   2.428177   1.344153
     7  C    5.332565   4.533497   5.088470   3.088586   2.529939
     8  H    6.283554   5.441523   5.894805   4.034574   3.303535
     9  C    5.914292   5.196998   5.784280   3.803884   3.391203
    10  C    7.031674   6.461778   7.172150   5.034258   4.775459
    11  C    6.760241   6.410422   7.311314   5.014177   5.089389
    12  C    6.180213   5.809162   6.697704   4.426955   4.501739
    13  C    4.835179   4.336774   5.174901   2.934529   3.005434
    14  H    4.702441   4.200474   4.972397   2.952997   3.010329
    15  N    3.921827   3.705563   4.759922   2.465600   3.128253
    16  C    2.665927   2.475107   3.596993   1.450992   2.542385
    17  H    3.730460   2.497195   2.181311   2.097628   1.086746
    18  H    5.495378   4.375591   4.396821   3.283623   2.009783
    19  H    5.265755   4.671433   5.352785   3.385874   3.287641
    20  H    6.486836   5.638723   6.024566   4.339367   3.657000
    21  H    7.599168   7.080312   7.790967   5.717123   5.515149
    22  H    7.800545   7.136370   7.753056   5.681787   5.221149
    23  H    6.280094   6.087844   7.083361   4.798066   5.126935
    24  H    7.774183   7.473867   8.392280   6.086955   6.157983
    25  H    6.247651   6.073233   7.064551   4.815886   5.131167
    26  H    6.954567   6.468266   7.238746   5.070732   4.902661
    27  H    2.305637   2.595448   3.805460   2.146328   3.412261
                    6          7          8          9         10
     6  N    0.000000
     7  C    1.466180   0.000000
     8  H    2.043157   1.100913   0.000000
     9  C    2.512903   1.526837   2.139632   0.000000
    10  C    3.825072   2.492470   2.661394   1.533511   0.000000
    11  C    4.332273   2.911819   3.164602   2.535460   1.533209
    12  C    3.783278   2.468507   2.602956   2.949275   2.535022
    13  C    2.488019   1.534030   2.144395   2.505962   2.950321
    14  H    2.654341   2.163600   2.508447   3.458407   3.957677
    15  N    3.146735   2.516498   3.424632   2.932003   3.468469
    16  C    3.108190   3.078062   4.089305   3.556305   4.455967
    17  H    2.053046   3.450062   4.071281   4.262592   5.707047
    18  H    1.015612   2.080739   2.276424   2.858314   4.166678
    19  H    2.832417   2.154209   3.048698   1.095719   2.171534
    20  H    2.706359   2.161614   2.506941   1.098321   2.178915
    21  H    4.653669   3.446482   3.684236   2.162161   1.095966
    22  H    4.076602   2.767721   2.476897   2.157865   1.099244
    23  H    4.623878   3.356537   3.894073   2.830416   2.159809
    24  H    5.340620   3.887853   3.935378   3.484125   2.170029
    25  H    4.610652   3.428489   3.613959   3.943135   3.482980
    26  H    3.978782   2.692791   2.353737   3.344806   2.827212
    27  H    4.132300   4.113866   5.144890   4.379376   5.192311
                   11         12         13         14         15
    11  C    0.000000
    12  C    1.527834   0.000000
    13  C    2.509267   1.534392   0.000000
    14  H    3.464281   2.167578   1.099895   0.000000
    15  N    2.869089   2.398532   1.458102   2.100463   0.000000
    16  C    4.094842   3.622584   2.379497   2.670384   1.289095
    17  H    6.135284   5.539873   4.053048   3.939485   4.193230
    18  H    4.938103   4.501102   3.370646   3.528370   4.117962
    19  H    2.827134   3.346791   2.725479   3.715257   2.564264
    20  H    3.490532   3.943262   3.462133   4.295948   3.938368
    21  H    2.170220   3.481404   3.919777   4.972512   4.168196
    22  H    2.163755   2.839890   3.409593   4.250581   4.257640
    23  H    1.095633   2.142835   2.761431   3.756090   2.523176
    24  H    1.096868   2.160982   3.463691   4.301207   3.861295
    25  H    2.164721   1.095706   2.158198   2.484758   2.621350
    26  H    2.170904   1.098280   2.163846   2.482876   3.357773
    27  H    4.729470   4.416550   3.359073   3.651279   2.033706
                   16         17         18         19         20
    16  C    0.000000
    17  H    3.475824   0.000000
    18  H    4.082504   2.266325   0.000000
    19  H    2.987542   4.180771   3.337225   0.000000
    20  H    4.374693   4.314538   2.656565   1.771509   0.000000
    21  H    5.082558   6.409256   4.925729   2.481365   2.522308
    22  H    5.255839   6.078046   4.233279   3.068553   2.469060
    23  H    3.675710   6.193001   5.333738   2.682826   3.836891
    24  H    5.118762   7.197447   5.886285   3.836613   4.321428
    25  H    3.825754   6.176264   5.414290   4.163221   4.980549
    26  H    4.490595   5.856085   4.526546   4.011066   4.158712
    27  H    1.091648   4.210486   5.072191   3.623920   5.185969
                   21         22         23         24         25
    21  H    0.000000
    22  H    1.765803   0.000000
    23  H    2.462684   3.063351   0.000000
    24  H    2.528520   2.464431   1.765877   0.000000
    25  H    4.309686   3.835963   2.450540   2.504108   0.000000
    26  H    3.837956   2.691630   3.060376   2.489467   1.770427
    27  H    5.672355   6.090549   4.091322   5.692012   4.450875
                   26         27
    26  H    0.000000
    27  H    5.374655   0.000000
 Symmetry turned off by external request.
 Stoichiometry    C9H13N3O2
 Framework group  C1[X(C9H13N3O2)]
 Deg. of freedom    75
 Full point group                 C1      NOp   1
 Rotational constants (GHZ):           1.6649228           0.4228182           0.3744183
 Standard basis: 6-31G(d) (6D, 7F)
   236 basis functions,   444 primitive gaussians,   236 cartesian basis functions
    52 alpha electrons       52 beta electrons
       nuclear repulsion energy       932.3122648592 Hartrees.
 NAtoms=   27 NActive=   27 NUniq=   27 SFac= 1.00D+00 NAtFMM=   60 NAOKFM=F Big=F
 Integral buffers will be    131072 words long.
 Raffenetti 1 integral format.
 Two-electron integral symmetry is turned off.
 One-electron integrals computed using PRISM.
 NBasis=   236 RedAO= T EigKep=  1.02D-03  NBF=   236
 NBsUse=   236 1.00D-06 EigRej= -1.00D+00 NBFU=   236
 Initial guess from the checkpoint file:  "/home/alexey/tmp/Gau-1534991.chk"
 B after Tr=     0.059359    0.005397    0.002593
         Rot=    0.999998   -0.001589    0.000660    0.000871 Ang=  -0.22 deg.
 ExpMin= 1.61D-01 ExpMax= 5.48D+03 ExpMxC= 8.25D+02 IAcc=3 IRadAn=         5 AccDes= 0.00D+00
 Harris functional with IExCor=  205 and IRadAn=       5 diagonalized for initial guess.
 HarFok:  IExCor=  205 AccDes= 0.00D+00 IRadAn=         5 IDoV= 1 UseB2=F ITyADJ=14
 ICtDFT=  3500011 ScaDFX=  1.000000  1.000000  1.000000  1.000000
 FoFCou: FMM=F IPFlag=           0 FMFlag=      100000 FMFlg1=           0
         NFxFlg=           0 DoJE=T BraDBF=F KetDBF=T FulRan=T
         wScrn=  0.000000 ICntrl=       500 IOpCl=  0 I1Cent=   200000004 NGrid=           0
         NMat0=    1 NMatS0=      1 NMatT0=    0 NMatD0=    1 NMtDS0=    0 NMtDT0=    0
 Symmetry not used in FoFCou.
 Keep R1 ints in memory in canonical form, NReq=397720213.
 Requested convergence on RMS density matrix=1.00D-08 within 128 cycles.
 Requested convergence on MAX density matrix=1.00D-06.
 Requested convergence on             energy=1.00D-06.
 No special actions if energy rises.
 SCF Done:  E(RHF) =  -661.298684068     A.U. after   14 cycles
            NFock= 14  Conv=0.99D-08     -V/T= 2.0024
 ExpMin= 1.61D-01 ExpMax= 5.48D+03 ExpMxC= 8.25D+02 IAcc=3 IRadAn=         5 AccDes= 0.00D+00
 HarFok:  IExCor=  205 AccDes= 0.00D+00 IRadAn=         5 IDoV=-2 UseB2=F ITyADJ=14
 ICtDFT= 12500011 ScaDFX=  1.000000  1.000000  1.000000  1.000000
 Range of M.O.s used for correlation:    15   236
 NBasis=   236 NAE=    52 NBE=    52 NFC=    14 NFV=     0
 NROrb=    222 NOA=    38 NOB=    38 NVA=   184 NVB=   184
 Fully direct method using O(ONN) memory.
 JobTyp=1 Pass  1:  I=  15 to  52 NPSUse=  4 ParTrn=T ParDer=T DoDerP=T.
 Spin components of T(2) and E(2):
     alpha-alpha T2 =       0.9135460923D-01 E2=     -0.2724818386D+00
     alpha-beta  T2 =       0.4912183277D+00 E2=     -0.1487998706D+01
     beta-beta   T2 =       0.9135460923D-01 E2=     -0.2724818386D+00
 ANorm=    0.1293803519D+01
 E2 =    -0.2032962383D+01 EUMP2 =    -0.66333164645193D+03
          IDoAtm=111111111111111111111111111
          Differentiating once with respect to electric field.
                with respect to dipole field.
          Differentiating once with respect to nuclear coordinates.
 Keep R1 ints in memory in canonical form, NReq=397723379.
          There are     1 degrees of freedom in the 1st order CPHF.  IDoFFX=0 NUNeed=     1.
 LinEq1:  Iter=  0 NonCon=     1 RMS=4.59D-03 Max=1.08D-01 NDo=     1
 AX will form     1 AO Fock derivatives at one time.
 LinEq1:  Iter=  1 NonCon=     1 RMS=1.54D-03 Max=2.96D-02 NDo=     1
 LinEq1:  Iter=  2 NonCon=     1 RMS=6.46D-04 Max=1.82D-02 NDo=     1
 LinEq1:  Iter=  3 NonCon=     1 RMS=2.81D-04 Max=8.50D-03 NDo=     1
 LinEq1:  Iter=  4 NonCon=     1 RMS=8.84D-05 Max=2.07D-03 NDo=     1
[...]
                   16         17         18         19         20
    16  C    0.000000
    17  H    3.461896   0.000000
    18  H    4.093827   2.228406   0.000000
    19  H    2.939092   4.170307   3.473259   0.000000
    20  H    4.356604   4.352341   2.868206   1.768716   0.000000
    21  H    5.044571   6.422316   5.079289   2.500544   2.519007
    22  H    5.230415   6.079925   4.330798   3.070493   2.460979
    23  H    3.641279   6.180883   5.411742   2.709311   3.846133
    24  H    5.101873   7.186859   5.945258   3.851426   4.316128
    25  H    3.833105   6.140096   5.380560   4.174968   4.987561
    26  H    4.509307   5.843498   4.502755   4.029412   4.175266
    27  H    1.089793   4.215223   5.094435   3.545383   5.137429
                   21         22         23         24         25
    21  H    0.000000
    22  H    1.758806   0.000000
    23  H    2.470721   3.062505   0.000000
    24  H    2.515820   2.457208   1.764458   0.000000
    25  H    4.311502   3.836383   2.444987   2.519404   0.000000
    26  H    3.844059   2.699375   3.061243   2.497398   1.768994
    27  H    5.590700   6.032466   4.019445   5.641048   4.447715
                   26         27
    26  H    0.000000
    27  H    5.378300   0.000000
 Symmetry turned off by external request.
 Stoichiometry    C9H13N3O2
 Framework group  C1[X(C9H13N3O2)]
 Deg. of freedom    75
 Full point group                 C1      NOp   1
 Rotational constants (GHZ):           1.6620379           0.4210652           0.3745967

 **********************************************************************

            Population analysis using the SCF Density.

 **********************************************************************

 Alpha  occ. eigenvalues --  -20.59248 -20.58915 -15.84738 -15.64156 -15.55939
 Alpha  occ. eigenvalues --  -11.35020 -11.29637 -11.29560 -11.28640 -11.27100
 Alpha  occ. eigenvalues --  -11.23791 -11.23209 -11.22627 -11.21996  -1.57136
 Alpha  occ. eigenvalues --   -1.36724  -1.30962  -1.22946  -1.14714  -1.09780
 Alpha  occ. eigenvalues --   -1.02783  -1.01294  -0.94479  -0.89715  -0.85554
 Alpha  occ. eigenvalues --   -0.82408  -0.78635  -0.77432  -0.75115  -0.71974
 Alpha  occ. eigenvalues --   -0.69753  -0.69446  -0.67855  -0.64836  -0.63849
 Alpha  occ. eigenvalues --   -0.62394  -0.60195  -0.57801  -0.56855  -0.55094
 Alpha  occ. eigenvalues --   -0.54507  -0.50715  -0.50324  -0.48700  -0.48145
 Alpha  occ. eigenvalues --   -0.47356  -0.46141  -0.45963  -0.43694  -0.41726
 Alpha  occ. eigenvalues --   -0.39480  -0.33758
 Alpha virt. eigenvalues --    0.07439   0.11702   0.17356   0.21932   0.24160
 Alpha virt. eigenvalues --    0.25755   0.27215   0.28715   0.29138   0.29604
 Alpha virt. eigenvalues --    0.30719   0.31871   0.32080   0.32830   0.33876
 Alpha virt. eigenvalues --    0.34413   0.35914   0.37470   0.38470   0.40343
 Alpha virt. eigenvalues --    0.41352   0.42325   0.44725   0.45968   0.46571
 Alpha virt. eigenvalues --    0.47378   0.49010   0.53988   0.57508   0.59491
 Alpha virt. eigenvalues --    0.63979   0.69456   0.69676   0.73081   0.74150
 Alpha virt. eigenvalues --    0.74982   0.75696   0.76563   0.78790   0.79352
 Alpha virt. eigenvalues --    0.81532   0.84503   0.85566   0.85611   0.88446
 Alpha virt. eigenvalues --    0.88956   0.91583   0.91788   0.92918   0.94497
 Alpha virt. eigenvalues --    0.95550   0.97939   0.99769   1.01598   1.02377
 Alpha virt. eigenvalues --    1.03184   1.05908   1.07138   1.08021   1.09082
 Alpha virt. eigenvalues --    1.10397   1.11871   1.11979   1.12480   1.13852
 Alpha virt. eigenvalues --    1.14795   1.15093   1.16021   1.17122   1.18706
 Alpha virt. eigenvalues --    1.18878   1.21649   1.22875   1.23880   1.24814
 Alpha virt. eigenvalues --    1.25034   1.26039   1.26939   1.27832   1.29851
 Alpha virt. eigenvalues --    1.30330   1.32987   1.36030   1.37488   1.40595
 Alpha virt. eigenvalues --    1.41749   1.45956   1.48743   1.52318   1.54639
 Alpha virt. eigenvalues --    1.57532   1.58941   1.60282   1.63444   1.65936
 Alpha virt. eigenvalues --    1.68092   1.68666   1.72361   1.75649   1.78525
 Alpha virt. eigenvalues --    1.81437   1.84522   1.87343   1.90507   1.92570
 Alpha virt. eigenvalues --    1.95546   1.96757   1.99728   2.01672   2.02439
 Alpha virt. eigenvalues --    2.04871   2.05717   2.08989   2.09703   2.12333
 Alpha virt. eigenvalues --    2.12774   2.15546   2.19241   2.19872   2.21896
 Alpha virt. eigenvalues --    2.22935   2.24575   2.25239   2.28034   2.29397
 Alpha virt. eigenvalues --    2.31334   2.33851   2.34389   2.36481   2.38188
 Alpha virt. eigenvalues --    2.40898   2.42163   2.43886   2.44930   2.47778
 Alpha virt. eigenvalues --    2.50463   2.52085   2.53379   2.55265   2.60791
 Alpha virt. eigenvalues --    2.62680   2.65805   2.67426   2.69918   2.70493
 Alpha virt. eigenvalues --    2.71810   2.72176   2.76365   2.78385   2.84005
 Alpha virt. eigenvalues --    2.88215   2.89122   2.92763   2.93072   2.95828
 Alpha virt. eigenvalues --    2.99024   3.01306   3.04280   3.06532   3.07833
 Alpha virt. eigenvalues --    3.09725   3.15876   3.20713   3.25290   3.27405
 Alpha virt. eigenvalues --    3.33769   3.38096   3.38663   3.52115   3.66312
 Alpha virt. eigenvalues --    4.13914   4.28066   4.34516   4.39243   4.46729
 Alpha virt. eigenvalues --    4.56148   4.62046   4.62537   4.73356   4.80393
 Alpha virt. eigenvalues --    4.99457   5.01088   5.05674   5.10964
          Condensed to atoms (all electrons):
               1          2          3          4          5          6
     1  O    8.316221   0.306201  -0.082592  -0.084988   0.004617  -0.000014
     2  N    0.306201   5.722244   0.301724   0.262830  -0.054322   0.000953
     3  O   -0.082592   0.301724   8.353296  -0.092617   0.003283   0.000795
     4  C   -0.084988   0.262830  -0.092617   5.231537   0.560346  -0.048043
     5  C    0.004617  -0.054322   0.003283   0.560346   4.710677   0.319093
     6  N   -0.000014   0.000953   0.000795  -0.048043   0.319093   7.190175
     7  C    0.000003  -0.000129   0.000002   0.005377  -0.029639   0.174760
     8  H   -0.000000   0.000002  -0.000000  -0.000279   0.003369  -0.048090
     9  C   -0.000000  -0.000006  -0.000000   0.000748   0.000297  -0.063488
    10  C   -0.000000   0.000000   0.000000  -0.000043  -0.000037   0.003818
    11  C   -0.000000  -0.000000  -0.000000  -0.000025   0.000020  -0.000184
    12  C   -0.000000   0.000002  -0.000000  -0.000202  -0.000165   0.003797
    13  C   -0.000020  -0.000014  -0.000003  -0.009546  -0.000966  -0.052860
    14  H   -0.000002  -0.000087   0.000001   0.002243   0.004906  -0.006490
    15  N    0.000466   0.002310  -0.000016  -0.064749  -0.006198   0.001595
    16  C    0.000695  -0.026134   0.002587   0.325174  -0.051227  -0.001227
    17  H    0.000227  -0.007225   0.017619  -0.023021   0.374671  -0.034040
    18  H    0.000001  -0.000052   0.000012   0.001565  -0.031994   0.338459
    19  H    0.000001  -0.000008   0.000000  -0.001457   0.001718  -0.000815
    20  H    0.000000  -0.000000   0.000000  -0.000071   0.000076  -0.000035
    21  H   -0.000000   0.000000  -0.000000   0.000001   0.000001  -0.000081
    22  H   -0.000000   0.000000  -0.000000  -0.000000  -0.000002  -0.000106
    23  H    0.000000  -0.000000   0.000000   0.000048  -0.000000  -0.000030
    24  H    0.000000   0.000000   0.000000   0.000000  -0.000000   0.000006
    25  H    0.000000  -0.000000   0.000000   0.000025  -0.000001  -0.000090
    26  H    0.000000  -0.000000   0.000000   0.000005  -0.000001  -0.000058
    27  H    0.006353  -0.000782   0.000024  -0.065293   0.002137   0.000006
               7          8          9         10         11         12
     1  O    0.000003  -0.000000  -0.000000  -0.000000  -0.000000  -0.000000
     2  N   -0.000129   0.000002  -0.000006   0.000000  -0.000000   0.000002
     3  O    0.000002  -0.000000  -0.000000   0.000000  -0.000000  -0.000000
     4  C    0.005377  -0.000279   0.000748  -0.000043  -0.000025  -0.000202
     5  C   -0.029639   0.003369   0.000297  -0.000037   0.000020  -0.000165
     6  N    0.174760  -0.048090  -0.063488   0.003818  -0.000184   0.003797
     7  C    5.020088   0.415789   0.354056  -0.054846  -0.009237  -0.061972
     8  H    0.415789   0.529649  -0.052016   0.000681  -0.000180  -0.001946
     9  C    0.354056  -0.052016   5.160252   0.325544  -0.050499  -0.005136
    10  C   -0.054846   0.000681   0.325544   5.116882   0.337506  -0.061584
    11  C   -0.009237  -0.000180  -0.050499   0.337506   5.122845   0.335750
    12  C   -0.061972  -0.001946  -0.005136  -0.061584   0.335750   5.119246
    13  C    0.334688  -0.035996  -0.063282   0.000208  -0.050737   0.371858
    14  H   -0.045772  -0.000761   0.004394  -0.000395   0.004233  -0.036352
    15  N   -0.057626   0.003743  -0.016055   0.001571  -0.015384  -0.082755
    16  C   -0.001434  -0.000023  -0.001228  -0.000048   0.000027   0.002368
    17  H    0.001550  -0.000043  -0.000066   0.000001   0.000000   0.000000
    18  H   -0.021939  -0.004254   0.001163  -0.000083   0.000004  -0.000115
    19  H   -0.036411   0.004141   0.391233  -0.032059  -0.002106   0.000723
    20  H   -0.042867  -0.002095   0.398465  -0.034870   0.003916  -0.000445
    21  H    0.004577  -0.000082  -0.036360   0.402306  -0.034941   0.004396
    22  H   -0.004649   0.003421  -0.047180   0.397855  -0.045355  -0.000971
    23  H    0.000709   0.000028  -0.002006  -0.038639   0.399248  -0.037453
    24  H   -0.000136  -0.000096   0.004415  -0.038616   0.402224  -0.038812
    25  H    0.005131  -0.000036  -0.000413   0.004208  -0.033427   0.397996
    26  H   -0.003719   0.001620   0.000972  -0.002255  -0.041377   0.397059
    27  H   -0.000404   0.000008  -0.000052   0.000006   0.000017  -0.000032
              13         14         15         16         17         18
     1  O   -0.000020  -0.000002   0.000466   0.000695   0.000227   0.000001
     2  N   -0.000014  -0.000087   0.002310  -0.026134  -0.007225  -0.000052
     3  O   -0.000003   0.000001  -0.000016   0.002587   0.017619   0.000012
     4  C   -0.009546   0.002243  -0.064749   0.325174  -0.023021   0.001565
     5  C   -0.000966   0.004906  -0.006198  -0.051227   0.374671  -0.031994
     6  N   -0.052860  -0.006490   0.001595  -0.001227  -0.034040   0.338459
     7  C    0.334688  -0.045772  -0.057626  -0.001434   0.001550  -0.021939
     8  H   -0.035996  -0.000761   0.003743  -0.000023  -0.000043  -0.004254
     9  C   -0.063282   0.004394  -0.016055  -0.001228  -0.000066   0.001163
    10  C    0.000208  -0.000395   0.001571  -0.000048   0.000001  -0.000083
    11  C   -0.050737   0.004233  -0.015384   0.000027   0.000000   0.000004
    12  C    0.371858  -0.036352  -0.082755   0.002368   0.000000  -0.000115
    13  C    5.042166   0.404716   0.243711  -0.068580  -0.000044   0.003301
    14  H    0.404716   0.521940  -0.036465  -0.004419   0.000062  -0.000085
    15  N    0.243711  -0.036465   6.977273   0.586592  -0.000058  -0.000142
    16  C   -0.068580  -0.004419   0.586592   4.705892   0.001997  -0.000203
    17  H   -0.000044   0.000062  -0.000058   0.001997   0.376007  -0.003005
    18  H    0.003301  -0.000085  -0.000142  -0.000203  -0.003005   0.312702
    19  H   -0.007973   0.000102   0.007543   0.003026   0.000020  -0.000144
    20  H    0.004528  -0.000066   0.000164  -0.000043  -0.000003   0.000993
    21  H   -0.000453   0.000010  -0.000053   0.000005  -0.000000   0.000001
    22  H   -0.000088  -0.000053   0.000028  -0.000002   0.000000   0.000002
    23  H   -0.008180   0.000003   0.009078   0.000142   0.000000   0.000000
    24  H    0.004768  -0.000058   0.000176   0.000007   0.000000  -0.000000
    25  H   -0.035264  -0.002907   0.000689  -0.000049  -0.000000   0.000002
    26  H   -0.047814  -0.000883   0.004939  -0.000044   0.000000  -0.000001
    27  H    0.004919  -0.000168  -0.040829   0.405283  -0.000079   0.000001
              19         20         21         22         23         24
     1  O    0.000001   0.000000  -0.000000  -0.000000   0.000000   0.000000
     2  N   -0.000008  -0.000000   0.000000   0.000000  -0.000000   0.000000
     3  O    0.000000   0.000000  -0.000000  -0.000000   0.000000   0.000000
     4  C   -0.001457  -0.000071   0.000001  -0.000000   0.000048   0.000000
     5  C    0.001718   0.000076   0.000001  -0.000002  -0.000000  -0.000000
     6  N   -0.000815  -0.000035  -0.000081  -0.000106  -0.000030   0.000006
     7  C   -0.036411  -0.042867   0.004577  -0.004649   0.000709  -0.000136
     8  H    0.004141  -0.002095  -0.000082   0.003421   0.000028  -0.000096
     9  C    0.391233   0.398465  -0.036360  -0.047180  -0.002006   0.004415
    10  C   -0.032059  -0.034870   0.402306   0.397855  -0.038639  -0.038616
    11  C   -0.002106   0.003916  -0.034941  -0.045355   0.399248   0.402224
    12  C    0.000723  -0.000445   0.004396  -0.000971  -0.037453  -0.038812
    13  C   -0.007973   0.004528  -0.000453  -0.000088  -0.008180   0.004768
    14  H    0.000102  -0.000066   0.000010  -0.000053   0.000003  -0.000058
    15  N    0.007543   0.000164  -0.000053   0.000028   0.009078   0.000176
    16  C    0.003026  -0.000043   0.000005  -0.000002   0.000142   0.000007
    17  H    0.000020  -0.000003  -0.000000   0.000000   0.000000   0.000000
    18  H   -0.000144   0.000993   0.000001   0.000002   0.000000  -0.000000
    19  H    0.503820  -0.025073  -0.002786   0.003961   0.001463  -0.000067
    20  H   -0.025073   0.543108  -0.002743  -0.003020  -0.000044  -0.000083
    21  H   -0.002786  -0.002743   0.524390  -0.027442  -0.002867  -0.002273
    22  H    0.003961  -0.003020  -0.027442   0.571443   0.004111  -0.003691
    23  H    0.001463  -0.000044  -0.002867   0.004111   0.496033  -0.025417
    24  H   -0.000067  -0.000083  -0.002273  -0.003691  -0.025417   0.538971
    25  H   -0.000030   0.000013  -0.000087  -0.000082  -0.002232  -0.002330
    26  H    0.000020  -0.000031  -0.000080   0.002403   0.004032  -0.002941
    27  H    0.000082   0.000000  -0.000000   0.000000  -0.000043  -0.000000
              25         26         27
     1  O    0.000000   0.000000   0.006353
     2  N   -0.000000  -0.000000  -0.000782
     3  O    0.000000   0.000000   0.000024
     4  C    0.000025   0.000005  -0.065293
     5  C   -0.000001  -0.000001   0.002137
     6  N   -0.000090  -0.000058   0.000006
     7  C    0.005131  -0.003719  -0.000404
     8  H   -0.000036   0.001620   0.000008
     9  C   -0.000413   0.000972  -0.000052
    10  C    0.004208  -0.002255   0.000006
    11  C   -0.033427  -0.041377   0.000017
    12  C    0.397996   0.397059  -0.000032
    13  C   -0.035264  -0.047814   0.004919
    14  H   -0.002907  -0.000883  -0.000168
    15  N    0.000689   0.004939  -0.040829
    16  C   -0.000049  -0.000044   0.405283
    17  H   -0.000000   0.000000  -0.000079
    18  H    0.000002  -0.000001   0.000001
    19  H   -0.000030   0.000020   0.000082
    20  H    0.000013  -0.000031   0.000000
    21  H   -0.000087  -0.000080  -0.000000
    22  H   -0.000082   0.002403   0.000000
    23  H   -0.002232   0.004032  -0.000043
    24  H   -0.002330  -0.002941  -0.000000
    25  H    0.506595  -0.024058  -0.000014
    26  H   -0.024058   0.562105   0.000001
    27  H   -0.000014   0.000001   0.438653
 Mulliken charges:
               1
     1  O   -0.467168
     2  N    0.492494
     3  O   -0.504117
     4  C    0.000434
     5  C    0.189340
     6  N   -0.777806
     7  C    0.054048
     8  H    0.183448
     9  C   -0.303751
    10  C   -0.327114
    11  C   -0.322335
    12  C   -0.305256
    13  C   -0.033042
    14  H    0.192352
    15  N   -0.519551
    16  C    0.120863
    17  H    0.295428
    18  H    0.403809
    19  H    0.191076
    20  H    0.160227
    21  H    0.174560
    22  H    0.149418
    23  H    0.202016
    24  H    0.163955
    25  H    0.186362
    26  H    0.150105
    27  H    0.250206
 Sum of Mulliken charges =  -0.00000
 Mulliken charges with hydrogens summed into heavy atoms:
               1
     1  O   -0.467168
     2  N    0.492494
     3  O   -0.504117
     4  C    0.000434
     5  C    0.484768
     6  N   -0.373997
     7  C    0.237496
     9  C    0.047552
    10  C   -0.003136
    11  C    0.043635
    12  C    0.031211
    13  C    0.159310
    15  N   -0.519551
    16  C    0.371069
 Electronic spatial extent (au):  <R**2>=           2994.5916
 Charge=             -0.0000 electrons
 Dipole moment (field-independent basis, Debye):
    X=              5.4006    Y=              4.7528    Z=              1.3849  Tot=              7.3262
 Quadrupole moment (field-independent basis, Debye-Ang):
   XX=           -106.0186   YY=            -79.0156   ZZ=            -81.7047
   XY=             -1.4202   XZ=             -1.0991   YZ=              1.6827
 Traceless Quadrupole moment (field-independent basis, Debye-Ang):
   XX=            -17.1056   YY=              9.8974   ZZ=              7.2082
   XY=             -1.4202   XZ=             -1.0991   YZ=              1.6827
 Octapole moment (field-independent basis, Debye-Ang**2):
  XXX=             89.8260  YYY=             35.1734  ZZZ=             -0.4252  XYY=             -5.0782
  XXY=              8.4760  XXZ=             10.4014  XZZ=             -9.2374  YZZ=             -0.5737
  YYZ=              8.1502  XYZ=              0.7334
 Hexadecapole moment (field-independent basis, Debye-Ang**3):
 XXXX=          -3351.2535 YYYY=           -599.1555 ZZZZ=           -313.6542 XXXY=             -9.0499
 XXXZ=            -56.5586 YYYX=             -0.8381 YYYZ=             22.7436 ZZZX=            -21.5201
 ZZZY=              4.0312 XXYY=           -623.6429 XXZZ=           -523.8808 YYZZ=           -159.4283
 XXYZ=             -4.0269 YYXZ=             -7.1226 ZZXY=              6.3193
 N-N= 9.317382025606D+02 E-N=-3.410206505348D+03  KE= 6.596279307134D+02
 Unable to Open any file for archive entry.
 1\1\GINC-LOTUS\FOpt\RMP2-FC\6-31G(d)\C9H13N3O2\ALEXEY\02-Jul-2023\0\\#
 MP2/6-31G* SCF=Tight Opt=(ModRedun, MaxCycle=20 ) NoSymm\\MolName:\\0,
 1\O,-3.4992695462,-1.3671537412,-0.4676276035\N,-3.1081192971,-0.21151
 79443,-0.212949667\O,-3.8744183866,0.7652048176,-0.1025659841\C,-1.678
 4010072,-0.0237154005,-0.0231328743\C,-1.29109641,1.2615245665,0.25719
 35169\N,-0.0563341356,1.7316576436,0.4894679368\C,1.2196578726,1.03241
 78082,0.4206554171\H,1.8816719267,1.5673517501,1.1161693411\C,1.866157
 1516,1.0372715994,-0.9654927313\C,3.2670272162,0.4217086837,-0.8599905
 349\C,3.2398719217,-0.9732323452,-0.2302758273\C,2.5023242492,-0.97709
 54879,1.1092353051\C,1.0846263349,-0.4252455866,0.9139815231\H,0.52808
 4756,-0.4197005443,1.863444752\N,0.4233884871,-1.3097960144,-0.0401348
 591\C,-0.8282540041,-1.1559121559,-0.3287815896\H,-2.0843555956,1.9985
 354831,0.3467893378\H,-0.0034801022,2.7278189,0.6691153207\H,1.2371953
 953,0.4623556555,-1.6529378072\H,1.923545969,2.0638659348,-1.348889690
 5\H,3.7283512514,0.3805425262,-1.8533645795\H,3.8968525892,1.085637675
 2,-0.2509141972\H,2.7305696959,-1.6700762295,-0.9026499497\H,4.2650654
 874,-1.338948465,-0.0970504829\H,2.4326914872,-1.9967706301,1.50203364
 45\H,3.0397186587,-0.3726241243,1.8527542807\H,-1.2800919653,-1.932084
 3747,-0.9460719976\\Version=ES64L-G16RevC.02\HF=-661.2992308\MP2=-663.
 3338521\RMSD=9.201e-09\RMSF=1.474e-03\Dipole=1.9755696,1.6783355,0.509
 7102\PG=C01 [X(C9H13N3O2)]\\@
 The archive entry for this job was punched.


 WERE I TO AWAIT PERFECTION, MY BOOK WOULD NEVER BE FINISHED.
                                    -- HISTORY OF CHINESE WRITING

                                       TAI T'UNG, 13TH CENTURY
 Job cpu time:       0 days  1 hours  1 minutes  4.9 seconds.
 Elapsed time:       0 days  0 hours 18 minutes 16.2 seconds.
 File lengths (MBytes):  RWF=     36 Int=      0 D2E=      0 Chk=      7 Scr=      1
 Normal termination of Gaussian 16 at Sun Jul  2 15:39:19 2023.
