 Entering Gaussian System, Link 0=g16
 Initial command:
 /home/alexey/programs//g16/l1.exe "/home/alexey/tmp/Gau-1524061.inp" -scrdir="/home/alexey/tmp/"
 Entering Link 1 = /home/alexey/programs//g16/l1.exe PID=   1524063.
  
 Copyright (c) 1988-2021, Gaussian, Inc.  All Rights Reserved.
  
 This is part of the Gaussian(R) 16 program.  It is based on
 the Gaussian(R) 09 system (copyright 2009, Gaussian, Inc.),
 the Gaussian(R) 03 system (copyright 2003, Gaussian, Inc.),
 the Gaussian(R) 98 system (copyright 1998, Gaussian, Inc.),
 the Gaussian(R) 94 system (copyright 1995, Gaussian, Inc.),
 the Gaussian 92(TM) system (copyright 1992, Gaussian, Inc.),
 the Gaussian 90(TM) system (copyright 1990, Gaussian, Inc.),
 the Gaussian 88(TM) system (copyright 1988, Gaussian, Inc.),
 the Gaussian 86(TM) system (copyright 1986, Carnegie Mellon
 University), and the Gaussian 82(TM) system (copyright 1983,
 Carnegie Mellon University). Gaussian is a federally registered
 trademark of Gaussian, Inc.
  
 This software contains proprietary and confidential information,
 including trade secrets, belonging to Gaussian, Inc.
  
 This software is provided under written license and may be
 used, copied, transmitted, or stored only in accord with that
 written license.
  
 The following legend is applicable only to US Government
 contracts under FAR:
  
                    RESTRICTED RIGHTS LEGEND
  
 Use, reproduction and disclosure by the US Government is
 subject to restrictions as set forth in subparagraphs (a)
 and (c) of the Commercial Computer Software - Restricted
 Rights clause in FAR 52.227-19.
  
 Gaussian, Inc.
 340 Quinnipiac St., Bldg. 40, Wallingford CT 06492
  
  
 ---------------------------------------------------------------
 Warning -- This program may not be used in any manner that
 competes with the business of Gaussian, Inc. or will provide
 assistance to any competitor of Gaussian, Inc.  The licensee
 of this program is prohibited from giving any competitor of
 Gaussian, Inc. access to this program.  By using this program,
 the user acknowledges that Gaussian, Inc. is engaged in the
 business of creating and licensing software in the field of
 computational chemistry and represents and warrants to the
 licensee that it is not a competitor of Gaussian, Inc. and that
 it will not use this program in any manner prohibited above.
 ---------------------------------------------------------------
  

 Cite this work as:
 Gaussian 16, Revision C.02,
 M. J. Frisch, G. W. Trucks, H. B. Schlegel, G. E. Scuseria, 
 M. A. Robb, J. R. Cheeseman, G. Scalmani, V. Barone, 
 G. A. Petersson, H. Nakatsuji, X. Li, M. Caricato, A. V. Marenich, 
 J. Bloino, B. G. Janesko, R. Gomperts, B. Mennucci, H. P. Hratchian, 
 J. V. Ortiz, A. F. Izmaylov, J. L. Sonnenberg, D. Williams-Young, 
 F. Ding, F. Lipparini, F. Egidi, J. Goings, B. Peng, A. Petrone, 
 T. Henderson, D. Ranasinghe, V. G. Zakrzewski, J. Gao, N. Rega, 
 G. Zheng, W. Liang, M. Hada, M. Ehara, K. Toyota, R. Fukuda, 
 J. Hasegawa, M. Ishida, T. Nakajima, Y. Honda, O. Kitao, H. Nakai, 
 T. Vreven, K. Throssell, J. A. Montgomery, Jr., J. E. Peralta, 
 F. Ogliaro, M. J. Bearpark, J. J. Heyd, E. N. Brothers, K. N. Kudin, 
 V. N. Staroverov, T. A. Keith, R. Kobayashi, J. Normand, 
 K. Raghavachari, A. P. Rendell, J. C. Burant, S. S. Iyengar, 
 J. Tomasi, M. Cossi, J. M. Millam, M. Klene, C. Adamo, R. Cammi, 
 J. W. Ochterski, R. L. Martin, K. Morokuma, O. Farkas, 
 J. B. Foresman, and D. J. Fox, Gaussian, Inc., Wallingford CT, 2019.
 
 ******************************************
 Gaussian 16:  ES64L-G16RevC.02  7-Dec-2021
                 2-Jul-2023 
 ******************************************
 %mem=8GB
 %NPROCS=4
 Will use up to    4 processors via shared memory.
 %NoSave
 ---------------------------------------------------------
 #MP2/6-31G* SCF=Tight Opt=(ModRedun, MaxCycle=20 ) NoSymm
 ---------------------------------------------------------
 1/6=20,18=120,19=15,38=1/1,3;
 2/9=110,12=2,15=1,17=6,18=5,40=1/2;
 3/5=1,6=6,7=1,11=9,25=1,30=1,71=1/1,2,3;
 4//1;
 5/5=2,32=2,38=5/2;
 8/6=4,10=2/1;
 9/15=2,16=-3/6;
 10/5=1,31=1/2;
 6/7=2,8=2,9=2,10=2/1;
 7/12=2,30=1/1,2,3,16;
 1/6=20,18=20,19=15/3(2);
 2/9=110,15=1/2;
 99//99;
 2/9=110,15=1/2;
 3/5=1,6=6,7=1,11=9,25=1,30=1,71=1/1,2,3;
 4/5=5,16=3,69=1/1;
 5/5=2,32=2,38=5/2;
 8/6=4,10=2/1;
 9/15=2,16=-3/6;
 10/5=1,31=1/2;
 7/12=2,30=1/1,2,3,16;
 1/6=20,18=20,19=15/3(-8);
 2/9=110,15=1/2;
 6/7=2,8=2,9=2,10=2/1;
 99/9=10/99;
 --------
 MolName:
 --------
 Symbolic Z-matrix:
 Charge =  0 Multiplicity = 1
 8                    0    -3.62466  -1.43489  -0.21213 
 7                    0    -3.25909  -0.27134  -0.05409 
 8                    0    -4.0353    0.67531   0.08097 
 6                    0    -1.7561    0.00572  -0.04462 
 6                    0    -1.36691   1.31462   0.26223 
 7                    0    -0.0807    1.76228   0.41746 
 6                    0     1.20083   0.99491   0.3755 
 1                    0     1.87069   1.49236   1.12379 
 6                    0     1.95104   1.04785  -0.97919 
 6                    0     3.36509   0.4614   -0.80456 
 6                    0     3.3095   -0.95514  -0.21092 
 6                    0     2.47436  -0.99012   1.08705 
 6                    0     1.03491  -0.45569   0.85206 
 1                    0     0.49192  -0.49755   1.82525 
 7                    0     0.37309  -1.32443  -0.12407 
 6                    0    -0.87036  -1.12885  -0.41651 
 1                    0    -2.15527   2.06191   0.4515 
 1                    0     0.1533    2.74851   0.28017 
 1                    0     1.39393   0.47257  -1.74885 
 1                    0     2.03352   2.09843  -1.33008 
 1                    0     3.88997   0.43854  -1.78462 
 1                    0     3.94891   1.11471  -0.11828 
 1                    0     2.85589  -1.64419  -0.95867 
 1                    0     4.33982  -1.31843  -0.00419 
 1                    0     2.4201   -2.03668   1.45917 
 1                    0     2.97492  -0.37885   1.86689 
 1                    0    -1.37239  -1.88994  -1.03325 
 
 The following ModRedundant input section has been read:
 D       5       6       7       9 F                                           
 D       1       2       4      16 F                                           
 D       7      13      15      16 F                                           
 D       7       9      10      11 F                                           
 D       9      10      11      12 F                                           
 D       6       7      13      15 F                                           
 

 GradGradGradGradGradGradGradGradGradGradGradGradGradGradGradGradGradGrad
 Berny optimization.
 Initialization pass.
                           ----------------------------
                           !    Initial Parameters    !
                           ! (Angstroms and Degrees)  !
 --------------------------                            --------------------------
 ! Name  Definition              Value          Derivative Info.                !
 --------------------------------------------------------------------------------
 ! R1    R(1,2)                  1.2298         estimate D2E/DX2                !
 ! R2    R(2,3)                  1.2316         estimate D2E/DX2                !
 ! R3    R(2,4)                  1.5283         estimate D2E/DX2                !
 ! R4    R(4,5)                  1.3996         estimate D2E/DX2                !
 ! R5    R(4,16)                 1.4866         estimate D2E/DX2                !
 ! R6    R(5,6)                  1.3707         estimate D2E/DX2                !
 ! R7    R(5,17)                 1.1026         estimate D2E/DX2                !
 ! R8    R(6,7)                  1.4943         estimate D2E/DX2                !
 ! R9    R(6,18)                 1.0229         estimate D2E/DX2                !
 ! R10   R(7,8)                  1.1208         estimate D2E/DX2                !
 ! R11   R(7,9)                  1.5495         estimate D2E/DX2                !
 ! R12   R(7,13)                 1.5359         estimate D2E/DX2                !
 ! R13   R(9,10)                 1.5408         estimate D2E/DX2                !
 ! R14   R(9,19)                 1.1107         estimate D2E/DX2                !
 ! R15   R(9,20)                 1.1107         estimate D2E/DX2                !
 ! R16   R(10,11)                1.5369         estimate D2E/DX2                !
 ! R17   R(10,21)                1.112          estimate D2E/DX2                !
 ! R18   R(10,22)                1.1129         estimate D2E/DX2                !
 ! R19   R(11,12)                1.5438         estimate D2E/DX2                !
 ! R20   R(11,23)                1.1134         estimate D2E/DX2                !
 ! R21   R(11,24)                1.1119         estimate D2E/DX2                !
 ! R22   R(12,13)                1.5533         estimate D2E/DX2                !
 ! R23   R(12,25)                1.1121         estimate D2E/DX2                !
 ! R24   R(12,26)                1.1101         estimate D2E/DX2                !
 ! R25   R(13,14)                1.1152         estimate D2E/DX2                !
 ! R26   R(13,15)                1.4648         estimate D2E/DX2                !
 ! R27   R(15,16)                1.2923         estimate D2E/DX2                !
 ! R28   R(16,27)                1.1008         estimate D2E/DX2                !
 ! A1    A(1,2,3)              123.6387         estimate D2E/DX2                !
 ! A2    A(1,2,4)              117.6864         estimate D2E/DX2                !
 ! A3    A(3,2,4)              118.67           estimate D2E/DX2                !
 ! A4    A(2,4,5)              116.3821         estimate D2E/DX2                !
 ! A5    A(2,4,16)             116.4885         estimate D2E/DX2                !
 ! A6    A(5,4,16)             127.0776         estimate D2E/DX2                !
 ! A7    A(4,5,6)              126.2416         estimate D2E/DX2                !
 ! A8    A(4,5,17)             118.2057         estimate D2E/DX2                !
 ! A9    A(6,5,17)             115.4757         estimate D2E/DX2                !
 ! A10   A(5,6,7)              129.3348         estimate D2E/DX2                !
 ! A11   A(5,6,18)             120.9547         estimate D2E/DX2                !
 ! A12   A(7,6,18)             107.168          estimate D2E/DX2                !
 ! A13   A(6,7,8)              105.4205         estimate D2E/DX2                !
 ! A14   A(6,7,9)              114.9761         estimate D2E/DX2                !
 ! A15   A(6,7,13)             112.5606         estimate D2E/DX2                !
 ! A16   A(8,7,9)              106.2118         estimate D2E/DX2                !
 ! A17   A(8,7,13)             106.058          estimate D2E/DX2                !
 ! A18   A(9,7,13)             110.8462         estimate D2E/DX2                !
 ! A19   A(7,9,10)             109.406          estimate D2E/DX2                !
 ! A20   A(7,9,19)             110.1995         estimate D2E/DX2                !
 ! A21   A(7,9,20)             110.1501         estimate D2E/DX2                !
 ! A22   A(10,9,19)            109.982          estimate D2E/DX2                !
 ! A23   A(10,9,20)            109.1277         estimate D2E/DX2                !
 ! A24   A(19,9,20)            107.953          estimate D2E/DX2                !
 ! A25   A(9,10,11)            111.1859         estimate D2E/DX2                !
 ! A26   A(9,10,21)            109.9456         estimate D2E/DX2                !
 ! A27   A(9,10,22)            109.1408         estimate D2E/DX2                !
 ! A28   A(11,10,21)           109.7887         estimate D2E/DX2                !
 ! A29   A(11,10,22)           108.7738         estimate D2E/DX2                !
 ! A30   A(21,10,22)           107.9347         estimate D2E/DX2                !
 ! A31   A(10,11,12)           111.4195         estimate D2E/DX2                !
 ! A32   A(10,11,23)           109.0097         estimate D2E/DX2                !
 ! A33   A(10,11,24)           109.8431         estimate D2E/DX2                !
 ! A34   A(12,11,23)           109.2823         estimate D2E/DX2                !
 ! A35   A(12,11,24)           109.7277         estimate D2E/DX2                !
 ! A36   A(23,11,24)           107.4686         estimate D2E/DX2                !
 ! A37   A(11,12,13)           111.4881         estimate D2E/DX2                !
 ! A38   A(11,12,25)           109.2109         estimate D2E/DX2                !
 ! A39   A(11,12,26)           109.5248         estimate D2E/DX2                !
 ! A40   A(13,12,25)           109.2197         estimate D2E/DX2                !
 ! A41   A(13,12,26)           109.5526         estimate D2E/DX2                !
 ! A42   A(25,12,26)           107.7662         estimate D2E/DX2                !
 ! A43   A(7,13,12)            105.7704         estimate D2E/DX2                !
 ! A44   A(7,13,14)            111.0281         estimate D2E/DX2                !
 ! A45   A(7,13,15)            113.7157         estimate D2E/DX2                !
 ! A46   A(12,13,14)           107.8345         estimate D2E/DX2                !
 ! A47   A(12,13,15)           108.3885         estimate D2E/DX2                !
 ! A48   A(14,13,15)           109.8335         estimate D2E/DX2                !
 ! A49   A(13,15,16)           119.7229         estimate D2E/DX2                !
 ! A50   A(4,16,15)            129.212          estimate D2E/DX2                !
 ! A51   A(4,16,27)            113.3352         estimate D2E/DX2                !
 ! A52   A(15,16,27)           117.4516         estimate D2E/DX2                !
 ! D1    D(1,2,4,5)           -174.1716         estimate D2E/DX2                !
 ! D2    D(1,2,4,16)             8.2585         Frozen                          !
 ! D3    D(3,2,4,5)              6.6091         estimate D2E/DX2                !
 ! D4    D(3,2,4,16)          -170.9609         estimate D2E/DX2                !
 ! D5    D(2,4,5,6)            175.2008         estimate D2E/DX2                !
 ! D6    D(2,4,5,17)            -1.4527         estimate D2E/DX2                !
 ! D7    D(16,4,5,6)            -7.5255         estimate D2E/DX2                !
 ! D8    D(16,4,5,17)          175.8209         estimate D2E/DX2                !
 ! D9    D(2,4,16,15)         -156.9821         estimate D2E/DX2                !
 ! D10   D(2,4,16,27)           23.4395         estimate D2E/DX2                !
 ! D11   D(5,4,16,15)           25.7468         estimate D2E/DX2                !
 ! D12   D(5,4,16,27)         -153.8317         estimate D2E/DX2                !
 ! D13   D(4,5,6,7)             -3.4889         estimate D2E/DX2                !
 ! D14   D(4,5,6,18)           155.9893         estimate D2E/DX2                !
 ! D15   D(17,5,6,7)           173.2445         estimate D2E/DX2                !
 ! D16   D(17,5,6,18)          -27.2773         estimate D2E/DX2                !
 ! D17   D(5,6,7,8)           -145.2821         estimate D2E/DX2                !
 ! D18   D(5,6,7,9)             98.1041         Frozen                          !
 ! D19   D(5,6,7,13)           -30.1116         estimate D2E/DX2                !
 ! D20   D(18,6,7,8)            53.0579         estimate D2E/DX2                !
 ! D21   D(18,6,7,9)           -63.5559         estimate D2E/DX2                !
 ! D22   D(18,6,7,13)          168.2283         estimate D2E/DX2                !
 ! D23   D(6,7,9,10)           168.9263         estimate D2E/DX2                !
 ! D24   D(6,7,9,19)           -70.0321         estimate D2E/DX2                !
 ! D25   D(6,7,9,20)            48.9708         estimate D2E/DX2                !
 ! D26   D(8,7,9,10)            52.7643         estimate D2E/DX2                !
 ! D27   D(8,7,9,19)           173.8059         estimate D2E/DX2                !
 ! D28   D(8,7,9,20)           -67.1912         estimate D2E/DX2                !
 ! D29   D(13,7,9,10)          -62.0045         estimate D2E/DX2                !
 ! D30   D(13,7,9,19)           59.0372         estimate D2E/DX2                !
 ! D31   D(13,7,9,20)          178.0401         estimate D2E/DX2                !
 ! D32   D(6,7,13,12)         -166.1556         estimate D2E/DX2                !
 ! D33   D(6,7,13,14)          -49.4427         estimate D2E/DX2                !
 ! D34   D(6,7,13,15)           75.022          Frozen                          !
 ! D35   D(8,7,13,12)          -51.3709         estimate D2E/DX2                !
 ! D36   D(8,7,13,14)           65.342          estimate D2E/DX2                !
 ! D37   D(8,7,13,15)         -170.1933         estimate D2E/DX2                !
 ! D38   D(9,7,13,12)           63.4941         estimate D2E/DX2                !
 ! D39   D(9,7,13,14)         -179.793          estimate D2E/DX2                !
 ! D40   D(9,7,13,15)          -55.3283         estimate D2E/DX2                !
 ! D41   D(7,9,10,11)           54.8121         Frozen                          !
 ! D42   D(7,9,10,21)          176.6096         estimate D2E/DX2                !
 ! D43   D(7,9,10,22)          -65.1803         estimate D2E/DX2                !
 ! D44   D(19,9,10,11)         -66.3614         estimate D2E/DX2                !
 ! D45   D(19,9,10,21)          55.4361         estimate D2E/DX2                !
 ! D46   D(19,9,10,22)         173.6462         estimate D2E/DX2                !
 ! D47   D(20,9,10,11)         175.3927         estimate D2E/DX2                !
 ! D48   D(20,9,10,21)         -62.8098         estimate D2E/DX2                !
 ! D49   D(20,9,10,22)          55.4003         estimate D2E/DX2                !
 ! D50   D(9,10,11,12)         -52.8223         Frozen                          !
 ! D51   D(9,10,11,23)          67.8638         estimate D2E/DX2                !
 ! D52   D(9,10,11,24)        -174.6286         estimate D2E/DX2                !
 ! D53   D(21,10,11,12)       -174.7111         estimate D2E/DX2                !
 ! D54   D(21,10,11,23)        -54.025          estimate D2E/DX2                !
 ! D55   D(21,10,11,24)         63.4827         estimate D2E/DX2                !
 ! D56   D(22,10,11,12)         67.3876         estimate D2E/DX2                !
 ! D57   D(22,10,11,23)       -171.9263         estimate D2E/DX2                !
 ! D58   D(22,10,11,24)        -54.4187         estimate D2E/DX2                !
 ! D59   D(10,11,12,13)         56.6827         estimate D2E/DX2                !
 ! D60   D(10,11,12,25)        177.4678         estimate D2E/DX2                !
 ! D61   D(10,11,12,26)        -64.731          estimate D2E/DX2                !
 ! D62   D(23,11,12,13)        -63.8434         estimate D2E/DX2                !
 ! D63   D(23,11,12,25)         56.9417         estimate D2E/DX2                !
 ! D64   D(23,11,12,26)        174.7429         estimate D2E/DX2                !
 ! D65   D(24,11,12,13)        178.5558         estimate D2E/DX2                !
 ! D66   D(24,11,12,25)        -60.6591         estimate D2E/DX2                !
 ! D67   D(24,11,12,26)         57.142          estimate D2E/DX2                !
 ! D68   D(11,12,13,7)         -60.55           estimate D2E/DX2                !
 ! D69   D(11,12,13,14)       -179.4016         estimate D2E/DX2                !
 ! D70   D(11,12,13,15)         61.7466         estimate D2E/DX2                !
 ! D71   D(25,12,13,7)         178.6701         estimate D2E/DX2                !
 ! D72   D(25,12,13,14)         59.8185         estimate D2E/DX2                !
 ! D73   D(25,12,13,15)        -59.0334         estimate D2E/DX2                !
 ! D74   D(26,12,13,7)          60.8476         estimate D2E/DX2                !
 ! D75   D(26,12,13,14)        -58.004          estimate D2E/DX2                !
 ! D76   D(26,12,13,15)       -176.8558         estimate D2E/DX2                !
 ! D77   D(7,13,15,16)         -67.1599         Frozen                          !
 ! D78   D(12,13,15,16)        175.5264         estimate D2E/DX2                !
 ! D79   D(14,13,15,16)         57.9454         estimate D2E/DX2                !
 ! D80   D(13,15,16,4)           9.5312         estimate D2E/DX2                !
 ! D81   D(13,15,16,27)       -170.905          estimate D2E/DX2                !
 --------------------------------------------------------------------------------
 Trust Radius=3.00D-01 FncErr=1.00D-07 GrdErr=1.00D-07 EigMax=2.50D+02 EigMin=1.00D-04
 Number of steps in this run=     20 maximum allowed number of steps=    162.
 GradGradGradGradGradGradGradGradGradGradGradGradGradGradGradGradGradGrad

                          Input orientation:                          
 ---------------------------------------------------------------------
 Center     Atomic      Atomic             Coordinates (Angstroms)
 Number     Number       Type             X           Y           Z
 ---------------------------------------------------------------------
      1          8           0       -3.624660   -1.434890   -0.212130
      2          7           0       -3.259090   -0.271340   -0.054090
      3          8           0       -4.035300    0.675310    0.080970
      4          6           0       -1.756100    0.005720   -0.044620
      5          6           0       -1.366910    1.314620    0.262230
      6          7           0       -0.080700    1.762280    0.417460
      7          6           0        1.200830    0.994910    0.375500
      8          1           0        1.870690    1.492360    1.123790
      9          6           0        1.951040    1.047850   -0.979190
     10          6           0        3.365090    0.461400   -0.804560
     11          6           0        3.309500   -0.955140   -0.210920
     12          6           0        2.474360   -0.990120    1.087050
     13          6           0        1.034910   -0.455690    0.852060
     14          1           0        0.491920   -0.497550    1.825250
     15          7           0        0.373090   -1.324430   -0.124070
     16          6           0       -0.870360   -1.128850   -0.416510
     17          1           0       -2.155270    2.061910    0.451500
     18          1           0        0.153300    2.748510    0.280170
     19          1           0        1.393930    0.472570   -1.748850
     20          1           0        2.033520    2.098430   -1.330080
     21          1           0        3.889970    0.438540   -1.784620
     22          1           0        3.948910    1.114710   -0.118280
     23          1           0        2.855890   -1.644190   -0.958670
     24          1           0        4.339820   -1.318430   -0.004190
     25          1           0        2.420100   -2.036680    1.459170
     26          1           0        2.974920   -0.378850    1.866890
     27          1           0       -1.372390   -1.889940   -1.033250
 ---------------------------------------------------------------------
                    Distance matrix (angstroms):
                    1          2          3          4          5
     1  O    0.000000
     2  N    1.229824   0.000000
     3  O    2.169672   1.231621   0.000000
     4  C    2.365361   1.528343   2.378839   0.000000
     5  C    3.589186   2.489111   2.749887   1.399587   0.000000
     6  N    4.814346   3.802648   4.115044   2.471029   1.370705
     7  C    5.434574   4.656052   5.254136   3.146177   2.590045
     8  H    6.368072   5.550917   6.052748   4.090096   3.354986
     9  C    6.151488   5.453579   6.090894   3.962618   3.552616
    10  C    7.266601   6.706704   7.456252   5.197282   4.925226
    11  C    6.950736   6.605948   7.529253   5.158606   5.219626
    12  C    6.251698   5.889932   6.794228   4.491009   4.554943
    13  C    4.878824   4.392440   5.251740   2.967604   3.041486
    14  H    4.687830   4.201567   4.991376   2.967034   3.030221
    15  N    4.000245   3.782410   4.845091   2.511785   3.184558
    16  C    2.778777   2.563728   3.676863   1.486636   2.584143
    17  H    3.850600   2.630227   2.365262   2.152531   1.102623
    18  H    5.658284   4.568986   4.677842   3.357707   2.089833
    19  H    5.584457   5.007615   5.732877   3.611791   3.517915
    20  H    6.763813   5.937649   6.391159   4.515868   3.835718
    21  H    7.902666   7.389704   8.145329   5.923938   5.708931
    22  H    7.991760   7.340335   7.998774   5.812265   5.333169
    23  H    6.526765   6.332137   7.345028   4.982785   5.298792
    24  H    7.968045   7.670875   8.609581   6.238209   6.290525
    25  H    6.300359   6.136740   7.136282   4.886044   5.196664
    26  H    6.999429   6.524155   7.310537   5.117061   4.928921
    27  H    2.440088   2.671752   3.861746   2.172130   3.456516
                    6          7          8          9         10
     6  N    0.000000
     7  C    1.494301   0.000000
     8  H    2.092769   1.120762   0.000000
     9  C    2.566906   1.549452   2.150946   0.000000
    10  C    3.880604   2.522141   2.648517   1.540765   0.000000
    11  C    4.390067   2.931394   3.137177   2.539217   1.536907
    12  C    3.814759   2.463438   2.555088   2.948989   2.545289
    13  C    2.520487   1.535864   2.137116   2.540355   3.002529
    14  H    2.723343   2.198128   2.520475   3.518832   4.011308
    15  N    3.166537   2.512780   3.425532   2.974705   3.550256
    16  C    3.110900   3.070418   4.093485   3.607621   4.540761
    17  H    2.096372   3.522453   4.121252   4.465084   5.883340
    18  H    1.022866   2.044876   2.288894   2.776707   4.089389
    19  H    2.920751   2.196131   3.085342   1.110718   2.185699
    20  H    2.763480   2.195480   2.532847   1.110696   2.174653
    21  H    4.729446   3.493872   3.694168   2.186190   1.111998
    22  H    4.116324   2.794658   2.450379   2.176493   1.112942
    23  H    4.703332   3.388817   3.891684   2.840115   2.171761
    24  H    5.404587   3.917775   3.907618   3.500882   2.181395
    25  H    4.665968   3.442600   3.587263   3.959791   3.501126
    26  H    4.002761   2.694226   2.296290   3.344245   2.827525
    27  H    4.136633   4.114413   5.158521   4.436070   5.293847
                   11         12         13         14         15
    11  C    0.000000
    12  C    1.543829   0.000000
    13  C    2.559909   1.553336   0.000000
    14  H    3.506299   2.172011   1.115208   0.000000
    15  N    2.960814   2.448246   1.464768   2.120778   0.000000
    16  C    4.188517   3.669753   2.385889   2.698117   1.292262
    17  H    6.277348   5.581423   4.083627   3.930094   4.265112
    18  H    4.890786   4.473894   3.372120   3.610934   4.098848
    19  H    2.841301   3.368845   2.784833   3.811685   2.628922
    20  H    3.493556   3.946644   3.504638   4.367121   3.990922
    21  H    2.180785   3.505925   3.987869   5.045213   4.270121
    22  H    2.168342   2.838561   3.449509   4.281060   4.328502
    23  H    1.113410   2.181363   2.829707   3.827969   2.638769
    24  H    1.111880   2.185986   3.521351   4.339012   3.968546
    25  H    2.179441   1.112073   2.187890   2.494156   2.684064
    26  H    2.182051   1.110118   2.190759   2.486184   3.409921
    27  H    4.844602   4.483618   3.377360   3.685841   2.047709
                   16         17         18         19         20
    16  C    0.000000
    17  H    3.547589   0.000000
    18  H    4.070278   2.414595   0.000000
    19  H    3.076798   4.468150   3.291806   0.000000
    20  H    4.436492   4.552068   2.559441   1.796626   0.000000
    21  H    5.195111   6.646841   4.854073   2.496528   2.531452
    22  H    5.324271   6.203455   4.151472   3.098229   2.470806
    23  H    3.800586   6.390265   5.304199   2.691168   3.849863
    24  H    5.229907   7.336249   5.843613   3.863908   4.330351
    25  H    3.894799   6.224777   5.424617   4.200090   5.002849
    26  H    4.534600   5.854869   4.501067   4.037081   4.152562
    27  H    1.100754   4.293542   5.056483   3.707568   5.253135
                   21         22         23         24         25
    21  H    0.000000
    22  H    1.799269   0.000000
    23  H    2.467646   3.084230   0.000000
    24  H    2.541503   2.466981   1.794213   0.000000
    25  H    4.336981   3.841467   2.487953   2.518458   0.000000
    26  H    3.852138   2.668385   3.098232   2.499341   1.795121
    27  H    5.803345   6.179104   4.236072   5.832232   4.540558
                   26         27
    26  H    0.000000
    27  H    5.439973   0.000000
 Symmetry turned off by external request.
 Stoichiometry    C9H13N3O2
 Framework group  C1[X(C9H13N3O2)]
 Deg. of freedom    75
 Full point group                 C1      NOp   1
 Rotational constants (GHZ):           1.6722021           0.4000309           0.3552058
 Standard basis: 6-31G(d) (6D, 7F)
   236 basis functions,   444 primitive gaussians,   236 cartesian basis functions
    52 alpha electrons       52 beta electrons
       nuclear repulsion energy       917.3525670746 Hartrees.
 NAtoms=   27 NActive=   27 NUniq=   27 SFac= 1.00D+00 NAtFMM=   60 NAOKFM=F Big=F
 Integral buffers will be    131072 words long.
 Raffenetti 1 integral format.
 Two-electron integral symmetry is turned off.
 One-electron integrals computed using PRISM.
 NBasis=   236 RedAO= T EigKep=  1.27D-03  NBF=   236
 NBsUse=   236 1.00D-06 EigRej= -1.00D+00 NBFU=   236
 ExpMin= 1.61D-01 ExpMax= 5.48D+03 ExpMxC= 8.25D+02 IAcc=3 IRadAn=         5 AccDes= 0.00D+00
 Harris functional with IExCor=  205 and IRadAn=       5 diagonalized for initial guess.
 HarFok:  IExCor=  205 AccDes= 0.00D+00 IRadAn=         5 IDoV= 1 UseB2=F ITyADJ=14
 ICtDFT=  3500011 ScaDFX=  1.000000  1.000000  1.000000  1.000000
 FoFCou: FMM=F IPFlag=           0 FMFlag=      100000 FMFlg1=           0
         NFxFlg=           0 DoJE=T BraDBF=F KetDBF=T FulRan=T
         wScrn=  0.000000 ICntrl=       500 IOpCl=  0 I1Cent=   200000004 NGrid=           0
         NMat0=    1 NMatS0=      1 NMatT0=    0 NMatD0=    1 NMtDS0=    0 NMtDT0=    0
 Symmetry not used in FoFCou.
 Keep R1 ints in memory in canonical form, NReq=397720213.
 Requested convergence on RMS density matrix=1.00D-08 within 128 cycles.
 Requested convergence on MAX density matrix=1.00D-06.
 Requested convergence on             energy=1.00D-06.
 No special actions if energy rises.
 SCF Done:  E(RHF) =  -661.281646769     A.U. after   16 cycles
            NFock= 16  Conv=0.77D-08     -V/T= 2.0037
 ExpMin= 1.61D-01 ExpMax= 5.48D+03 ExpMxC= 8.25D+02 IAcc=3 IRadAn=         5 AccDes= 0.00D+00
 HarFok:  IExCor=  205 AccDes= 0.00D+00 IRadAn=         5 IDoV=-2 UseB2=F ITyADJ=14
 ICtDFT= 12500011 ScaDFX=  1.000000  1.000000  1.000000  1.000000
 Range of M.O.s used for correlation:    15   236
 NBasis=   236 NAE=    52 NBE=    52 NFC=    14 NFV=     0
 NROrb=    222 NOA=    38 NOB=    38 NVA=   184 NVB=   184
 Fully direct method using O(ONN) memory.
 JobTyp=1 Pass  1:  I=  15 to  52 NPSUse=  4 ParTrn=T ParDer=T DoDerP=T.
 Spin components of T(2) and E(2):
     alpha-alpha T2 =       0.9198854431D-01 E2=     -0.2717821049D+00
     alpha-beta  T2 =       0.4995937750D+00 E2=     -0.1493675532D+01
     beta-beta   T2 =       0.9198854431D-01 E2=     -0.2717821049D+00
 ANorm=    0.1297524899D+01
 E2 =    -0.2037239741D+01 EUMP2 =    -0.66331888651083D+03
          IDoAtm=111111111111111111111111111
          Differentiating once with respect to electric field.
                with respect to dipole field.
          Differentiating once with respect to nuclear coordinates.
 Keep R1 ints in memory in canonical form, NReq=397723379.
          There are     1 degrees of freedom in the 1st order CPHF.  IDoFFX=0 NUNeed=     1.
 LinEq1:  Iter=  0 NonCon=     1 RMS=4.62D-03 Max=1.12D-01 NDo=     1
 AX will form     1 AO Fock derivatives at one time.
 LinEq1:  Iter=  1 NonCon=     1 RMS=1.57D-03 Max=2.80D-02 NDo=     1
 LinEq1:  Iter=  2 NonCon=     1 RMS=6.41D-04 Max=1.81D-02 NDo=     1
 LinEq1:  Iter=  3 NonCon=     1 RMS=2.94D-04 Max=9.15D-03 NDo=     1
 LinEq1:  Iter=  4 NonCon=     1 RMS=9.04D-05 Max=2.12D-03 NDo=     1
 LinEq1:  Iter=  5 NonCon=     1 RMS=3.75D-05 Max=1.87D-03 NDo=     1
 LinEq1:  Iter=  6 NonCon=     1 RMS=1.54D-05 Max=5.81D-04 NDo=     1
 LinEq1:  Iter=  7 NonCon=     1 RMS=5.90D-06 Max=9.92D-05 NDo=     1
 LinEq1:  Iter=  8 NonCon=     1 RMS=2.35D-06 Max=5.87D-05 NDo=     1
 LinEq1:  Iter=  9 NonCon=     1 RMS=8.73D-07 Max=2.49D-05 NDo=     1
 LinEq1:  Iter= 10 NonCon=     1 RMS=4.28D-07 Max=1.50D-05 NDo=     1
 LinEq1:  Iter= 11 NonCon=     1 RMS=1.53D-07 Max=5.71D-06 NDo=     1
 LinEq1:  Iter= 12 NonCon=     1 RMS=5.37D-08 Max=7.84D-07 NDo=     1
 LinEq1:  Iter= 13 NonCon=     1 RMS=1.69D-08 Max=3.07D-07 NDo=     1
 LinEq1:  Iter= 14 NonCon=     1 RMS=5.27D-09 Max=1.31D-07 NDo=     1
 LinEq1:  Iter= 15 NonCon=     1 RMS=1.94D-09 Max=4.56D-08 NDo=     1
 LinEq1:  Iter= 16 NonCon=     1 RMS=7.34D-10 Max=1.30D-08 NDo=     1
 LinEq1:  Iter= 17 NonCon=     1 RMS=2.46D-10 Max=3.81D-09 NDo=     1
 LinEq1:  Iter= 18 NonCon=     1 RMS=8.58D-11 Max=1.06D-09 NDo=     1
 LinEq1:  Iter= 19 NonCon=     0 RMS=2.88D-11 Max=3.92D-10 NDo=     1
 Linear equations converged to 1.000D-10 1.000D-09 after    19 iterations.
 End of Minotr F.D. properties file   721 does not exist.
 End of Minotr F.D. properties file   722 does not exist.
 End of Minotr F.D. properties file   788 does not exist.

 **********************************************************************

            Population analysis using the SCF Density.

 **********************************************************************

 Alpha  occ. eigenvalues --  -20.59812 -20.59382 -15.85272 -15.63478 -15.56730
 Alpha  occ. eigenvalues --  -11.35908 -11.30451 -11.30104 -11.30062 -11.27668
 Alpha  occ. eigenvalues --  -11.24639 -11.23885 -11.23387 -11.22844  -1.58471
 Alpha  occ. eigenvalues --   -1.37971  -1.28653  -1.22691  -1.13288  -1.08376
 Alpha  occ. eigenvalues --   -1.01805  -1.00687  -0.93618  -0.88958  -0.84936
 Alpha  occ. eigenvalues --   -0.81536  -0.78005  -0.76994  -0.74340  -0.71147
 Alpha  occ. eigenvalues --   -0.70311  -0.69771  -0.67390  -0.64340  -0.63249
 Alpha  occ. eigenvalues --   -0.61691  -0.60274  -0.57423  -0.56500  -0.54867
 Alpha  occ. eigenvalues --   -0.53690  -0.50707  -0.49469  -0.48491  -0.47820
 Alpha  occ. eigenvalues --   -0.47699  -0.46167  -0.45665  -0.44006  -0.42094
 Alpha  occ. eigenvalues --   -0.39824  -0.33752
 Alpha virt. eigenvalues --    0.07423   0.11793   0.18018   0.21396   0.23448
 Alpha virt. eigenvalues --    0.24315   0.26319   0.27874   0.28553   0.28874
 Alpha virt. eigenvalues --    0.29899   0.31122   0.31835   0.32302   0.33334
 Alpha virt. eigenvalues --    0.33804   0.34263   0.35477   0.37577   0.38590
 Alpha virt. eigenvalues --    0.40586   0.41646   0.44305   0.45236   0.45606
 Alpha virt. eigenvalues --    0.46215   0.49743   0.53193   0.57563   0.59018
 Alpha virt. eigenvalues --    0.63312   0.69058   0.69213   0.72245   0.74041
 Alpha virt. eigenvalues --    0.74891   0.75663   0.75861   0.77878   0.79160
 Alpha virt. eigenvalues --    0.80585   0.83600   0.84899   0.85364   0.87942
 Alpha virt. eigenvalues --    0.89046   0.90255   0.90718   0.91882   0.93898
 Alpha virt. eigenvalues --    0.95077   0.97210   0.98965   1.00445   1.01959
 Alpha virt. eigenvalues --    1.02769   1.05073   1.06536   1.07027   1.08717
 Alpha virt. eigenvalues --    1.09615   1.10481   1.11454   1.12027   1.13246
 Alpha virt. eigenvalues --    1.13862   1.14131   1.15486   1.16327   1.17206
 Alpha virt. eigenvalues --    1.18017   1.20091   1.21321   1.22355   1.23021
 Alpha virt. eigenvalues --    1.23735   1.24325   1.25498   1.27000   1.27602
 Alpha virt. eigenvalues --    1.29348   1.31352   1.33118   1.36235   1.39584
 Alpha virt. eigenvalues --    1.42827   1.46495   1.47387   1.49716   1.52855
 Alpha virt. eigenvalues --    1.55233   1.55603   1.60163   1.61567   1.65951
 Alpha virt. eigenvalues --    1.68445   1.70332   1.72635   1.73482   1.76698
 Alpha virt. eigenvalues --    1.77872   1.80273   1.84426   1.89189   1.92330
 Alpha virt. eigenvalues --    1.93718   1.96088   1.97477   1.99037   2.00993
 Alpha virt. eigenvalues --    2.02910   2.03699   2.06036   2.08947   2.11887
 Alpha virt. eigenvalues --    2.12981   2.13367   2.17681   2.18810   2.19543
 Alpha virt. eigenvalues --    2.20641   2.22035   2.24006   2.25132   2.26260
 Alpha virt. eigenvalues --    2.29307   2.32159   2.33193   2.35468   2.36083
 Alpha virt. eigenvalues --    2.38774   2.39847   2.41754   2.43337   2.46405
 Alpha virt. eigenvalues --    2.48727   2.50360   2.50588   2.56687   2.57221
 Alpha virt. eigenvalues --    2.60703   2.63032   2.65798   2.68533   2.68907
 Alpha virt. eigenvalues --    2.69587   2.69989   2.74650   2.76878   2.80996
 Alpha virt. eigenvalues --    2.84760   2.86798   2.89934   2.91267   2.95110
 Alpha virt. eigenvalues --    2.97533   2.98403   3.02198   3.03880   3.05723
 Alpha virt. eigenvalues --    3.07142   3.13027   3.18984   3.22765   3.27178
 Alpha virt. eigenvalues --    3.31030   3.33853   3.37384   3.43325   3.60122
 Alpha virt. eigenvalues --    4.10140   4.23327   4.32009   4.36487   4.43265
 Alpha virt. eigenvalues --    4.52574   4.59611   4.60258   4.70833   4.77707
 Alpha virt. eigenvalues --    4.96613   4.99261   5.02980   5.09862
          Condensed to atoms (all electrons):
               1          2          3          4          5          6
     1  O    8.300065   0.313031  -0.089792  -0.079120   0.003535  -0.000012
     2  N    0.313031   5.681621   0.309368   0.265788  -0.046631   0.000823
     3  O   -0.089792   0.309368   8.331204  -0.087686   0.008023   0.000467
     4  C   -0.079120   0.265788  -0.087686   5.246891   0.566759  -0.047748
     5  C    0.003535  -0.046631   0.008023   0.566759   4.672399   0.308258
     6  N   -0.000012   0.000823   0.000467  -0.047748   0.308258   7.184262
     7  C    0.000003  -0.000093   0.000002   0.004413  -0.029016   0.199306
     8  H   -0.000000   0.000002  -0.000000  -0.000202   0.002452  -0.048949
     9  C   -0.000000  -0.000003   0.000000   0.000506   0.001475  -0.056781
    10  C   -0.000000   0.000000  -0.000000  -0.000021  -0.000057   0.003350
    11  C   -0.000000  -0.000000  -0.000000  -0.000013   0.000015  -0.000155
    12  C   -0.000000   0.000001  -0.000000  -0.000129  -0.000135   0.003631
    13  C   -0.000018  -0.000020  -0.000002  -0.009952   0.000409  -0.045608
    14  H   -0.000002  -0.000054   0.000000   0.002827   0.004524  -0.005545
    15  N    0.000213   0.001631  -0.000013  -0.061527  -0.003660   0.001858
    16  C    0.003245  -0.026264   0.001967   0.317550  -0.041575  -0.001000
    17  H    0.000131  -0.004243   0.012221  -0.026390   0.376676  -0.033619
    18  H    0.000000  -0.000035   0.000008   0.001051  -0.024773   0.328720
    19  H    0.000000  -0.000000   0.000000  -0.000828   0.000763   0.000510
    20  H    0.000000  -0.000000   0.000000  -0.000028   0.000024  -0.001522
    21  H   -0.000000  -0.000000   0.000000   0.000000   0.000001  -0.000060
    22  H   -0.000000   0.000000  -0.000000  -0.000000  -0.000002  -0.000096
    23  H    0.000000  -0.000000   0.000000   0.000025  -0.000000  -0.000024
    24  H    0.000000   0.000000   0.000000   0.000000  -0.000000   0.000005
    25  H    0.000000  -0.000000   0.000000   0.000019  -0.000001  -0.000072
    26  H    0.000000  -0.000000   0.000000   0.000005  -0.000001  -0.000067
    27  H    0.005515  -0.000261   0.000007  -0.066617   0.002114   0.000034
               7          8          9         10         11         12
     1  O    0.000003  -0.000000  -0.000000  -0.000000  -0.000000  -0.000000
     2  N   -0.000093   0.000002  -0.000003   0.000000  -0.000000   0.000001
     3  O    0.000002  -0.000000   0.000000  -0.000000  -0.000000  -0.000000
     4  C    0.004413  -0.000202   0.000506  -0.000021  -0.000013  -0.000129
     5  C   -0.029016   0.002452   0.001475  -0.000057   0.000015  -0.000135
     6  N    0.199306  -0.048949  -0.056781   0.003350  -0.000155   0.003631
     7  C    5.008940   0.415963   0.341392  -0.049426  -0.007769  -0.064488
     8  H    0.415963   0.545403  -0.059800   0.001399  -0.000303  -0.002860
     9  C    0.341392  -0.059800   5.180538   0.318083  -0.053093  -0.006096
    10  C   -0.049426   0.001399   0.318083   5.126761   0.332757  -0.060278
    11  C   -0.007769  -0.000303  -0.053093   0.332757   5.124390   0.330575
    12  C   -0.064488  -0.002860  -0.006096  -0.060278   0.330575   5.137470
    13  C    0.330412  -0.039722  -0.051498  -0.001561  -0.047936   0.368443
    14  H   -0.040359  -0.000930   0.003862  -0.000390   0.003964  -0.040754
    15  N   -0.058423   0.004008  -0.012949   0.001449  -0.007902  -0.074375
    16  C   -0.002087   0.000005  -0.000825  -0.000033   0.000005   0.002410
    17  H    0.001409  -0.000022  -0.000065   0.000001   0.000000   0.000001
    18  H   -0.028821  -0.002880   0.000846  -0.000120   0.000011  -0.000140
    19  H   -0.034904   0.004043   0.386354  -0.032611  -0.002230   0.000618
    20  H   -0.041742  -0.001834   0.397110  -0.037297   0.004135  -0.000367
    21  H    0.004048  -0.000080  -0.035823   0.400101  -0.035821   0.004216
    22  H   -0.004244   0.003496  -0.045715   0.395986  -0.045649  -0.001207
    23  H    0.000448   0.000033  -0.002002  -0.040042   0.396679  -0.036480
    24  H   -0.000141  -0.000099   0.004400  -0.038509   0.400295  -0.037934
    25  H    0.005005  -0.000007  -0.000371   0.004098  -0.033881   0.395331
    26  H   -0.004456   0.001575   0.001054  -0.002405  -0.042297   0.394693
    27  H   -0.000399   0.000009  -0.000058   0.000005   0.000005  -0.000019
              13         14         15         16         17         18
     1  O   -0.000018  -0.000002   0.000213   0.003245   0.000131   0.000000
     2  N   -0.000020  -0.000054   0.001631  -0.026264  -0.004243  -0.000035
     3  O   -0.000002   0.000000  -0.000013   0.001967   0.012221   0.000008
     4  C   -0.009952   0.002827  -0.061527   0.317550  -0.026390   0.001051
     5  C    0.000409   0.004524  -0.003660  -0.041575   0.376676  -0.024773
     6  N   -0.045608  -0.005545   0.001858  -0.001000  -0.033619   0.328720
     7  C    0.330412  -0.040359  -0.058423  -0.002087   0.001409  -0.028821
     8  H   -0.039722  -0.000930   0.004008   0.000005  -0.000022  -0.002880
     9  C   -0.051498   0.003862  -0.012949  -0.000825  -0.000065   0.000846
    10  C   -0.001561  -0.000390   0.001449  -0.000033   0.000001  -0.000120
    11  C   -0.047936   0.003964  -0.007902   0.000005   0.000000   0.000011
    12  C    0.368443  -0.040754  -0.074375   0.002410   0.000001  -0.000140
    13  C    5.022686   0.402984   0.240754  -0.069284  -0.000044   0.003763
    14  H    0.402984   0.518709  -0.035664  -0.004882   0.000055   0.000008
    15  N    0.240754  -0.035664   6.939608   0.588083  -0.000055  -0.000120
    16  C   -0.069284  -0.004882   0.588083   4.698232   0.001648  -0.000208
    17  H   -0.000044   0.000055  -0.000055   0.001648   0.385011  -0.001987
    18  H    0.003763   0.000008  -0.000120  -0.000208  -0.001987   0.325340
    19  H   -0.006218   0.000065   0.006911   0.002505   0.000011  -0.000128
    20  H    0.003889  -0.000050   0.000084  -0.000032  -0.000002   0.002755
    21  H   -0.000383   0.000009  -0.000031   0.000002  -0.000000  -0.000000
    22  H    0.000307  -0.000044   0.000003  -0.000001   0.000000   0.000002
    23  H   -0.005944   0.000008   0.006836   0.000071   0.000000   0.000000
    24  H    0.004158  -0.000058   0.000045   0.000005   0.000000  -0.000000
    25  H   -0.034417  -0.002675   0.000852  -0.000062  -0.000000   0.000002
    26  H   -0.044892  -0.000877   0.004194  -0.000050   0.000000  -0.000001
    27  H    0.004858  -0.000170  -0.039955   0.402710  -0.000060   0.000002
              19         20         21         22         23         24
     1  O    0.000000   0.000000  -0.000000  -0.000000   0.000000   0.000000
     2  N   -0.000000  -0.000000  -0.000000   0.000000  -0.000000   0.000000
     3  O    0.000000   0.000000   0.000000  -0.000000   0.000000   0.000000
     4  C   -0.000828  -0.000028   0.000000  -0.000000   0.000025   0.000000
     5  C    0.000763   0.000024   0.000001  -0.000002  -0.000000  -0.000000
     6  N    0.000510  -0.001522  -0.000060  -0.000096  -0.000024   0.000005
     7  C   -0.034904  -0.041742   0.004048  -0.004244   0.000448  -0.000141
     8  H    0.004043  -0.001834  -0.000080   0.003496   0.000033  -0.000099
     9  C    0.386354   0.397110  -0.035823  -0.045715  -0.002002   0.004400
    10  C   -0.032611  -0.037297   0.400101   0.395986  -0.040042  -0.038509
    11  C   -0.002230   0.004135  -0.035821  -0.045649   0.396679   0.400295
    12  C    0.000618  -0.000367   0.004216  -0.001207  -0.036480  -0.037934
    13  C   -0.006218   0.003889  -0.000383   0.000307  -0.005944   0.004158
    14  H    0.000065  -0.000050   0.000009  -0.000044   0.000008  -0.000058
    15  N    0.006911   0.000084  -0.000031   0.000003   0.006836   0.000045
    16  C    0.002505  -0.000032   0.000002  -0.000001   0.000071   0.000005
    17  H    0.000011  -0.000002  -0.000000   0.000000   0.000000   0.000000
    18  H   -0.000128   0.002755  -0.000000   0.000002   0.000000  -0.000000
    19  H    0.506257  -0.024008  -0.002588   0.003754   0.001633  -0.000070
    20  H   -0.024008   0.549970  -0.002623  -0.002970  -0.000049  -0.000090
    21  H   -0.002588  -0.002623   0.525997  -0.024682  -0.002807  -0.002065
    22  H    0.003754  -0.002970  -0.024682   0.569062   0.004058  -0.003605
    23  H    0.001633  -0.000049  -0.002807   0.004058   0.509119  -0.025003
    24  H   -0.000070  -0.000090  -0.002065  -0.003605  -0.025003   0.541245
    25  H   -0.000027   0.000011  -0.000086  -0.000082  -0.002077  -0.002389
    26  H    0.000022  -0.000035  -0.000073   0.002462   0.003810  -0.002756
    27  H    0.000075   0.000000  -0.000000   0.000000  -0.000022  -0.000000
              25         26         27
     1  O    0.000000   0.000000   0.005515
     2  N   -0.000000  -0.000000  -0.000261
     3  O    0.000000   0.000000   0.000007
     4  C    0.000019   0.000005  -0.066617
     5  C   -0.000001  -0.000001   0.002114
     6  N   -0.000072  -0.000067   0.000034
     7  C    0.005005  -0.004456  -0.000399
     8  H   -0.000007   0.001575   0.000009
     9  C   -0.000371   0.001054  -0.000058
    10  C    0.004098  -0.002405   0.000005
    11  C   -0.033881  -0.042297   0.000005
    12  C    0.395331   0.394693  -0.000019
    13  C   -0.034417  -0.044892   0.004858
    14  H   -0.002675  -0.000877  -0.000170
    15  N    0.000852   0.004194  -0.039955
    16  C   -0.000062  -0.000050   0.402710
    17  H   -0.000000   0.000000  -0.000060
    18  H    0.000002  -0.000001   0.000002
    19  H   -0.000027   0.000022   0.000075
    20  H    0.000011  -0.000035   0.000000
    21  H   -0.000086  -0.000073  -0.000000
    22  H   -0.000082   0.002462   0.000000
    23  H   -0.002077   0.003810  -0.000022
    24  H   -0.002389  -0.002756  -0.000000
    25  H    0.510254  -0.023099  -0.000011
    26  H   -0.023099   0.561251   0.000001
    27  H   -0.000011   0.000001   0.451436
 Mulliken charges:
               1
     1  O   -0.456794
     2  N    0.505338
     3  O   -0.485775
     4  C   -0.025575
     5  C    0.198425
     6  N   -0.789969
     7  C    0.055029
     8  H    0.179302
     9  C   -0.310540
    10  C   -0.321242
    11  C   -0.315781
    12  C   -0.312127
    13  C   -0.025165
    14  H    0.195439
    15  N   -0.501858
    16  C    0.127865
    17  H    0.289323
    18  H    0.396703
    19  H    0.190091
    20  H    0.154672
    21  H    0.172748
    22  H    0.149167
    23  H    0.191731
    24  H    0.162568
    25  H    0.183684
    26  H    0.151942
    27  H    0.240801
 Sum of Mulliken charges =  -0.00000
 Mulliken charges with hydrogens summed into heavy atoms:
               1
     1  O   -0.456794
     2  N    0.505338
     3  O   -0.485775
     4  C   -0.025575
     5  C    0.487748
     6  N   -0.393266
     7  C    0.234331
     9  C    0.034223
    10  C    0.000673
    11  C    0.038518
    12  C    0.023499
    13  C    0.170273
    15  N   -0.501858
    16  C    0.368665
 Electronic spatial extent (au):  <R**2>=           3126.6438
 Charge=             -0.0000 electrons
 Dipole moment (field-independent basis, Debye):
    X=              5.3831    Y=              4.5196    Z=              0.5823  Tot=              7.0529
 Quadrupole moment (field-independent basis, Debye-Ang):
   XX=           -105.5243   YY=            -80.1248   ZZ=            -82.3190
   XY=             -1.7357   XZ=              0.6397   YZ=              0.1688
 Traceless Quadrupole moment (field-independent basis, Debye-Ang):
   XX=            -16.2016   YY=              9.1979   ZZ=              7.0037
   XY=             -1.7357   XZ=              0.6397   YZ=              0.1688
 Octapole moment (field-independent basis, Debye-Ang**2):
  XXX=            101.6950  YYY=             36.6107  ZZZ=             -4.7715  XYY=             -1.5524
  XXY=             11.3833  XXZ=              1.3371  XZZ=             -8.0689  YZZ=             -2.8740
  YYZ=              1.4292  XYZ=             -1.1422
 Hexadecapole moment (field-independent basis, Debye-Ang**3):
 XXXX=          -3561.7308 YYYY=           -618.9236 ZZZZ=           -300.1330 XXXY=            -37.3377
 XXXZ=             12.2706 YYYX=            -17.6999 YYYZ=             12.8022 ZZZX=             13.9798
 ZZZY=              8.1172 XXYY=           -656.7192 XXZZ=           -543.8526 YYZZ=           -164.8320
 XXYZ=              2.3104 YYXZ=              7.8027 ZZXY=              3.0619
 N-N= 9.173525670746D+02 E-N=-3.380718041800D+03  KE= 6.588556641741D+02
 Calling FoFJK, ICntrl=  10002127 FMM=F ISym2X=0 I1Cent= 0 IOpClX= 0 NMat=1 NMatS=1 NMatT=0.
 -------------------------------------------------------------------
 Center     Atomic                   Forces (Hartrees/Bohr)
 Number     Number              X              Y              Z
 -------------------------------------------------------------------
      1        8           0.002297902   -0.019197677   -0.002728065
      2        7           0.039510390    0.013504254   -0.001572732
      3        8          -0.005157731    0.015975281    0.003369066
      4        6          -0.003196764    0.007813581    0.009011387
      5        6           0.003534938   -0.016419946   -0.003606802
      6        7           0.014821968   -0.008619128   -0.007451020
      7        6          -0.005417301    0.004413078    0.002405828
      8        1          -0.010461941   -0.001595209   -0.007555198
      9        6          -0.003715224    0.000611243   -0.001918427
     10        6           0.002772106   -0.000910847    0.000922487
     11        6          -0.000713779   -0.004585255   -0.002322627
     12        6           0.000518907   -0.008981358   -0.003083057
     13        6           0.008863259   -0.001797542    0.004313858
     14        1           0.000976035    0.004358772   -0.009897641
     15        7           0.000614120   -0.000303694    0.003104092
     16        6          -0.021104167    0.008554103    0.002203604
     17        1           0.007375489   -0.006345102   -0.005180887
     18        1          -0.017833789   -0.001801469    0.005164409
     19        1           0.003113075    0.005808655    0.007740832
     20        1          -0.003193285   -0.007379974    0.002622855
     21        1          -0.004247335    0.002408156    0.009656049
     22        1          -0.004064491   -0.003974322   -0.007353743
     23        1           0.003987374    0.006137655    0.009304134
     24        1          -0.009389749    0.002611628   -0.002055333
     25        1          -0.000786710    0.010592990   -0.002415685
     26        1          -0.004784106   -0.004786284   -0.004321881
     27        1           0.005680810    0.003908412    0.001644496
 -------------------------------------------------------------------
 Cartesian Forces:  Max     0.039510390 RMS     0.008357827

 GradGradGradGradGradGradGradGradGradGradGradGradGradGradGradGradGradGrad
 Berny optimization.
 FormGI is forming the generalized inverse of G from B-inverse, IUseBI=4.
 Internal  Forces:  Max     0.037900729 RMS     0.006914957
 Search for a local minimum.
 Step number   1 out of a maximum of   20
 All quantities printed in internal units (Hartrees-Bohrs-Radians)
 Mixed Optimization -- RFO/linear search
 Second derivative matrix not updated -- first step.
 ITU=  0
     Eigenvalues ---    0.00231   0.00831   0.01061   0.01169   0.01243
     Eigenvalues ---    0.01516   0.01553   0.01935   0.02020   0.02090
     Eigenvalues ---    0.02663   0.03339   0.04411   0.04681   0.04818
     Eigenvalues ---    0.04987   0.05139   0.05304   0.05531   0.06243
     Eigenvalues ---    0.06959   0.07659   0.07699   0.07812   0.07994
     Eigenvalues ---    0.08036   0.08050   0.10451   0.11618   0.12030
     Eigenvalues ---    0.12820   0.15141   0.15397   0.15983   0.16000
     Eigenvalues ---    0.19509   0.22023   0.23204   0.24978   0.25000
     Eigenvalues ---    0.25000   0.25309   0.26112   0.26615   0.27974
     Eigenvalues ---    0.28074   0.28456   0.29577   0.31487   0.31720
     Eigenvalues ---    0.32055   0.32242   0.32291   0.32382   0.32389
     Eigenvalues ---    0.32402   0.32524   0.32526   0.32588   0.33366
     Eigenvalues ---    0.33394   0.33599   0.35377   0.43884   0.44256
     Eigenvalues ---    0.49252   0.67158   0.90414   0.911601000.00000
     Eigenvalues --- 1000.000001000.000001000.000001000.000001000.00000
     Eigenvalues --- 1000.000001000.000001000.000001000.000001000.00000
     Eigenvalues --- 1000.000001000.000001000.000001000.000001000.00000
     Eigenvalues --- 1000.000001000.000001000.000001000.000001000.00000
     Eigenvalues --- 1000.000001000.000001000.000001000.000001000.00000
     Eigenvalues --- 1000.000001000.000001000.000001000.000001000.00000
     Eigenvalues --- 1000.000001000.000001000.000001000.000001000.00000
     Eigenvalues --- 1000.000001000.000001000.000001000.000001000.00000
     Eigenvalues --- 1000.000001000.000001000.000001000.000001000.00000
     Eigenvalues --- 1000.000001000.000001000.000001000.000001000.00000
     Eigenvalues --- 1000.000001000.000001000.000001000.000001000.00000
     Eigenvalues --- 1000.000001000.000001000.000001000.000001000.00000
     Eigenvalues --- 1000.000001000.000001000.000001000.000001000.00000
     Eigenvalues --- 1000.000001000.000001000.000001000.000001000.00000
     Eigenvalues --- 1000.000001000.000001000.000001000.000001000.00000
     Eigenvalues --- 1000.000001000.000001000.000001000.000001000.00000
     Eigenvalues --- 1000.000001000.000001000.000001000.000001000.00000
     Eigenvalues --- 1000.000001000.000001000.000001000.000001000.00000
     Eigenvalues --- 1000.00000
 RFO step:  Lambda=-2.38094060D-02 EMin= 2.30667339D-03
 Linear search not attempted -- first point.
 Iteration  1 RMS(Cart)=  0.05407382 RMS(Int)=  0.00105839
 Iteration  2 RMS(Cart)=  0.00114766 RMS(Int)=  0.00030093
 Iteration  3 RMS(Cart)=  0.00000057 RMS(Int)=  0.00030093
 Iteration  1 RMS(Cart)=  0.00003787 RMS(Int)=  0.00003302
 Iteration  2 RMS(Cart)=  0.00002470 RMS(Int)=  0.00003647
 Iteration  3 RMS(Cart)=  0.00001729 RMS(Int)=  0.00004129
 Iteration  4 RMS(Cart)=  0.00001246 RMS(Int)=  0.00004514
 Iteration  5 RMS(Cart)=  0.00000908 RMS(Int)=  0.00004798
 Iteration  6 RMS(Cart)=  0.00000667 RMS(Int)=  0.00005006
 Iteration  7 RMS(Cart)=  0.00000495 RMS(Int)=  0.00005157
 Iteration  8 RMS(Cart)=  0.00000371 RMS(Int)=  0.00005269
 Iteration  9 RMS(Cart)=  0.00000281 RMS(Int)=  0.00005353
 Iteration 10 RMS(Cart)=  0.00000216 RMS(Int)=  0.00005416
 Iteration 11 RMS(Cart)=  0.00000168 RMS(Int)=  0.00005464
 Iteration 12 RMS(Cart)=  0.00000132 RMS(Int)=  0.00005501
 Iteration 13 RMS(Cart)=  0.00000105 RMS(Int)=  0.00005530
 Iteration 14 RMS(Cart)=  0.00000085 RMS(Int)=  0.00005553
 Variable       Old X    -DE/DX   Delta X   Delta X   Delta X     New X
                                 (Linear)    (Quad)   (Total)
    R1        2.32403   0.01783   0.00000   0.01906   0.01906   2.34309
    R2        2.32743   0.01590   0.00000   0.01713   0.01713   2.34456
    R3        2.88815  -0.03790   0.00000  -0.11860  -0.11860   2.76955
    R4        2.64484  -0.03436   0.00000  -0.07398  -0.07370   2.57114
    R5        2.80933  -0.02222   0.00000  -0.06316  -0.06287   2.74646
    R6        2.59026  -0.02510   0.00000  -0.04858  -0.04848   2.54178
    R7        2.08366  -0.01046   0.00000  -0.02925  -0.02925   2.05441
    R8        2.82382  -0.01933   0.00000  -0.05392  -0.05405   2.76977
    R9        1.93294  -0.00651   0.00000  -0.01407  -0.01407   1.91886
   R10        2.11793  -0.01201   0.00000  -0.03545  -0.03545   2.08249
   R11        2.92804  -0.01304   0.00000  -0.04505  -0.04509   2.88295
   R12        2.90236  -0.00391   0.00000  -0.00720  -0.00721   2.89515
   R13        2.91162  -0.00454   0.00000  -0.01437  -0.01438   2.89724
   R14        2.09895  -0.00993   0.00000  -0.02846  -0.02846   2.07049
   R15        2.09891  -0.00805   0.00000  -0.02305  -0.02305   2.07586
   R16        2.90433  -0.00176   0.00000  -0.00680  -0.00684   2.89749
   R17        2.10137  -0.01056   0.00000  -0.03038  -0.03038   2.07099
   R18        2.10316  -0.00900   0.00000  -0.02596  -0.02596   2.07720
   R19        2.91741  -0.00907   0.00000  -0.02811  -0.02807   2.88934
   R20        2.10404  -0.01167   0.00000  -0.03371  -0.03371   2.07033
   R21        2.10115  -0.00994   0.00000  -0.02857  -0.02857   2.07258
   R22        2.93538  -0.01062   0.00000  -0.03627  -0.03626   2.89912
   R23        2.10151  -0.01074   0.00000  -0.03089  -0.03089   2.07062
   R24        2.09782  -0.00783   0.00000  -0.02239  -0.02239   2.07543
   R25        2.10744  -0.00928   0.00000  -0.02694  -0.02694   2.08050
   R26        2.76801  -0.00548   0.00000  -0.01200  -0.01241   2.75560
   R27        2.44202  -0.00517   0.00000  -0.00694  -0.00699   2.43503
   R28        2.08012  -0.00621   0.00000  -0.01727  -0.01727   2.06285
    A1        2.15790   0.01101   0.00000   0.04031   0.04019   2.19809
    A2        2.05401  -0.00749   0.00000  -0.02725  -0.02736   2.02665
    A3        2.07118  -0.00351   0.00000  -0.01272  -0.01283   2.05835
    A4        2.03125  -0.00791   0.00000  -0.02629  -0.02674   2.00451
    A5        2.03311  -0.00290   0.00000  -0.00791  -0.00840   2.02470
    A6        2.21792   0.01074   0.00000   0.03263   0.03290   2.25082
    A7        2.20333   0.00628   0.00000   0.01854   0.01892   2.22225
    A8        2.06308  -0.00334   0.00000  -0.00985  -0.01018   2.05290
    A9        2.01543  -0.00289   0.00000  -0.00740  -0.00775   2.00768
   A10        2.25732  -0.00601   0.00000  -0.02224  -0.02239   2.23492
   A11        2.11106  -0.01244   0.00000  -0.06900  -0.06971   2.04135
   A12        1.87043   0.01866   0.00000   0.10306   0.10321   1.97365
   A13        1.83993  -0.00197   0.00000  -0.02128  -0.02113   1.81880
   A14        2.00671  -0.00097   0.00000  -0.01215  -0.01208   1.99463
   A15        1.96455   0.00130   0.00000   0.00443   0.00403   1.96858
   A16        1.85375   0.00269   0.00000   0.01977   0.01968   1.87342
   A17        1.85106   0.00092   0.00000   0.01916   0.01888   1.86994
   A18        1.93463  -0.00169   0.00000  -0.00663  -0.00634   1.92830
   A19        1.90950   0.00023   0.00000  -0.00440  -0.00457   1.90493
   A20        1.92334  -0.00082   0.00000  -0.01392  -0.01389   1.90945
   A21        1.92248  -0.00166   0.00000  -0.00672  -0.00671   1.91578
   A22        1.91955  -0.00042   0.00000   0.00575   0.00574   1.92529
   A23        1.90464   0.00303   0.00000   0.02441   0.02440   1.92904
   A24        1.88413  -0.00035   0.00000  -0.00467  -0.00494   1.87920
   A25        1.94056  -0.00081   0.00000   0.00603   0.00597   1.94653
   A26        1.91891  -0.00071   0.00000  -0.00712  -0.00715   1.91176
   A27        1.90487   0.00027   0.00000  -0.00291  -0.00300   1.90187
   A28        1.91617   0.00073   0.00000   0.00686   0.00690   1.92307
   A29        1.89846   0.00174   0.00000   0.01123   0.01123   1.90969
   A30        1.88382  -0.00122   0.00000  -0.01457  -0.01465   1.86917
   A31        1.94464   0.00070   0.00000   0.00472   0.00478   1.94942
   A32        1.90258   0.00059   0.00000   0.00601   0.00599   1.90857
   A33        1.91712   0.00039   0.00000   0.00546   0.00543   1.92255
   A34        1.90734  -0.00125   0.00000  -0.01477  -0.01480   1.89253
   A35        1.91511  -0.00043   0.00000   0.00060   0.00053   1.91564
   A36        1.87568  -0.00004   0.00000  -0.00236  -0.00240   1.87328
   A37        1.94583  -0.00301   0.00000  -0.01555  -0.01558   1.93026
   A38        1.90609   0.00252   0.00000   0.01738   0.01727   1.92336
   A39        1.91157   0.00140   0.00000   0.01118   0.01113   1.92270
   A40        1.90624   0.00028   0.00000  -0.00274  -0.00261   1.90363
   A41        1.91205  -0.00024   0.00000  -0.00586  -0.00581   1.90625
   A42        1.88088  -0.00087   0.00000  -0.00400  -0.00417   1.87670
   A43        1.84604   0.00474   0.00000   0.02376   0.02376   1.86981
   A44        1.93781  -0.00437   0.00000  -0.02986  -0.03031   1.90749
   A45        1.98471   0.00074   0.00000   0.01110   0.01146   1.99617
   A46        1.88207   0.00219   0.00000   0.02934   0.02966   1.91173
   A47        1.89174  -0.00411   0.00000  -0.02796  -0.02809   1.86365
   A48        1.91696   0.00101   0.00000  -0.00406  -0.00399   1.91297
   A49        2.08956  -0.00641   0.00000  -0.01782  -0.01834   2.07122
   A50        2.25517  -0.00519   0.00000  -0.02240  -0.02229   2.23288
   A51        1.97807   0.00537   0.00000   0.02622   0.02576   2.00383
   A52        2.04992  -0.00019   0.00000  -0.00409  -0.00454   2.04538
    D1       -3.03987  -0.00061   0.00000  -0.03578  -0.03509  -3.07495
    D2        0.14414   0.00056   0.00000   0.00000  -0.00000   0.14414
    D3        0.11535  -0.00176   0.00000  -0.06282  -0.06247   0.05288
    D4       -2.98383  -0.00059   0.00000  -0.02704  -0.02739  -3.01122
    D5        3.05783   0.00107   0.00000   0.02902   0.02911   3.08694
    D6       -0.02535  -0.00001   0.00000   0.00121   0.00108  -0.02427
    D7       -0.13134  -0.00071   0.00000  -0.01248  -0.01291  -0.14426
    D8        3.06865  -0.00178   0.00000  -0.04030  -0.04094   3.02771
    D9       -2.73985  -0.00184   0.00000  -0.03732  -0.03788  -2.77774
   D10        0.40910   0.00039   0.00000   0.00727   0.00694   0.41604
   D11        0.44937   0.00006   0.00000   0.00466   0.00497   0.45433
   D12       -2.68487   0.00229   0.00000   0.04924   0.04979  -2.63508
   D13       -0.06089  -0.00072   0.00000  -0.00568  -0.00533  -0.06622
   D14        2.72253   0.00351   0.00000   0.05919   0.05755   2.78007
   D15        3.02369   0.00030   0.00000   0.02137   0.02198   3.04567
   D16       -0.47608   0.00453   0.00000   0.08624   0.08485  -0.39122
   D17       -2.53565  -0.00051   0.00000   0.00368   0.00398  -2.53168
   D18        1.71224  -0.00199   0.00000   0.00000  -0.00000   1.71224
   D19       -0.52555   0.00008   0.00000   0.01622   0.01598  -0.50957
   D20        0.92603   0.00012   0.00000  -0.02949  -0.03027   0.89576
   D21       -1.10926  -0.00136   0.00000  -0.03317  -0.03425  -1.14351
   D22        2.93614   0.00071   0.00000  -0.01695  -0.01827   2.91787
   D23        2.94832   0.00213   0.00000   0.02083   0.02075   2.96907
   D24       -1.22229   0.00125   0.00000   0.01633   0.01629  -1.20600
   D25        0.85470  -0.00073   0.00000  -0.00232  -0.00228   0.85243
   D26        0.92091   0.00331   0.00000   0.04072   0.04062   0.96153
   D27        3.03349   0.00243   0.00000   0.03622   0.03616   3.06965
   D28       -1.17271   0.00046   0.00000   0.01758   0.01760  -1.15511
   D29       -1.08218   0.00158   0.00000   0.01047   0.01041  -1.07177
   D30        1.03039   0.00070   0.00000   0.00597   0.00595   1.03634
   D31        3.10739  -0.00128   0.00000  -0.01268  -0.01261   3.09477
   D32       -2.89996  -0.00080   0.00000  -0.01251  -0.01230  -2.91227
   D33       -0.86294   0.00228   0.00000   0.02068   0.02053  -0.84241
   D34        1.30938   0.00072   0.00000   0.00000  -0.00001   1.30937
   D35       -0.89659  -0.00195   0.00000  -0.02440  -0.02438  -0.92097
   D36        1.14043   0.00113   0.00000   0.00879   0.00845   1.14889
   D37       -2.97043  -0.00043   0.00000  -0.01189  -0.01208  -2.98252
   D38        1.10818   0.00089   0.00000   0.00622   0.00632   1.11450
   D39       -3.13798   0.00397   0.00000   0.03941   0.03915  -3.09883
   D40       -0.96566   0.00242   0.00000   0.01873   0.01861  -0.94705
   D41        0.95665   0.00070   0.00000   0.00000   0.00000   0.95665
   D42        3.08242   0.00060   0.00000   0.00784   0.00781   3.09022
   D43       -1.13761  -0.00114   0.00000  -0.01581  -0.01578  -1.15339
   D44       -1.15822   0.00182   0.00000   0.01640   0.01647  -1.14176
   D45        0.96754   0.00172   0.00000   0.02425   0.02427   0.99181
   D46        3.03070  -0.00001   0.00000   0.00059   0.00068   3.03138
   D47        3.06118   0.00067   0.00000   0.00408   0.00403   3.06521
   D48       -1.09624   0.00057   0.00000   0.01192   0.01183  -1.08440
   D49        0.96692  -0.00117   0.00000  -0.01173  -0.01175   0.95516
   D50       -0.92192  -0.00073   0.00000   0.00000   0.00000  -0.92192
   D51        1.18445  -0.00145   0.00000  -0.01147  -0.01148   1.17297
   D52       -3.04784  -0.00092   0.00000  -0.00765  -0.00767  -3.05552
   D53       -3.04928   0.00021   0.00000   0.00031   0.00032  -3.04897
   D54       -0.94291  -0.00051   0.00000  -0.01116  -0.01116  -0.95408
   D55        1.10798   0.00002   0.00000  -0.00734  -0.00736   1.10062
   D56        1.17613   0.00023   0.00000   0.00738   0.00741   1.18355
   D57       -3.00068  -0.00048   0.00000  -0.00408  -0.00407  -3.00475
   D58       -0.94978   0.00004   0.00000  -0.00027  -0.00026  -0.95005
   D59        0.98930  -0.00096   0.00000  -0.01328  -0.01329   0.97601
   D60        3.09740  -0.00086   0.00000  -0.01509  -0.01520   3.08220
   D61       -1.12977   0.00037   0.00000  -0.00328  -0.00324  -1.13301
   D62       -1.11428  -0.00132   0.00000  -0.01402  -0.01399  -1.12827
   D63        0.99382  -0.00122   0.00000  -0.01583  -0.01591   0.97791
   D64        3.04984   0.00001   0.00000  -0.00402  -0.00395   3.04589
   D65        3.11639  -0.00029   0.00000  -0.00283  -0.00282   3.11356
   D66       -1.05870  -0.00019   0.00000  -0.00464  -0.00473  -1.06344
   D67        0.99732   0.00104   0.00000   0.00717   0.00723   1.00454
   D68       -1.05680   0.00010   0.00000   0.00442   0.00447  -1.05232
   D69       -3.13115   0.00161   0.00000   0.01207   0.01172  -3.11943
   D70        1.07768   0.00144   0.00000   0.01596   0.01595   1.09364
   D71        3.11838  -0.00131   0.00000  -0.00553  -0.00542   3.11297
   D72        1.04403   0.00020   0.00000   0.00211   0.00183   1.04586
   D73       -1.03033   0.00003   0.00000   0.00600   0.00607  -1.02426
   D74        1.06199  -0.00028   0.00000   0.00432   0.00447   1.06646
   D75       -1.01236   0.00123   0.00000   0.01197   0.01171  -1.00065
   D76       -3.08672   0.00106   0.00000   0.01585   0.01595  -3.07077
   D77       -1.17216   0.00424   0.00000   0.00000  -0.00001  -1.17217
   D78        3.06351   0.00063   0.00000  -0.01766  -0.01755   3.04597
   D79        1.01134  -0.00019   0.00000  -0.03444  -0.03468   0.97666
   D80        0.16635   0.00097   0.00000   0.00792   0.00776   0.17412
   D81       -2.98286  -0.00132   0.00000  -0.03811  -0.03787  -3.02073
         Item               Value     Threshold  Converged?
 Maximum Force            0.037901     0.000450     NO 
 RMS     Force            0.007002     0.000300     NO 
 Maximum Displacement     0.294587     0.001800     NO 
 RMS     Displacement     0.054190     0.001200     NO 
 Predicted change in Energy=-1.325514D-02
 GradGradGradGradGradGradGradGradGradGradGradGradGradGradGradGradGradGrad

                          Input orientation:                          
 ---------------------------------------------------------------------
 Center     Atomic      Atomic             Coordinates (Angstroms)
 Number     Number       Type             X           Y           Z
 ---------------------------------------------------------------------
      1          8           0       -3.488437   -1.414195   -0.245048
      2          7           0       -3.129185   -0.241938   -0.060305
      3          8           0       -3.879411    0.731037    0.112283
      4          6           0       -1.682776   -0.007773   -0.028617
      5          6           0       -1.316732    1.271304    0.256300
      6          7           0       -0.067970    1.748141    0.405922
      7          6           0        1.193493    1.002450    0.375492
      8          1           0        1.830555    1.518392    1.111948
      9          6           0        1.918620    1.050649   -0.965887
     10          6           0        3.321059    0.453527   -0.801054
     11          6           0        3.264838   -0.959716   -0.208981
     12          6           0        2.449915   -0.998733    1.084131
     13          6           0        1.038129   -0.446219    0.849192
     14          1           0        0.474847   -0.461191    1.795018
     15          7           0        0.395737   -1.329605   -0.116887
     16          6           0       -0.846184   -1.136382   -0.400941
     17          1           0       -2.108807    2.000024    0.409503
     18          1           0        0.058773    2.749529    0.295304
     19          1           0        1.348109    0.482147   -1.708712
     20          1           0        1.981194    2.089560   -1.317235
     21          1           0        3.828675    0.436733   -1.772178
     22          1           0        3.910742    1.103728   -0.139415
     23          1           0        2.799395   -1.638171   -0.932403
     24          1           0        4.279408   -1.330540   -0.019177
     25          1           0        2.374834   -2.027717    1.453141
     26          1           0        2.946174   -0.403622    1.862442
     27          1           0       -1.333986   -1.878401   -1.035825
 ---------------------------------------------------------------------
                    Distance matrix (angstroms):
                    1          2          3          4          5
     1  O    0.000000
     2  N    1.239911   0.000000
     3  O    2.209653   1.240687   0.000000
     4  C    2.298974   1.465584   2.321831   0.000000
     5  C    3.489923   2.382252   2.622967   1.360589   0.000000
     6  N    4.703587   3.680872   3.955731   2.424800   1.345053
     7  C    5.305254   4.519289   5.086974   3.075188   2.527394
     8  H    6.223600   5.391843   5.850041   3.996695   3.270872
     9  C    5.985928   5.288781   5.906079   3.868951   3.465535
    10  C    7.082851   6.529781   7.263468   5.084075   4.826579
    11  C    6.768647   6.435903   7.348615   5.041588   5.117101
    12  C    6.099455   5.745331   6.633020   4.393102   4.475042
    13  C    4.756485   4.270296   5.109909   2.892423   2.974353
    14  H    4.558257   4.059476   4.817942   2.861218   2.928984
    15  N    3.887209   3.689350   4.751385   2.464802   3.136327
    16  C    2.661388   2.475512   3.598766   1.453365   2.539751
    17  H    3.740149   2.507646   2.198570   2.098738   1.087146
    18  H    5.496478   4.386161   4.429119   3.277290   2.019575
    19  H    5.397278   4.825734   5.541203   3.499858   3.403736
    20  H    6.583522   5.756017   6.183511   4.414070   3.744579
    21  H    7.700532   7.197425   7.940554   5.797731   5.593429
    22  H    7.816582   7.167821   7.803124   5.703960   5.245108
    23  H    6.329254   6.152892   7.163167   4.854367   5.178857
    24  H    7.771578   7.488257   8.416276   6.107163   6.177561
    25  H    6.134999   5.981117   6.965932   4.768646   5.093489
    26  H    6.845947   6.374409   7.137165   5.015972   4.853601
    27  H    2.341469   2.617708   3.821846   2.152992   3.404487
                    6          7          8          9         10
     6  N    0.000000
     7  C    1.465698   0.000000
     8  H    2.038543   1.102004   0.000000
     9  C    2.512946   1.525592   2.131652   0.000000
    10  C    3.823393   2.492411   2.648607   1.533153   0.000000
    11  C    4.337995   2.912417   3.153259   2.535108   1.533286
    12  C    3.787483   2.466880   2.592354   2.947001   2.534141
    13  C    2.497030   1.532048   2.134637   2.512048   2.957130
    14  H    2.665593   2.161886   2.494650   3.463053   3.959447
    15  N    3.156085   2.513431   3.417576   2.950522   3.493587
    16  C    3.094692   3.055771   4.062215   3.570211   4.478148
    17  H    2.056325   3.449854   4.030381   4.360411   5.774127
    18  H    1.015420   2.084779   2.306907   2.817060   4.137165
    19  H    2.842481   2.153724   3.043466   1.095658   2.171911
    20  H    2.699057   2.160464   2.499971   1.098498   2.176761
    21  H    4.652714   3.446260   3.671601   2.162246   1.095919
    22  H    4.067285   2.767459   2.462729   2.157411   1.099206
    23  H    4.634652   3.355948   3.883544   2.829600   2.159765
    24  H    5.344032   3.888634   3.923358   3.484198   2.170865
    25  H    4.617474   3.426195   3.603823   3.941594   3.483290
    26  H    3.979522   2.694429   2.345631   3.342187   2.823022
    27  H    4.102833   4.084027   5.115219   4.377633   5.211761
                   11         12         13         14         15
    11  C    0.000000
    12  C    1.528974   0.000000
    13  C    2.518261   1.534147   0.000000
    14  H    3.471108   2.166842   1.100954   0.000000
    15  N    2.894311   2.402408   1.458199   2.101376   0.000000
    16  C    4.119291   3.617824   2.364274   2.650140   1.288562
    17  H    6.165926   5.498146   4.010067   3.827858   4.199554
    18  H    4.928656   4.515448   3.388028   3.568050   4.113730
    19  H    2.828782   3.347679   2.738763   3.732104   2.592945
    20  H    3.489133   3.940027   3.465970   4.296688   3.955401
    21  H    2.170615   3.481386   3.929164   4.977883   4.200595
    22  H    2.163292   2.837504   3.410511   4.242214   4.275146
    23  H    1.095571   2.144161   2.774326   3.771953   2.556922
    24  H    1.096763   2.162043   3.470155   4.303691   3.884899
    25  H    2.166884   1.095725   2.157005   2.486129   2.620911
    26  H    2.168313   1.098271   2.160816   2.472917   3.358558
    27  H    4.762020   4.425600   3.351323   3.646099   2.034102
                   16         17         18         19         20
    16  C    0.000000
    17  H    3.476792   0.000000
    18  H    4.050185   2.296344   0.000000
    19  H    3.024040   4.329094   3.289299   0.000000
    20  H    4.386384   4.440467   2.594522   1.771391   0.000000
    21  H    5.119501   6.515927   4.882179   2.481793   2.520316
    22  H    5.264488   6.110616   4.211331   3.068574   2.466228
    23  H    3.718130   6.255207   5.316971   2.684145   3.835821
    24  H    5.143455   7.217043   5.878743   3.838343   4.320165
    25  H    3.821918   6.116773   5.433857   4.165441   4.978143
    26  H    4.476809   5.782852   4.553610   4.011426   4.154213
    27  H    1.091614   4.210879   5.012925   3.635739   5.178255
                   21         22         23         24         25
    21  H    0.000000
    22  H    1.765654   0.000000
    23  H    2.463710   3.062994   0.000000
    24  H    2.529709   2.464961   1.766085   0.000000
    25  H    4.311595   3.834214   2.454143   2.506228   0.000000
    26  H    3.833467   2.685131   3.058891   2.485393   1.769644
    27  H    5.705711   6.099494   4.141648   5.730961   4.469071
                   26         27
    26  H    0.000000
    27  H    5.375379   0.000000
 Symmetry turned off by external request.
 Stoichiometry    C9H13N3O2
 Framework group  C1[X(C9H13N3O2)]
 Deg. of freedom    75
 Full point group                 C1      NOp   1
 Rotational constants (GHZ):           1.6851432           0.4214383           0.3720775
 Standard basis: 6-31G(d) (6D, 7F)
   236 basis functions,   444 primitive gaussians,   236 cartesian basis functions
    52 alpha electrons       52 beta electrons
       nuclear repulsion energy       931.9823516203 Hartrees.
 NAtoms=   27 NActive=   27 NUniq=   27 SFac= 1.00D+00 NAtFMM=   60 NAOKFM=F Big=F
 Integral buffers will be    131072 words long.
 Raffenetti 1 integral format.
 Two-electron integral symmetry is turned off.
 One-electron integrals computed using PRISM.
 NBasis=   236 RedAO= T EigKep=  1.01D-03  NBF=   236
 NBsUse=   236 1.00D-06 EigRej= -1.00D+00 NBFU=   236
 Initial guess from the checkpoint file:  "/home/alexey/tmp/Gau-1524063.chk"
 B after Tr=     0.055014    0.004775    0.002168
         Rot=    0.999999   -0.000955    0.000017    0.001169 Ang=  -0.17 deg.
 ExpMin= 1.61D-01 ExpMax= 5.48D+03 ExpMxC= 8.25D+02 IAcc=3 IRadAn=         5 AccDes= 0.00D+00
 Harris functional with IExCor=  205 and IRadAn=       5 diagonalized for initial guess.
 HarFok:  IExCor=  205 AccDes= 0.00D+00 IRadAn=         5 IDoV= 1 UseB2=F ITyADJ=14
 ICtDFT=  3500011 ScaDFX=  1.000000  1.000000  1.000000  1.000000
 FoFCou: FMM=F IPFlag=           0 FMFlag=      100000 FMFlg1=           0
         NFxFlg=           0 DoJE=T BraDBF=F KetDBF=T FulRan=T
         wScrn=  0.000000 ICntrl=       500 IOpCl=  0 I1Cent=   200000004 NGrid=           0
         NMat0=    1 NMatS0=      1 NMatT0=    0 NMatD0=    1 NMtDS0=    0 NMtDT0=    0
 Symmetry not used in FoFCou.
 Keep R1 ints in memory in canonical form, NReq=397720213.
 Requested convergence on RMS density matrix=1.00D-08 within 128 cycles.
 Requested convergence on MAX density matrix=1.00D-06.
 Requested convergence on             energy=1.00D-06.
 No special actions if energy rises.
 SCF Done:  E(RHF) =  -661.298782011     A.U. after   15 cycles
            NFock= 15  Conv=0.38D-08     -V/T= 2.0024
 ExpMin= 1.61D-01 ExpMax= 5.48D+03 ExpMxC= 8.25D+02 IAcc=3 IRadAn=         5 AccDes= 0.00D+00
 HarFok:  IExCor=  205 AccDes= 0.00D+00 IRadAn=         5 IDoV=-2 UseB2=F ITyADJ=14
 ICtDFT= 12500011 ScaDFX=  1.000000  1.000000  1.000000  1.000000
 Range of M.O.s used for correlation:    15   236
 NBasis=   236 NAE=    52 NBE=    52 NFC=    14 NFV=     0
 NROrb=    222 NOA=    38 NOB=    38 NVA=   184 NVB=   184
 Fully direct method using O(ONN) memory.
 JobTyp=1 Pass  1:  I=  15 to  52 NPSUse=  4 ParTrn=T ParDer=T DoDerP=T.
 Spin components of T(2) and E(2):
     alpha-alpha T2 =       0.9125193415D-01 E2=     -0.2723336552D+00
     alpha-beta  T2 =       0.4911758548D+00 E2=     -0.1487916044D+01
     beta-beta   T2 =       0.9125193415D-01 E2=     -0.2723336552D+00
 ANorm=    0.1293707743D+01
 E2 =    -0.2032583354D+01 EUMP2 =    -0.66333136536486D+03
          IDoAtm=111111111111111111111111111
          Differentiating once with respect to electric field.
                with respect to dipole field.
          Differentiating once with respect to nuclear coordinates.
 Keep R1 ints in memory in canonical form, NReq=397723379.
          There are     1 degrees of freedom in the 1st order CPHF.  IDoFFX=0 NUNeed=     1.
 LinEq1:  Iter=  0 NonCon=     1 RMS=4.57D-03 Max=1.05D-01 NDo=     1
 AX will form     1 AO Fock derivatives at one time.
 LinEq1:  Iter=  1 NonCon=     1 RMS=1.54D-03 Max=2.78D-02 NDo=     1
 LinEq1:  Iter=  2 NonCon=     1 RMS=6.42D-04 Max=1.78D-02 NDo=     1
 LinEq1:  Iter=  3 NonCon=     1 RMS=2.80D-04 Max=8.24D-03 NDo=     1
 LinEq1:  Iter=  4 NonCon=     1 RMS=8.72D-05 Max=1.95D-03 NDo=     1
 LinEq1:  Iter=  5 NonCon=     1 RMS=3.64D-05 Max=1.78D-03 NDo=     1
[...]
    26  H    2.175731   1.098799   2.167003   2.497189   3.362810
    27  H    4.723934   4.418621   3.356710   3.656684   2.029366
                   16         17         18         19         20
    16  C    0.000000
    17  H    3.463950   0.000000
    18  H    4.088328   2.235807   0.000000
    19  H    2.990813   4.303515   3.511808   0.000000
    20  H    4.375236   4.449383   2.881910   1.768528   0.000000
    21  H    5.096615   6.511332   5.086462   2.499171   2.521034
    22  H    5.248772   6.100611   4.313274   3.070223   2.461444
    23  H    3.694982   6.235050   5.421156   2.704221   3.842919
    24  H    5.133795   7.200888   5.936676   3.849631   4.317107
    25  H    3.821385   6.088206   5.369679   4.171519   4.985025
    26  H    4.495184   5.781219   4.485302   4.036031   4.182283
    27  H    1.089683   4.215332   5.079245   3.583221   5.147818
                   21         22         23         24         25
    21  H    0.000000
    22  H    1.758855   0.000000
    23  H    2.469441   3.062276   0.000000
    24  H    2.517346   2.459890   1.764578   0.000000
    25  H    4.312000   3.839522   2.444098   2.519691   0.000000
    26  H    3.846725   2.704397   3.060434   2.491720   1.767982
    27  H    5.652815   6.060371   4.090322   5.694653   4.454408
                   26         27
    26  H    0.000000
    27  H    5.378508   0.000000
 Symmetry turned off by external request.
 Stoichiometry    C9H13N3O2
 Framework group  C1[X(C9H13N3O2)]
 Deg. of freedom    75
 Full point group                 C1      NOp   1
 Rotational constants (GHZ):           1.6800512           0.4193474           0.3721439

 **********************************************************************

            Population analysis using the SCF Density.

 **********************************************************************

 Alpha  occ. eigenvalues --  -20.59236 -20.58903 -15.84722 -15.64136 -15.56112
 Alpha  occ. eigenvalues --  -11.35018 -11.29623 -11.29559 -11.28627 -11.27134
 Alpha  occ. eigenvalues --  -11.23729 -11.23208 -11.22692 -11.22089  -1.57115
 Alpha  occ. eigenvalues --   -1.36708  -1.30977  -1.23065  -1.14704  -1.09820
 Alpha  occ. eigenvalues --   -1.02806  -1.01309  -0.94482  -0.89684  -0.85566
 Alpha  occ. eigenvalues --   -0.82448  -0.78609  -0.77411  -0.75203  -0.72020
 Alpha  occ. eigenvalues --   -0.69770  -0.69437  -0.67820  -0.64893  -0.63778
 Alpha  occ. eigenvalues --   -0.62367  -0.60282  -0.57700  -0.57001  -0.55077
 Alpha  occ. eigenvalues --   -0.54582  -0.50762  -0.50109  -0.48656  -0.48102
 Alpha  occ. eigenvalues --   -0.47371  -0.46146  -0.46045  -0.43677  -0.41696
 Alpha  occ. eigenvalues --   -0.39849  -0.33830
 Alpha virt. eigenvalues --    0.07464   0.11800   0.17307   0.21848   0.24112
 Alpha virt. eigenvalues --    0.25664   0.27134   0.28694   0.29044   0.29636
 Alpha virt. eigenvalues --    0.30682   0.31798   0.32036   0.32767   0.33950
 Alpha virt. eigenvalues --    0.34386   0.35849   0.37313   0.38580   0.40292
 Alpha virt. eigenvalues --    0.41387   0.42443   0.45026   0.46117   0.46730
 Alpha virt. eigenvalues --    0.47076   0.49000   0.53996   0.57579   0.59405
 Alpha virt. eigenvalues --    0.63913   0.69543   0.69909   0.72860   0.74243
 Alpha virt. eigenvalues --    0.74867   0.75781   0.76677   0.78661   0.79441
 Alpha virt. eigenvalues --    0.81386   0.84693   0.85719   0.85807   0.88530
 Alpha virt. eigenvalues --    0.89424   0.91051   0.92114   0.92855   0.94527
 Alpha virt. eigenvalues --    0.95643   0.98039   0.99638   1.01675   1.02471
 Alpha virt. eigenvalues --    1.03152   1.05873   1.06969   1.07900   1.09014
 Alpha virt. eigenvalues --    1.10283   1.11418   1.11855   1.12443   1.13916
 Alpha virt. eigenvalues --    1.14766   1.14990   1.15831   1.16903   1.18726
 Alpha virt. eigenvalues --    1.19137   1.21337   1.22576   1.23915   1.24534
 Alpha virt. eigenvalues --    1.24829   1.26039   1.26912   1.27488   1.29558
 Alpha virt. eigenvalues --    1.30008   1.33127   1.36068   1.37181   1.40861
 Alpha virt. eigenvalues --    1.41851   1.46492   1.48741   1.51700   1.54292
 Alpha virt. eigenvalues --    1.56372   1.58779   1.59556   1.63466   1.65626
 Alpha virt. eigenvalues --    1.68030   1.68625   1.72992   1.75222   1.77376
 Alpha virt. eigenvalues --    1.81579   1.84600   1.87687   1.90651   1.93494
 Alpha virt. eigenvalues --    1.95814   1.96956   1.99719   2.01571   2.02523
 Alpha virt. eigenvalues --    2.05102   2.05608   2.08497   2.09559   2.12396
 Alpha virt. eigenvalues --    2.13265   2.15297   2.18826   2.20015   2.22452
 Alpha virt. eigenvalues --    2.22639   2.24493   2.25492   2.28215   2.29548
 Alpha virt. eigenvalues --    2.31994   2.33724   2.34702   2.36400   2.38462
 Alpha virt. eigenvalues --    2.40482   2.41927   2.43869   2.45136   2.47364
 Alpha virt. eigenvalues --    2.50723   2.51949   2.53115   2.55573   2.61505
 Alpha virt. eigenvalues --    2.62310   2.65193   2.67626   2.70315   2.70495
 Alpha virt. eigenvalues --    2.72272   2.72651   2.76984   2.78442   2.83807
 Alpha virt. eigenvalues --    2.88565   2.88948   2.92945   2.93138   2.96058
 Alpha virt. eigenvalues --    2.99440   3.01343   3.04315   3.05725   3.07677
 Alpha virt. eigenvalues --    3.09415   3.15047   3.21212   3.25217   3.27458
 Alpha virt. eigenvalues --    3.33448   3.37784   3.38785   3.52168   3.65800
 Alpha virt. eigenvalues --    4.13673   4.28076   4.34716   4.38921   4.46296
 Alpha virt. eigenvalues --    4.56308   4.61872   4.62354   4.73466   4.79741
 Alpha virt. eigenvalues --    4.99415   5.00898   5.05024   5.11166
          Condensed to atoms (all electrons):
               1          2          3          4          5          6
     1  O    8.316124   0.306962  -0.082544  -0.085471   0.004639  -0.000016
     2  N    0.306962   5.722369   0.301247   0.264177  -0.053645   0.000969
     3  O   -0.082544   0.301247   8.353636  -0.092660   0.003643   0.000785
     4  C   -0.085471   0.264177  -0.092660   5.225612   0.560351  -0.047286
     5  C    0.004639  -0.053645   0.003643   0.560351   4.709966   0.317425
     6  N   -0.000016   0.000969   0.000785  -0.047286   0.317425   7.195594
     7  C    0.000004  -0.000140   0.000002   0.004630  -0.030204   0.169267
     8  H   -0.000000   0.000002  -0.000000  -0.000261   0.003094  -0.050671
     9  C   -0.000000  -0.000004  -0.000000   0.000855   0.000627  -0.061659
    10  C    0.000000   0.000000   0.000000  -0.000038  -0.000052   0.003748
    11  C   -0.000000  -0.000000  -0.000000  -0.000028   0.000025  -0.000190
    12  C   -0.000000   0.000002  -0.000000  -0.000127  -0.000176   0.003873
    13  C   -0.000025  -0.000039  -0.000004  -0.011561  -0.000584  -0.047693
    14  H   -0.000004  -0.000105   0.000001   0.002645   0.006076  -0.006958
    15  N    0.000382   0.002363  -0.000016  -0.063514  -0.006399   0.001597
    16  C    0.000844  -0.027276   0.002547   0.328490  -0.050331  -0.001857
    17  H    0.000220  -0.007230   0.017389  -0.023146   0.374515  -0.034185
    18  H    0.000001  -0.000050   0.000012   0.001506  -0.031445   0.338681
    19  H    0.000001  -0.000004   0.000000  -0.001225   0.001232  -0.000352
    20  H    0.000000  -0.000000   0.000000  -0.000079   0.000153  -0.000429
    21  H   -0.000000   0.000000   0.000000   0.000001   0.000001  -0.000077
    22  H   -0.000000   0.000000  -0.000000  -0.000000  -0.000003  -0.000117
    23  H    0.000000  -0.000000   0.000000   0.000041  -0.000000  -0.000031
    24  H    0.000000   0.000000   0.000000   0.000000  -0.000000   0.000006
    25  H    0.000000  -0.000000   0.000000   0.000024   0.000000  -0.000090
    26  H    0.000000  -0.000000   0.000000   0.000006  -0.000002  -0.000060
    27  H    0.006123  -0.000880   0.000018  -0.063405   0.002214   0.000017
               7          8          9         10         11         12
     1  O    0.000004  -0.000000  -0.000000   0.000000  -0.000000  -0.000000
     2  N   -0.000140   0.000002  -0.000004   0.000000  -0.000000   0.000002
     3  O    0.000002  -0.000000  -0.000000   0.000000  -0.000000  -0.000000
     4  C    0.004630  -0.000261   0.000855  -0.000038  -0.000028  -0.000127
     5  C   -0.030204   0.003094   0.000627  -0.000052   0.000025  -0.000176
     6  N    0.169267  -0.050671  -0.061659   0.003748  -0.000190   0.003873
     7  C    5.017542   0.418418   0.350531  -0.054673  -0.009030  -0.061074
     8  H    0.418418   0.538080  -0.055045   0.000777  -0.000325  -0.002229
     9  C    0.350531  -0.055045   5.158236   0.324773  -0.050415  -0.005343
    10  C   -0.054673   0.000777   0.324773   5.119316   0.337001  -0.060992
    11  C   -0.009030  -0.000325  -0.050415   0.337001   5.119922   0.335976
    12  C   -0.061074  -0.002229  -0.005343  -0.060992   0.335976   5.118631
    13  C    0.338603  -0.037935  -0.060240  -0.000286  -0.050689   0.371988
    14  H   -0.046592  -0.000746   0.004423  -0.000405   0.004195  -0.036319
    15  N   -0.057950   0.003900  -0.014615   0.001561  -0.013058  -0.082065
    16  C   -0.001776   0.000010  -0.001270  -0.000029   0.000029   0.002608
    17  H    0.001616  -0.000045  -0.000070   0.000001   0.000000   0.000000
    18  H   -0.021215  -0.004472   0.001328  -0.000083   0.000004  -0.000114
    19  H   -0.036853   0.004361   0.390224  -0.032070  -0.002212   0.000689
    20  H   -0.042414  -0.002078   0.399487  -0.035302   0.003931  -0.000415
    21  H    0.004599  -0.000076  -0.036356   0.402433  -0.034895   0.004349
    22  H   -0.004847   0.003559  -0.046955   0.397753  -0.045403  -0.001021
    23  H    0.000577   0.000035  -0.001958  -0.039019   0.399178  -0.037864
    24  H   -0.000130  -0.000102   0.004388  -0.038437   0.402341  -0.038691
    25  H    0.005152  -0.000025  -0.000423   0.004190  -0.033398   0.398275
    26  H   -0.003905   0.001686   0.000968  -0.002232  -0.041481   0.396732
    27  H   -0.000408   0.000009  -0.000058   0.000007   0.000012  -0.000036
              13         14         15         16         17         18
     1  O   -0.000025  -0.000004   0.000382   0.000844   0.000220   0.000001
     2  N   -0.000039  -0.000105   0.002363  -0.027276  -0.007230  -0.000050
     3  O   -0.000004   0.000001  -0.000016   0.002547   0.017389   0.000012
     4  C   -0.011561   0.002645  -0.063514   0.328490  -0.023146   0.001506
     5  C   -0.000584   0.006076  -0.006399  -0.050331   0.374515  -0.031445
     6  N   -0.047693  -0.006958   0.001597  -0.001857  -0.034185   0.338681
     7  C    0.338603  -0.046592  -0.057950  -0.001776   0.001616  -0.021215
     8  H   -0.037935  -0.000746   0.003900   0.000010  -0.000045  -0.004472
     9  C   -0.060240   0.004423  -0.014615  -0.001270  -0.000070   0.001328
    10  C   -0.000286  -0.000405   0.001561  -0.000029   0.000001  -0.000083
    11  C   -0.050689   0.004195  -0.013058   0.000029   0.000000   0.000004
    12  C    0.371988  -0.036319  -0.082065   0.002608   0.000000  -0.000114
    13  C    5.040269   0.403080   0.244771  -0.071087  -0.000009   0.002971
    14  H    0.403080   0.526769  -0.037371  -0.004537   0.000093  -0.000108
    15  N    0.244771  -0.037371   6.965117   0.585202  -0.000080  -0.000132
    16  C   -0.071087  -0.004537   0.585202   4.709889   0.002013  -0.000197
    17  H   -0.000009   0.000093  -0.000080   0.002013   0.376500  -0.002818
    18  H    0.002971  -0.000108  -0.000132  -0.000197  -0.002818   0.310600
    19  H   -0.007547   0.000106   0.007694   0.003001   0.000016  -0.000149
    20  H    0.004340  -0.000066   0.000126  -0.000036   0.000002   0.000807
    21  H   -0.000433   0.000010  -0.000041   0.000004  -0.000000   0.000001
    22  H    0.000045  -0.000055   0.000019  -0.000002   0.000000   0.000001
    23  H   -0.007523   0.000003   0.008589   0.000106   0.000000   0.000000
    24  H    0.004700  -0.000057   0.000135   0.000007   0.000000  -0.000000
    25  H   -0.035563  -0.002817   0.000408  -0.000022  -0.000000   0.000002
    26  H   -0.047416  -0.001047   0.004900  -0.000061   0.000000  -0.000000
    27  H    0.005061  -0.000174  -0.040319   0.403676  -0.000079   0.000001
              19         20         21         22         23         24
     1  O    0.000001   0.000000  -0.000000  -0.000000   0.000000   0.000000
     2  N   -0.000004  -0.000000   0.000000   0.000000  -0.000000   0.000000
     3  O    0.000000   0.000000   0.000000  -0.000000   0.000000   0.000000
     4  C   -0.001225  -0.000079   0.000001  -0.000000   0.000041   0.000000
     5  C    0.001232   0.000153   0.000001  -0.000003  -0.000000  -0.000000
     6  N   -0.000352  -0.000429  -0.000077  -0.000117  -0.000031   0.000006
     7  C   -0.036853  -0.042414   0.004599  -0.004847   0.000577  -0.000130
     8  H    0.004361  -0.002078  -0.000076   0.003559   0.000035  -0.000102
     9  C    0.390224   0.399487  -0.036356  -0.046955  -0.001958   0.004388
    10  C   -0.032070  -0.035302   0.402433   0.397753  -0.039019  -0.038437
    11  C   -0.002212   0.003931  -0.034895  -0.045403   0.399178   0.402341
    12  C    0.000689  -0.000415   0.004349  -0.001021  -0.037864  -0.038691
    13  C   -0.007547   0.004340  -0.000433   0.000045  -0.007523   0.004700
    14  H    0.000106  -0.000066   0.000010  -0.000055   0.000003  -0.000057
    15  N    0.007694   0.000126  -0.000041   0.000019   0.008589   0.000135
    16  C    0.003001  -0.000036   0.000004  -0.000002   0.000106   0.000007
    17  H    0.000016   0.000002  -0.000000   0.000000   0.000000   0.000000
    18  H   -0.000149   0.000807   0.000001   0.000001   0.000000  -0.000000
    19  H    0.504944  -0.024738  -0.002787   0.003959   0.001514  -0.000066
    20  H   -0.024738   0.541156  -0.002692  -0.002990  -0.000045  -0.000083
    21  H   -0.002787  -0.002692   0.524022  -0.027403  -0.002898  -0.002242
    22  H    0.003959  -0.002990  -0.027403   0.571318   0.004137  -0.003656
    23  H    0.001514  -0.000045  -0.002898   0.004137   0.498955  -0.025450
    24  H   -0.000066  -0.000083  -0.002242  -0.003656  -0.025450   0.538120
    25  H   -0.000029   0.000012  -0.000087  -0.000080  -0.002318  -0.002291
    26  H    0.000019  -0.000030  -0.000081   0.002380   0.004067  -0.003035
    27  H    0.000083   0.000000  -0.000000   0.000000  -0.000035  -0.000000
              25         26         27
     1  O    0.000000   0.000000   0.006123
     2  N   -0.000000  -0.000000  -0.000880
     3  O    0.000000   0.000000   0.000018
     4  C    0.000024   0.000006  -0.063405
     5  C    0.000000  -0.000002   0.002214
     6  N   -0.000090  -0.000060   0.000017
     7  C    0.005152  -0.003905  -0.000408
     8  H   -0.000025   0.001686   0.000009
     9  C   -0.000423   0.000968  -0.000058
    10  C    0.004190  -0.002232   0.000007
    11  C   -0.033398  -0.041481   0.000012
    12  C    0.398275   0.396732  -0.000036
    13  C   -0.035563  -0.047416   0.005061
    14  H   -0.002817  -0.001047  -0.000174
    15  N    0.000408   0.004900  -0.040319
    16  C   -0.000022  -0.000061   0.403676
    17  H   -0.000000   0.000000  -0.000079
    18  H    0.000002  -0.000000   0.000001
    19  H   -0.000029   0.000019   0.000083
    20  H    0.000012  -0.000030   0.000000
    21  H   -0.000087  -0.000081  -0.000000
    22  H   -0.000080   0.002380   0.000000
    23  H   -0.002318   0.004067  -0.000035
    24  H   -0.002291  -0.003035  -0.000000
    25  H    0.506107  -0.024079  -0.000013
    26  H   -0.024079   0.562323   0.000001
    27  H   -0.000013   0.000001   0.439303
 Mulliken charges:
               1
     1  O   -0.467241
     2  N    0.491281
     3  O   -0.504057
     4  C    0.000463
     5  C    0.188878
     6  N   -0.780292
     7  C    0.060270
     8  H    0.180081
     9  C   -0.301427
    10  C   -0.327944
    11  C   -0.321490
    12  C   -0.306659
    13  C   -0.037195
    14  H    0.189959
    15  N   -0.511204
    16  C    0.120056
    17  H    0.295295
    18  H    0.404870
    19  H    0.190189
    20  H    0.161383
    21  H    0.174649
    22  H    0.149362
    23  H    0.199939
    24  H    0.164542
    25  H    0.187065
    26  H    0.150347
    27  H    0.248881
 Sum of Mulliken charges =  -0.00000
 Mulliken charges with hydrogens summed into heavy atoms:
               1
     1  O   -0.467241
     2  N    0.491281
     3  O   -0.504057
     4  C    0.000463
     5  C    0.484173
     6  N   -0.375422
     7  C    0.240351
     9  C    0.050144
    10  C   -0.003933
    11  C    0.042992
    12  C    0.030753
    13  C    0.152764
    15  N   -0.511204
    16  C    0.368937
 Electronic spatial extent (au):  <R**2>=           3005.3214
 Charge=             -0.0000 electrons
 Dipole moment (field-independent basis, Debye):
    X=              5.4161    Y=              4.7966    Z=              1.2810  Tot=              7.3473
 Quadrupole moment (field-independent basis, Debye-Ang):
   XX=           -106.1408   YY=            -79.2261   ZZ=            -81.5007
   XY=             -1.7685   XZ=             -0.1327   YZ=              1.8564
 Traceless Quadrupole moment (field-independent basis, Debye-Ang):
   XX=            -17.1850   YY=              9.7297   ZZ=              7.4552
   XY=             -1.7685   XZ=             -0.1327   YZ=              1.8564
 Octapole moment (field-independent basis, Debye-Ang**2):
  XXX=             92.3995  YYY=             36.2976  ZZZ=             -1.4932  XYY=             -4.5763
  XXY=              9.5464  XXZ=              4.9240  XZZ=             -9.7614  YZZ=             -0.3904
  YYZ=              7.9922  XYZ=              0.2511
 Hexadecapole moment (field-independent basis, Debye-Ang**3):
 XXXX=          -3382.0323 YYYY=           -601.0586 ZZZZ=           -303.8105 XXXY=            -21.0040
 XXXZ=            -13.4634 YYYX=             -9.0468 YYYZ=             25.0109 ZZZX=              1.8903
 ZZZY=              7.0950 XXYY=           -627.7655 XXZZ=           -523.7971 YYZZ=           -157.3245
 XXYZ=             -4.2804 YYXZ=              1.6886 ZZXY=              4.6695
 N-N= 9.312382874650D+02 E-N=-3.409193129402D+03  KE= 6.596291254595D+02
 Unable to Open any file for archive entry.
 1\1\GINC-LOTUS\FOpt\RMP2-FC\6-31G(d)\C9H13N3O2\ALEXEY\02-Jul-2023\0\\#
 MP2/6-31G* SCF=Tight Opt=(ModRedun, MaxCycle=20 ) NoSymm\\MolName:\\0,
 1\O,-3.5066451581,-1.3907427045,-0.3708622607\N,-3.1210414283,-0.23257
 39359,-0.1183330833\O,-3.8954561687,0.7283704597,0.0557007602\C,-1.686
 6449745,-0.0239560052,-0.0095570675\C,-1.3014873092,1.2605385663,0.275
 3481577\N,-0.0572730656,1.7501675678,0.3861956043\C,1.2056068157,1.024
 0581546,0.3592242186\H,1.8533449704,1.5531392791,1.0745450108\C,1.9090
 402532,1.0350565714,-0.9966349173\C,3.3074418436,0.4284667732,-0.83257
 91113\C,3.2595116382,-0.9675838087,-0.2058706591\C,2.4645681693,-0.978
 0799982,1.1016244987\C,1.0548558214,-0.4244554107,0.8651978767\H,0.478
 3197951,-0.4030973223,1.8036087974\N,0.408333705,-1.3179679447,-0.0909
 259723\C,-0.8390089068,-1.1382473279,-0.3862678061\H,-2.0962630809,1.9
 874252254,0.418986822\H,0.0015723532,2.7353470583,0.6152867347\H,1.314
 7957894,0.457531859,-1.7127591504\H,1.9749676666,2.0629619387,-1.37444
 04042\H,3.8113542567,0.3902973884,-1.8051262782\H,3.9072394455,1.09484
 09401,-0.1964018807\H,2.7818207965,-1.6644341794,-0.901644789\H,4.2786
 899186,-1.3310546146,-0.0287317848\H,2.3791550717,-1.999958979,1.48559
 18544\H,2.9745313156,-0.3801309981,1.8695792777\H,-1.3003195337,-1.892
 8985527,-1.0227444483\\Version=ES64L-G16RevC.02\HF=-661.3003622\MP2=-6
 63.3346494\RMSD=6.525e-09\RMSF=9.750e-06\Dipole=1.9792997,1.6920726,0.
 4710778\PG=C01 [X(C9H13N3O2)]\\@
 The archive entry for this job was punched.


 KINETICS       FACT
 ---------  =  -------
 MECHANISM     FICTION
 Job cpu time:       0 days  1 hours 10 minutes 54.6 seconds.
 Elapsed time:       0 days  0 hours 21 minutes 19.6 seconds.
 File lengths (MBytes):  RWF=     36 Int=      0 D2E=      0 Chk=      7 Scr=      1
 Normal termination of Gaussian 16 at Sun Jul  2 14:37:37 2023.
