 Entering Gaussian System, Link 0=g16
 Initial command:
 /home/alexey/programs//g16/l1.exe "/home/alexey/tmp/Gau-1527034.inp" -scrdir="/home/alexey/tmp/"
 Entering Link 1 = /home/alexey/programs//g16/l1.exe PID=   1527036.
  
 Copyright (c) 1988-2021, Gaussian, Inc.  All Rights Reserved.
  
 This is part of the Gaussian(R) 16 program.  It is based on
 the Gaussian(R) 09 system (copyright 2009, Gaussian, Inc.),
 the Gaussian(R) 03 system (copyright 2003, Gaussian, Inc.),
 the Gaussian(R) 98 system (copyright 1998, Gaussian, Inc.),
 the Gaussian(R) 94 system (copyright 1995, Gaussian, Inc.),
 the Gaussian 92(TM) system (copyright 1992, Gaussian, Inc.),
 the Gaussian 90(TM) system (copyright 1990, Gaussian, Inc.),
 the Gaussian 88(TM) system (copyright 1988, Gaussian, Inc.),
 the Gaussian 86(TM) system (copyright 1986, Carnegie Mellon
 University), and the Gaussian 82(TM) system (copyright 1983,
 Carnegie Mellon University). Gaussian is a federally registered
 trademark of Gaussian, Inc.
  
 This software contains proprietary and confidential information,
 including trade secrets, belonging to Gaussian, Inc.
  
 This software is provided under written license and may be
 used, copied, transmitted, or stored only in accord with that
 written license.
  
 The following legend is applicable only to US Government
 contracts under FAR:
  
                    RESTRICTED RIGHTS LEGEND
  
 Use, reproduction and disclosure by the US Government is
 subject to restrictions as set forth in subparagraphs (a)
 and (c) of the Commercial Computer Software - Restricted
 Rights clause in FAR 52.227-19.
  
 Gaussian, Inc.
 340 Quinnipiac St., Bldg. 40, Wallingford CT 06492
  
  
 ---------------------------------------------------------------
 Warning -- This program may not be used in any manner that
 competes with the business of Gaussian, Inc. or will provide
 assistance to any competitor of Gaussian, Inc.  The licensee
 of this program is prohibited from giving any competitor of
 Gaussian, Inc. access to this program.  By using this program,
 the user acknowledges that Gaussian, Inc. is engaged in the
 business of creating and licensing software in the field of
 computational chemistry and represents and warrants to the
 licensee that it is not a competitor of Gaussian, Inc. and that
 it will not use this program in any manner prohibited above.
 ---------------------------------------------------------------
  

 Cite this work as:
 Gaussian 16, Revision C.02,
 M. J. Frisch, G. W. Trucks, H. B. Schlegel, G. E. Scuseria, 
 M. A. Robb, J. R. Cheeseman, G. Scalmani, V. Barone, 
 G. A. Petersson, H. Nakatsuji, X. Li, M. Caricato, A. V. Marenich, 
 J. Bloino, B. G. Janesko, R. Gomperts, B. Mennucci, H. P. Hratchian, 
 J. V. Ortiz, A. F. Izmaylov, J. L. Sonnenberg, D. Williams-Young, 
 F. Ding, F. Lipparini, F. Egidi, J. Goings, B. Peng, A. Petrone, 
 T. Henderson, D. Ranasinghe, V. G. Zakrzewski, J. Gao, N. Rega, 
 G. Zheng, W. Liang, M. Hada, M. Ehara, K. Toyota, R. Fukuda, 
 J. Hasegawa, M. Ishida, T. Nakajima, Y. Honda, O. Kitao, H. Nakai, 
 T. Vreven, K. Throssell, J. A. Montgomery, Jr., J. E. Peralta, 
 F. Ogliaro, M. J. Bearpark, J. J. Heyd, E. N. Brothers, K. N. Kudin, 
 V. N. Staroverov, T. A. Keith, R. Kobayashi, J. Normand, 
 K. Raghavachari, A. P. Rendell, J. C. Burant, S. S. Iyengar, 
 J. Tomasi, M. Cossi, J. M. Millam, M. Klene, C. Adamo, R. Cammi, 
 J. W. Ochterski, R. L. Martin, K. Morokuma, O. Farkas, 
 J. B. Foresman, and D. J. Fox, Gaussian, Inc., Wallingford CT, 2019.
 
 ******************************************
 Gaussian 16:  ES64L-G16RevC.02  7-Dec-2021
                 2-Jul-2023 
 ******************************************
 %mem=8GB
 %NPROCS=4
 Will use up to    4 processors via shared memory.
 %NoSave
 ---------------------------------------------------------
 #MP2/6-31G* SCF=Tight Opt=(ModRedun, MaxCycle=20 ) NoSymm
 ---------------------------------------------------------
 1/6=20,18=120,19=15,38=1/1,3;
 2/9=110,12=2,15=1,17=6,18=5,40=1/2;
 3/5=1,6=6,7=1,11=9,25=1,30=1,71=1/1,2,3;
 4//1;
 5/5=2,32=2,38=5/2;
 8/6=4,10=2/1;
 9/15=2,16=-3/6;
 10/5=1,31=1/2;
 6/7=2,8=2,9=2,10=2/1;
 7/12=2,30=1/1,2,3,16;
 1/6=20,18=20,19=15/3(2);
 2/9=110,15=1/2;
 99//99;
 2/9=110,15=1/2;
 3/5=1,6=6,7=1,11=9,25=1,30=1,71=1/1,2,3;
 4/5=5,16=3,69=1/1;
 5/5=2,32=2,38=5/2;
 8/6=4,10=2/1;
 9/15=2,16=-3/6;
 10/5=1,31=1/2;
 7/12=2,30=1/1,2,3,16;
 1/6=20,18=20,19=15/3(-8);
 2/9=110,15=1/2;
 6/7=2,8=2,9=2,10=2/1;
 99/9=10/99;
 --------
 MolName:
 --------
 Symbolic Z-matrix:
 Charge =  0 Multiplicity = 1
 8                    0    -3.60294  -1.46825  -0.12656 
 7                    0    -3.25334  -0.30161   0.04384 
 8                    0    -4.03805   0.62418   0.25315 
 6                    0    -1.76104   0.00891  -0.03379 
 6                    0    -1.37317   1.31195   0.3009 
 7                    0    -0.08432   1.77927   0.3223 
 6                    0     1.18921   0.99622   0.32372 
 1                    0     1.83545   1.49246   1.0947 
 6                    0     1.99314   1.04897  -0.99827 
 6                    0     3.39824   0.46059  -0.77046 
 6                    0     3.31714  -0.95681  -0.18189 
 6                    0     2.43204  -0.99273   1.08319 
 6                    0     1.0031   -0.45001   0.8071 
 1                    0     0.43888  -0.48519   1.76875 
 7                    0     0.36214  -1.31633  -0.18486 
 6                    0    -0.87354  -1.09235  -0.49625 
 1                    0    -2.15289   2.03249   0.59895 
 1                    0     0.14102   2.75104   0.09594 
 1                    0     1.46516   0.4731   -1.78818 
 1                    0     2.09082   2.0992   -1.34643 
 1                    0     3.9604    0.43817  -1.72967 
 1                    0     3.9565    1.11173  -0.0612 
 1                    0     2.88755  -1.64235  -0.94706 
 1                    0     4.33756  -1.32447   0.06224 
 1                    0     2.36082  -2.0403    1.4497 
 1                    0     2.90856  -0.38706   1.88254 
 1                    0    -1.3754   -1.80881  -1.1644 
 
 The following ModRedundant input section has been read:
 D       5       6       7       9 F                                           
 D       1       2       4      16 F                                           
 D       7      13      15      16 F                                           
 D       7       9      10      11 F                                           
 D       9      10      11      12 F                                           
 D       6       7      13      15 F                                           
 

 GradGradGradGradGradGradGradGradGradGradGradGradGradGradGradGradGradGrad
 Berny optimization.
 Initialization pass.
                           ----------------------------
                           !    Initial Parameters    !
                           ! (Angstroms and Degrees)  !
 --------------------------                            --------------------------
 ! Name  Definition              Value          Derivative Info.                !
 --------------------------------------------------------------------------------
 ! R1    R(1,2)                  1.2298         estimate D2E/DX2                !
 ! R2    R(2,3)                  1.2315         estimate D2E/DX2                !
 ! R3    R(2,4)                  1.5262         estimate D2E/DX2                !
 ! R4    R(4,5)                  1.4001         estimate D2E/DX2                !
 ! R5    R(4,16)                 1.4881         estimate D2E/DX2                !
 ! R6    R(5,6)                  1.3711         estimate D2E/DX2                !
 ! R7    R(5,17)                 1.1027         estimate D2E/DX2                !
 ! R8    R(6,7)                  1.495          estimate D2E/DX2                !
 ! R9    R(6,18)                 1.0229         estimate D2E/DX2                !
 ! R10   R(7,8)                  1.1217         estimate D2E/DX2                !
 ! R11   R(7,9)                  1.5481         estimate D2E/DX2                !
 ! R12   R(7,13)                 1.5362         estimate D2E/DX2                !
 ! R13   R(9,10)                 1.5403         estimate D2E/DX2                !
 ! R14   R(9,19)                 1.111          estimate D2E/DX2                !
 ! R15   R(9,20)                 1.1107         estimate D2E/DX2                !
 ! R16   R(10,11)                1.5369         estimate D2E/DX2                !
 ! R17   R(10,21)                1.112          estimate D2E/DX2                !
 ! R18   R(10,22)                1.113          estimate D2E/DX2                !
 ! R19   R(11,12)                1.5444         estimate D2E/DX2                !
 ! R20   R(11,23)                1.1136         estimate D2E/DX2                !
 ! R21   R(11,24)                1.1118         estimate D2E/DX2                !
 ! R22   R(12,13)                1.5533         estimate D2E/DX2                !
 ! R23   R(12,25)                1.1121         estimate D2E/DX2                !
 ! R24   R(12,26)                1.1103         estimate D2E/DX2                !
 ! R25   R(13,14)                1.1155         estimate D2E/DX2                !
 ! R26   R(13,15)                1.4647         estimate D2E/DX2                !
 ! R27   R(15,16)                1.2938         estimate D2E/DX2                !
 ! R28   R(16,27)                1.1007         estimate D2E/DX2                !
 ! A1    A(1,2,3)              123.7497         estimate D2E/DX2                !
 ! A2    A(1,2,4)              117.6407         estimate D2E/DX2                !
 ! A3    A(3,2,4)              118.6014         estimate D2E/DX2                !
 ! A4    A(2,4,5)              116.6187         estimate D2E/DX2                !
 ! A5    A(2,4,16)             116.6406         estimate D2E/DX2                !
 ! A6    A(5,4,16)             126.7136         estimate D2E/DX2                !
 ! A7    A(4,5,6)              125.5439         estimate D2E/DX2                !
 ! A8    A(4,5,17)             118.4793         estimate D2E/DX2                !
 ! A9    A(6,5,17)             115.9597         estimate D2E/DX2                !
 ! A10   A(5,6,7)              128.4796         estimate D2E/DX2                !
 ! A11   A(5,6,18)             121.8305         estimate D2E/DX2                !
 ! A12   A(7,6,18)             108.0678         estimate D2E/DX2                !
 ! A13   A(6,7,8)              105.0523         estimate D2E/DX2                !
 ! A14   A(6,7,9)              115.0684         estimate D2E/DX2                !
 ! A15   A(6,7,13)             112.967          estimate D2E/DX2                !
 ! A16   A(8,7,9)              105.8232         estimate D2E/DX2                !
 ! A17   A(8,7,13)             105.6646         estimate D2E/DX2                !
 ! A18   A(9,7,13)             111.3267         estimate D2E/DX2                !
 ! A19   A(7,9,10)             109.5364         estimate D2E/DX2                !
 ! A20   A(7,9,19)             110.0405         estimate D2E/DX2                !
 ! A21   A(7,9,20)             110.215          estimate D2E/DX2                !
 ! A22   A(10,9,19)            109.9182         estimate D2E/DX2                !
 ! A23   A(10,9,20)            109.1066         estimate D2E/DX2                !
 ! A24   A(19,9,20)            108.0007         estimate D2E/DX2                !
 ! A25   A(9,10,11)            111.1497         estimate D2E/DX2                !
 ! A26   A(9,10,21)            109.9555         estimate D2E/DX2                !
 ! A27   A(9,10,22)            109.1685         estimate D2E/DX2                !
 ! A28   A(11,10,21)           109.7805         estimate D2E/DX2                !
 ! A29   A(11,10,22)           108.7829         estimate D2E/DX2                !
 ! A30   A(21,10,22)           107.9339         estimate D2E/DX2                !
 ! A31   A(10,11,12)           111.432          estimate D2E/DX2                !
 ! A32   A(10,11,23)           108.9643         estimate D2E/DX2                !
 ! A33   A(10,11,24)           109.9164         estimate D2E/DX2                !
 ! A34   A(12,11,23)           109.1146         estimate D2E/DX2                !
 ! A35   A(12,11,24)           109.7827         estimate D2E/DX2                !
 ! A36   A(23,11,24)           107.5408         estimate D2E/DX2                !
 ! A37   A(11,12,13)           111.9321         estimate D2E/DX2                !
 ! A38   A(11,12,25)           109.182          estimate D2E/DX2                !
 ! A39   A(11,12,26)           109.3337         estimate D2E/DX2                !
 ! A40   A(13,12,25)           109.1954         estimate D2E/DX2                !
 ! A41   A(13,12,26)           109.4012         estimate D2E/DX2                !
 ! A42   A(25,12,26)           107.7009         estimate D2E/DX2                !
 ! A43   A(7,13,12)            105.868          estimate D2E/DX2                !
 ! A44   A(7,13,14)            111.2372         estimate D2E/DX2                !
 ! A45   A(7,13,15)            113.3748         estimate D2E/DX2                !
 ! A46   A(12,13,14)           107.5213         estimate D2E/DX2                !
 ! A47   A(12,13,15)           108.4391         estimate D2E/DX2                !
 ! A48   A(14,13,15)           110.1113         estimate D2E/DX2                !
 ! A49   A(13,15,16)           118.5899         estimate D2E/DX2                !
 ! A50   A(4,16,15)            128.53           estimate D2E/DX2                !
 ! A51   A(4,16,27)            113.4799         estimate D2E/DX2                !
 ! A52   A(15,16,27)           117.9596         estimate D2E/DX2                !
 ! D1    D(1,2,4,5)           -173.5086         estimate D2E/DX2                !
 ! D2    D(1,2,4,16)             8.2586         Frozen                          !
 ! D3    D(3,2,4,5)              7.4938         estimate D2E/DX2                !
 ! D4    D(3,2,4,16)          -170.739          estimate D2E/DX2                !
 ! D5    D(2,4,5,6)            178.4977         estimate D2E/DX2                !
 ! D6    D(2,4,5,17)             0.0676         estimate D2E/DX2                !
 ! D7    D(16,4,5,6)            -3.4729         estimate D2E/DX2                !
 ! D8    D(16,4,5,17)          178.0971         estimate D2E/DX2                !
 ! D9    D(2,4,16,15)         -150.243          estimate D2E/DX2                !
 ! D10   D(2,4,16,27)           27.6804         estimate D2E/DX2                !
 ! D11   D(5,4,16,15)           31.7279         estimate D2E/DX2                !
 ! D12   D(5,4,16,27)         -150.3487         estimate D2E/DX2                !
 ! D13   D(4,5,6,7)            -15.778          estimate D2E/DX2                !
 ! D14   D(4,5,6,18)           147.9056         estimate D2E/DX2                !
 ! D15   D(17,5,6,7)           162.6872         estimate D2E/DX2                !
 ! D16   D(17,5,6,18)          -33.6292         estimate D2E/DX2                !
 ! D17   D(5,6,7,8)           -135.7441         estimate D2E/DX2                !
 ! D18   D(5,6,7,9)            108.3105         Frozen                          !
 ! D19   D(5,6,7,13)           -21.0583         estimate D2E/DX2                !
 ! D20   D(18,6,7,8)            58.7968         estimate D2E/DX2                !
 ! D21   D(18,6,7,9)           -57.1486         estimate D2E/DX2                !
 ! D22   D(18,6,7,13)          173.4826         estimate D2E/DX2                !
 ! D23   D(6,7,9,10)           168.2085         estimate D2E/DX2                !
 ! D24   D(6,7,9,19)           -70.8462         estimate D2E/DX2                !
 ! D25   D(6,7,9,20)            48.1568         estimate D2E/DX2                !
 ! D26   D(8,7,9,10)            52.7048         estimate D2E/DX2                !
 ! D27   D(8,7,9,19)           173.6502         estimate D2E/DX2                !
 ! D28   D(8,7,9,20)           -67.3468         estimate D2E/DX2                !
 ! D29   D(13,7,9,10)          -61.6206         estimate D2E/DX2                !
 ! D30   D(13,7,9,19)           59.3248         estimate D2E/DX2                !
 ! D31   D(13,7,9,20)          178.3278         estimate D2E/DX2                !
 ! D32   D(6,7,13,12)         -166.2218         estimate D2E/DX2                !
 ! D33   D(6,7,13,14)          -49.7179         estimate D2E/DX2                !
 ! D34   D(6,7,13,15)           75.0218         Frozen                          !
 ! D35   D(8,7,13,12)          -51.905          estimate D2E/DX2                !
 ! D36   D(8,7,13,14)           64.5989         estimate D2E/DX2                !
 ! D37   D(8,7,13,15)         -170.6614         estimate D2E/DX2                !
 ! D38   D(9,7,13,12)           62.5191         estimate D2E/DX2                !
 ! D39   D(9,7,13,14)          179.023          estimate D2E/DX2                !
 ! D40   D(9,7,13,15)          -56.2373         estimate D2E/DX2                !
 ! D41   D(7,9,10,11)           54.8122         Frozen                          !
 ! D42   D(7,9,10,21)          176.5817         estimate D2E/DX2                !
 ! D43   D(7,9,10,22)          -65.1868         estimate D2E/DX2                !
 ! D44   D(19,9,10,11)         -66.2072         estimate D2E/DX2                !
 ! D45   D(19,9,10,21)          55.5623         estimate D2E/DX2                !
 ! D46   D(19,9,10,22)         173.7938         estimate D2E/DX2                !
 ! D47   D(20,9,10,11)         175.5391         estimate D2E/DX2                !
 ! D48   D(20,9,10,21)         -62.6914         estimate D2E/DX2                !
 ! D49   D(20,9,10,22)          55.5401         estimate D2E/DX2                !
 ! D50   D(9,10,11,12)         -52.8222         Frozen                          !
 ! D51   D(9,10,11,23)          67.6329         estimate D2E/DX2                !
 ! D52   D(9,10,11,24)        -174.7567         estimate D2E/DX2                !
 ! D53   D(21,10,11,12)       -174.6936         estimate D2E/DX2                !
 ! D54   D(21,10,11,23)        -54.2386         estimate D2E/DX2                !
 ! D55   D(21,10,11,24)         63.3719         estimate D2E/DX2                !
 ! D56   D(22,10,11,12)         67.4054         estimate D2E/DX2                !
 ! D57   D(22,10,11,23)       -172.1395         estimate D2E/DX2                !
 ! D58   D(22,10,11,24)        -54.5291         estimate D2E/DX2                !
 ! D59   D(10,11,12,13)         56.3681         estimate D2E/DX2                !
 ! D60   D(10,11,12,25)        177.3892         estimate D2E/DX2                !
 ! D61   D(10,11,12,26)        -65.0159         estimate D2E/DX2                !
 ! D62   D(23,11,12,13)        -63.9985         estimate D2E/DX2                !
 ! D63   D(23,11,12,25)         57.0225         estimate D2E/DX2                !
 ! D64   D(23,11,12,26)        174.6175         estimate D2E/DX2                !
 ! D65   D(24,11,12,13)        178.3799         estimate D2E/DX2                !
 ! D66   D(24,11,12,25)        -60.599          estimate D2E/DX2                !
 ! D67   D(24,11,12,26)         56.996          estimate D2E/DX2                !
 ! D68   D(11,12,13,7)         -59.6234         estimate D2E/DX2                !
 ! D69   D(11,12,13,14)       -178.6125         estimate D2E/DX2                !
 ! D70   D(11,12,13,15)         62.3522         estimate D2E/DX2                !
 ! D71   D(25,12,13,7)         179.3633         estimate D2E/DX2                !
 ! D72   D(25,12,13,14)         60.3742         estimate D2E/DX2                !
 ! D73   D(25,12,13,15)        -58.6611         estimate D2E/DX2                !
 ! D74   D(26,12,13,7)          61.7216         estimate D2E/DX2                !
 ! D75   D(26,12,13,14)        -57.2675         estimate D2E/DX2                !
 ! D76   D(26,12,13,15)       -176.3028         estimate D2E/DX2                !
 ! D77   D(7,13,15,16)         -67.16           Frozen                          !
 ! D78   D(12,13,15,16)        175.5757         estimate D2E/DX2                !
 ! D79   D(14,13,15,16)         58.1856         estimate D2E/DX2                !
 ! D80   D(13,15,16,4)           3.9079         estimate D2E/DX2                !
 ! D81   D(13,15,16,27)       -173.9357         estimate D2E/DX2                !
 --------------------------------------------------------------------------------
 Trust Radius=3.00D-01 FncErr=1.00D-07 GrdErr=1.00D-07 EigMax=2.50D+02 EigMin=1.00D-04
 Number of steps in this run=     20 maximum allowed number of steps=    162.
 GradGradGradGradGradGradGradGradGradGradGradGradGradGradGradGradGradGrad

                          Input orientation:                          
 ---------------------------------------------------------------------
 Center     Atomic      Atomic             Coordinates (Angstroms)
 Number     Number       Type             X           Y           Z
 ---------------------------------------------------------------------
      1          8           0       -3.602940   -1.468250   -0.126560
      2          7           0       -3.253340   -0.301610    0.043840
      3          8           0       -4.038050    0.624180    0.253150
      4          6           0       -1.761040    0.008910   -0.033790
      5          6           0       -1.373170    1.311950    0.300900
      6          7           0       -0.084320    1.779270    0.322300
      7          6           0        1.189210    0.996220    0.323720
      8          1           0        1.835450    1.492460    1.094700
      9          6           0        1.993140    1.048970   -0.998270
     10          6           0        3.398240    0.460590   -0.770460
     11          6           0        3.317140   -0.956810   -0.181890
     12          6           0        2.432040   -0.992730    1.083190
     13          6           0        1.003100   -0.450010    0.807100
     14          1           0        0.438880   -0.485190    1.768750
     15          7           0        0.362140   -1.316330   -0.184860
     16          6           0       -0.873540   -1.092350   -0.496250
     17          1           0       -2.152890    2.032490    0.598950
     18          1           0        0.141020    2.751040    0.095940
     19          1           0        1.465160    0.473100   -1.788180
     20          1           0        2.090820    2.099200   -1.346430
     21          1           0        3.960400    0.438170   -1.729670
     22          1           0        3.956500    1.111730   -0.061200
     23          1           0        2.887550   -1.642350   -0.947060
     24          1           0        4.337560   -1.324470    0.062240
     25          1           0        2.360820   -2.040300    1.449700
     26          1           0        2.908560   -0.387060    1.882540
     27          1           0       -1.375400   -1.808810   -1.164400
 ---------------------------------------------------------------------
                    Distance matrix (angstroms):
                    1          2          3          4          5
     1  O    0.000000
     2  N    1.229758   0.000000
     3  O    2.170660   1.231531   0.000000
     4  C    2.362880   1.526240   2.376061   0.000000
     5  C    3.589444   2.490923   2.752616   1.400133   0.000000
     6  N    4.809215   3.801354   4.119587   2.464217   1.371124
     7  C    5.407501   4.636696   5.240958   3.131544   2.581859
     8  H    6.311368   5.497161   5.996676   4.050821   3.310279
     9  C    6.197773   5.516848   6.174281   4.013205   3.617878
    10  C    7.290511   6.744446   7.508192   5.231144   4.963767
    11  C    6.939174   6.606924   7.535755   5.171311   5.232530
    12  C    6.173378   5.820777   6.720523   4.453408   4.516985
    13  C    4.808756   4.326878   5.184008   2.925436   3.001233
    14  H    4.571096   4.079400   4.854961   2.886682   2.944116
    15  N    3.968418   3.762135   4.828986   2.507384   3.186710
    16  C    2.779855   2.565232   3.677254   1.488052   2.581809
    17  H    3.858003   2.639538   2.378391   2.156104   1.102713
    18  H    5.645277   4.565421   4.691788   3.339751   2.098990
    19  H    5.675866   5.120617   5.871556   3.701584   3.622712
    20  H    6.828886   6.021361   6.503644   4.574840   3.915697
    21  H    7.962946   7.465297   8.242656   5.982905   5.773532
    22  H    7.987847   7.347813   8.015569   5.822991   5.345707
    23  H    6.544463   6.363175   7.385228   5.016982   5.332825
    24  H    7.944045   7.659526   8.601426   6.243400   6.294450
    25  H    6.195020   6.043035   7.033969   4.836293   5.147815
    26  H    6.899644   6.430951   7.206449   5.063030   4.870465
    27  H    2.480933   2.694096   3.875383   2.175110   3.447644
                    6          7          8          9         10
     6  N    0.000000
     7  C    1.495008   0.000000
     8  H    2.089110   1.121735   0.000000
     9  C    2.567700   1.548142   2.145244   0.000000
    10  C    3.880885   2.522686   2.643083   1.540258   0.000000
    11  C    4.394345   2.932244   3.134328   2.538229   1.536885
    12  C    3.820341   2.465227   2.555821   2.948499   2.545918
    13  C    2.527292   1.536188   2.132770   2.546857   3.009084
    14  H    2.737469   2.201291   2.513136   3.525021   4.012468
    15  N    3.168482   2.508104   3.420120   2.986041   3.566269
    16  C    3.088542   3.047854   4.068291   3.613188   4.553561
    17  H    2.102293   3.509877   4.055152   4.550603   5.929688
    18  H    1.022914   2.056691   2.335088   2.743116   4.075082
    19  H    2.925935   2.193154   3.080131   1.111012   2.184653
    20  H    2.760118   2.195192   2.528332   1.110738   2.173967
    21  H    4.729576   3.493898   3.688361   2.185894   1.112030
    22  H    4.113503   2.796319   2.445386   2.176424   1.112963
    23  H    4.706460   3.385453   3.886223   2.836511   2.171255
    24  H    5.408683   3.919959   3.906613   3.500601   2.182235
    25  H    4.673206   3.443974   3.589210   3.958704   3.501400
    26  H    4.010569   2.701768   2.303227   3.346527   2.827845
    27  H    4.092858   4.081656   5.129471   4.420585   5.300283
                   11         12         13         14         15
    11  C    0.000000
    12  C    1.544383   0.000000
    13  C    2.567047   1.553268   0.000000
    14  H    3.508818   2.168012   1.115506   0.000000
    15  N    2.976792   2.448909   1.464693   2.124447   0.000000
    16  C    4.204639   3.664889   2.373415   2.687250   1.293845
    17  H    6.282265   5.514347   4.020747   3.797949   4.260790
    18  H    4.890100   4.498805   3.390524   3.655161   4.083043
    19  H    2.838070   3.365751   2.793047   3.824045   2.643737
    20  H    3.492737   3.947090   3.509886   4.371764   4.000428
    21  H    2.180682   3.506500   3.996209   5.049024   4.290942
    22  H    2.168457   2.839429   3.451891   4.274637   4.339377
    23  H    1.113552   2.179773   2.837235   3.835444   2.657994
    24  H    1.111769   2.187098   3.526772   4.337773   3.983100
    25  H    2.179584   1.112117   2.187547   2.492792   2.681537
    26  H    2.180235   1.110346   2.188907   2.474247   3.409097
    27  H    4.869411   4.496026   3.374968   3.694178   2.054527
                   16         17         18         19         20
    16  C    0.000000
    17  H    3.549764   0.000000
    18  H    4.018914   2.455882   0.000000
    19  H    3.096649   4.606558   3.239177   0.000000
    20  H    4.438043   4.668836   2.511383   1.797441   0.000000
    21  H    5.218313   6.733249   4.823887   2.496170   2.530064
    22  H    5.326962   6.213553   4.155709   3.097916   2.471371
    23  H    3.827731   6.426557   5.285182   2.684363   3.846228
    24  H    5.246080   7.326881   5.849946   3.860828   4.330555
    25  H    3.891840   6.138809   5.451341   4.195623   5.002670
    26  H    4.523313   5.755007   4.549603   4.037012   4.156493
    27  H    1.100728   4.297613   4.967919   3.696620   5.226888
                   21         22         23         24         25
    21  H    0.000000
    22  H    1.799303   0.000000
    23  H    2.468208   3.084211   0.000000
    24  H    2.541671   2.468910   1.795066   0.000000
    25  H    4.337034   3.842435   2.486014   2.518920   0.000000
    26  H    3.851679   2.668834   3.095615   2.496852   1.794595
    27  H    5.817148   6.178654   4.271731   5.863202   4.565791
                   26         27
    26  H    0.000000
    27  H    5.445873   0.000000
 Symmetry turned off by external request.
 Stoichiometry    C9H13N3O2
 Framework group  C1[X(C9H13N3O2)]
 Deg. of freedom    75
 Full point group                 C1      NOp   1
 Rotational constants (GHZ):           1.6834042           0.4003296           0.3551115
 Standard basis: 6-31G(d) (6D, 7F)
   236 basis functions,   444 primitive gaussians,   236 cartesian basis functions
    52 alpha electrons       52 beta electrons
       nuclear repulsion energy       917.6715511823 Hartrees.
 NAtoms=   27 NActive=   27 NUniq=   27 SFac= 1.00D+00 NAtFMM=   60 NAOKFM=F Big=F
 Integral buffers will be    131072 words long.
 Raffenetti 1 integral format.
 Two-electron integral symmetry is turned off.
 One-electron integrals computed using PRISM.
 NBasis=   236 RedAO= T EigKep=  1.29D-03  NBF=   236
 NBsUse=   236 1.00D-06 EigRej= -1.00D+00 NBFU=   236
 ExpMin= 1.61D-01 ExpMax= 5.48D+03 ExpMxC= 8.25D+02 IAcc=3 IRadAn=         5 AccDes= 0.00D+00
 Harris functional with IExCor=  205 and IRadAn=       5 diagonalized for initial guess.
 HarFok:  IExCor=  205 AccDes= 0.00D+00 IRadAn=         5 IDoV= 1 UseB2=F ITyADJ=14
 ICtDFT=  3500011 ScaDFX=  1.000000  1.000000  1.000000  1.000000
 FoFCou: FMM=F IPFlag=           0 FMFlag=      100000 FMFlg1=           0
         NFxFlg=           0 DoJE=T BraDBF=F KetDBF=T FulRan=T
         wScrn=  0.000000 ICntrl=       500 IOpCl=  0 I1Cent=   200000004 NGrid=           0
         NMat0=    1 NMatS0=      1 NMatT0=    0 NMatD0=    1 NMtDS0=    0 NMtDT0=    0
 Symmetry not used in FoFCou.
 Keep R1 ints in memory in canonical form, NReq=397720213.
 Requested convergence on RMS density matrix=1.00D-08 within 128 cycles.
 Requested convergence on MAX density matrix=1.00D-06.
 Requested convergence on             energy=1.00D-06.
 No special actions if energy rises.
 SCF Done:  E(RHF) =  -661.278595157     A.U. after   16 cycles
            NFock= 16  Conv=0.86D-08     -V/T= 2.0037
 ExpMin= 1.61D-01 ExpMax= 5.48D+03 ExpMxC= 8.25D+02 IAcc=3 IRadAn=         5 AccDes= 0.00D+00
 HarFok:  IExCor=  205 AccDes= 0.00D+00 IRadAn=         5 IDoV=-2 UseB2=F ITyADJ=14
 ICtDFT= 12500011 ScaDFX=  1.000000  1.000000  1.000000  1.000000
 Range of M.O.s used for correlation:    15   236
 NBasis=   236 NAE=    52 NBE=    52 NFC=    14 NFV=     0
 NROrb=    222 NOA=    38 NOB=    38 NVA=   184 NVB=   184
 Fully direct method using O(ONN) memory.
 JobTyp=1 Pass  1:  I=  15 to  52 NPSUse=  4 ParTrn=T ParDer=T DoDerP=T.
 Spin components of T(2) and E(2):
     alpha-alpha T2 =       0.9194639488D-01 E2=     -0.2717250052D+00
     alpha-beta  T2 =       0.5000049413D+00 E2=     -0.1494033605D+01
     beta-beta   T2 =       0.9194639488D-01 E2=     -0.2717250052D+00
 ANorm=    0.1297650851D+01
 E2 =    -0.2037483615D+01 EUMP2 =    -0.66331607877232D+03
          IDoAtm=111111111111111111111111111
          Differentiating once with respect to electric field.
                with respect to dipole field.
          Differentiating once with respect to nuclear coordinates.
 Keep R1 ints in memory in canonical form, NReq=397723379.
          There are     1 degrees of freedom in the 1st order CPHF.  IDoFFX=0 NUNeed=     1.
 LinEq1:  Iter=  0 NonCon=     1 RMS=4.60D-03 Max=1.09D-01 NDo=     1
 AX will form     1 AO Fock derivatives at one time.
 LinEq1:  Iter=  1 NonCon=     1 RMS=1.56D-03 Max=3.21D-02 NDo=     1
 LinEq1:  Iter=  2 NonCon=     1 RMS=6.38D-04 Max=1.75D-02 NDo=     1
 LinEq1:  Iter=  3 NonCon=     1 RMS=2.94D-04 Max=9.04D-03 NDo=     1
 LinEq1:  Iter=  4 NonCon=     1 RMS=9.04D-05 Max=2.07D-03 NDo=     1
 LinEq1:  Iter=  5 NonCon=     1 RMS=3.79D-05 Max=1.93D-03 NDo=     1
 LinEq1:  Iter=  6 NonCon=     1 RMS=1.55D-05 Max=5.91D-04 NDo=     1
 LinEq1:  Iter=  7 NonCon=     1 RMS=6.04D-06 Max=1.06D-04 NDo=     1
 LinEq1:  Iter=  8 NonCon=     1 RMS=2.42D-06 Max=6.26D-05 NDo=     1
 LinEq1:  Iter=  9 NonCon=     1 RMS=9.13D-07 Max=2.60D-05 NDo=     1
 LinEq1:  Iter= 10 NonCon=     1 RMS=4.47D-07 Max=1.50D-05 NDo=     1
 LinEq1:  Iter= 11 NonCon=     1 RMS=1.57D-07 Max=5.78D-06 NDo=     1
 LinEq1:  Iter= 12 NonCon=     1 RMS=5.52D-08 Max=8.18D-07 NDo=     1
 LinEq1:  Iter= 13 NonCon=     1 RMS=1.76D-08 Max=3.89D-07 NDo=     1
 LinEq1:  Iter= 14 NonCon=     1 RMS=5.75D-09 Max=1.61D-07 NDo=     1
 LinEq1:  Iter= 15 NonCon=     1 RMS=2.17D-09 Max=5.12D-08 NDo=     1
 LinEq1:  Iter= 16 NonCon=     1 RMS=8.23D-10 Max=1.31D-08 NDo=     1
 LinEq1:  Iter= 17 NonCon=     1 RMS=2.71D-10 Max=4.14D-09 NDo=     1
 LinEq1:  Iter= 18 NonCon=     1 RMS=9.20D-11 Max=1.05D-09 NDo=     1
 LinEq1:  Iter= 19 NonCon=     0 RMS=3.01D-11 Max=3.88D-10 NDo=     1
 Linear equations converged to 1.000D-10 1.000D-09 after    19 iterations.
 End of Minotr F.D. properties file   721 does not exist.
 End of Minotr F.D. properties file   722 does not exist.
 End of Minotr F.D. properties file   788 does not exist.

 **********************************************************************

            Population analysis using the SCF Density.

 **********************************************************************

 Alpha  occ. eigenvalues --  -20.59892 -20.59435 -15.85318 -15.62973 -15.57110
 Alpha  occ. eigenvalues --  -11.35775 -11.30546 -11.30162 -11.30021 -11.27741
 Alpha  occ. eigenvalues --  -11.24610 -11.23871 -11.23428 -11.22881  -1.58536
 Alpha  occ. eigenvalues --   -1.38043  -1.28445  -1.22807  -1.13245  -1.08362
 Alpha  occ. eigenvalues --   -1.01823  -1.00631  -0.93525  -0.88972  -0.84932
 Alpha  occ. eigenvalues --   -0.81552  -0.78080  -0.76877  -0.74256  -0.71043
 Alpha  occ. eigenvalues --   -0.70383  -0.69814  -0.67434  -0.64413  -0.63324
 Alpha  occ. eigenvalues --   -0.61569  -0.60569  -0.57432  -0.56402  -0.54936
 Alpha  occ. eigenvalues --   -0.53405  -0.50753  -0.49138  -0.48473  -0.47733
 Alpha  occ. eigenvalues --   -0.47571  -0.46113  -0.45749  -0.44031  -0.42116
 Alpha  occ. eigenvalues --   -0.40247  -0.33830
 Alpha virt. eigenvalues --    0.07158   0.11726   0.18499   0.21374   0.23280
 Alpha virt. eigenvalues --    0.24140   0.26229   0.27625   0.28557   0.28865
 Alpha virt. eigenvalues --    0.29936   0.31005   0.31876   0.32219   0.33334
 Alpha virt. eigenvalues --    0.33740   0.34211   0.35505   0.37593   0.38550
 Alpha virt. eigenvalues --    0.40700   0.41966   0.44748   0.45360   0.45671
 Alpha virt. eigenvalues --    0.45873   0.49614   0.53116   0.57614   0.58880
 Alpha virt. eigenvalues --    0.63291   0.69077   0.69533   0.72106   0.73968
 Alpha virt. eigenvalues --    0.75026   0.75760   0.75807   0.77570   0.79482
 Alpha virt. eigenvalues --    0.80421   0.83633   0.85237   0.85348   0.88093
 Alpha virt. eigenvalues --    0.88886   0.90235   0.90957   0.91842   0.93896
 Alpha virt. eigenvalues --    0.95460   0.97193   0.98614   1.00252   1.01940
 Alpha virt. eigenvalues --    1.02723   1.05127   1.06222   1.06905   1.08499
 Alpha virt. eigenvalues --    1.09457   1.10445   1.11063   1.11817   1.13257
 Alpha virt. eigenvalues --    1.13742   1.14275   1.15174   1.16325   1.17333
 Alpha virt. eigenvalues --    1.17882   1.19766   1.20958   1.22154   1.23093
 Alpha virt. eigenvalues --    1.23436   1.24390   1.25863   1.27213   1.27352
 Alpha virt. eigenvalues --    1.29405   1.31271   1.32865   1.35481   1.39958
 Alpha virt. eigenvalues --    1.42792   1.45566   1.47103   1.48580   1.52102
 Alpha virt. eigenvalues --    1.53695   1.55169   1.60983   1.61311   1.66036
 Alpha virt. eigenvalues --    1.69076   1.70194   1.72486   1.73589   1.76869
 Alpha virt. eigenvalues --    1.78565   1.79459   1.84168   1.88753   1.92769
 Alpha virt. eigenvalues --    1.93719   1.96224   1.97679   1.99074   2.00312
 Alpha virt. eigenvalues --    2.03159   2.04087   2.05799   2.08749   2.11931
 Alpha virt. eigenvalues --    2.12607   2.14662   2.17837   2.18752   2.19093
 Alpha virt. eigenvalues --    2.20961   2.22187   2.24324   2.24968   2.26634
 Alpha virt. eigenvalues --    2.29115   2.32391   2.34013   2.35795   2.35958
 Alpha virt. eigenvalues --    2.38410   2.39823   2.41240   2.43062   2.46191
 Alpha virt. eigenvalues --    2.48391   2.50301   2.51449   2.56696   2.57190
 Alpha virt. eigenvalues --    2.60907   2.62673   2.66362   2.68326   2.68813
 Alpha virt. eigenvalues --    2.69935   2.70522   2.74889   2.77764   2.80831
 Alpha virt. eigenvalues --    2.84212   2.86668   2.90198   2.91659   2.95494
 Alpha virt. eigenvalues --    2.97854   2.98439   3.02278   3.03047   3.05659
 Alpha virt. eigenvalues --    3.06749   3.12106   3.19706   3.22525   3.27188
 Alpha virt. eigenvalues --    3.29752   3.33458   3.36892   3.43390   3.59079
 Alpha virt. eigenvalues --    4.09566   4.23069   4.32151   4.36109   4.42877
 Alpha virt. eigenvalues --    4.52744   4.59725   4.59884   4.70784   4.77359
 Alpha virt. eigenvalues --    4.95662   4.99160   5.02468   5.10149
          Condensed to atoms (all electrons):
               1          2          3          4          5          6
     1  O    8.299167   0.313367  -0.089378  -0.079425   0.003426  -0.000015
     2  N    0.313367   5.685252   0.308385   0.263995  -0.044872   0.000930
     3  O   -0.089378   0.308385   8.330091  -0.086791   0.007872   0.000450
     4  C   -0.079425   0.263995  -0.086791   5.240567   0.569147  -0.049905
     5  C    0.003426  -0.044872   0.007872   0.569147   4.668696   0.306739
     6  N   -0.000015   0.000930   0.000450  -0.049905   0.306739   7.201229
     7  C    0.000003  -0.000094   0.000001   0.003470  -0.030123   0.197103
     8  H   -0.000000   0.000002  -0.000000  -0.000124   0.001899  -0.052376
     9  C   -0.000000  -0.000003   0.000000   0.000400   0.002028  -0.054544
    10  C   -0.000000   0.000000  -0.000000  -0.000015  -0.000072   0.003284
    11  C   -0.000000  -0.000000  -0.000000  -0.000017   0.000015  -0.000151
    12  C   -0.000000   0.000002  -0.000000  -0.000032  -0.000105   0.003552
    13  C   -0.000022  -0.000038  -0.000003  -0.011833   0.000556  -0.042213
    14  H   -0.000004  -0.000051   0.000000   0.003225   0.005446  -0.005622
    15  N    0.000104   0.001644  -0.000014  -0.060808  -0.003952   0.001910
    16  C    0.003909  -0.028050   0.001899   0.319942  -0.040456  -0.001794
    17  H    0.000111  -0.003707   0.011240  -0.028927   0.378716  -0.034357
    18  H    0.000000  -0.000036   0.000008   0.000771  -0.023423   0.327675
    19  H    0.000000   0.000001   0.000000  -0.000620   0.000442   0.000890
    20  H    0.000000  -0.000000   0.000000  -0.000023   0.000041  -0.002077
    21  H   -0.000000  -0.000000   0.000000   0.000000   0.000001  -0.000057
    22  H   -0.000000   0.000000  -0.000000  -0.000000  -0.000002  -0.000100
    23  H    0.000000  -0.000000   0.000000   0.000023  -0.000000  -0.000024
    24  H    0.000000   0.000000   0.000000   0.000000  -0.000000   0.000004
    25  H    0.000000  -0.000000   0.000000   0.000018  -0.000001  -0.000070
    26  H    0.000000  -0.000000   0.000000   0.000007  -0.000001  -0.000068
    27  H    0.004918  -0.000188  -0.000008  -0.064975   0.002178   0.000069
               7          8          9         10         11         12
     1  O    0.000003  -0.000000  -0.000000  -0.000000  -0.000000  -0.000000
     2  N   -0.000094   0.000002  -0.000003   0.000000  -0.000000   0.000002
     3  O    0.000001  -0.000000   0.000000  -0.000000  -0.000000  -0.000000
     4  C    0.003470  -0.000124   0.000400  -0.000015  -0.000017  -0.000032
     5  C   -0.030123   0.001899   0.002028  -0.000072   0.000015  -0.000105
     6  N    0.197103  -0.052376  -0.054544   0.003284  -0.000151   0.003552
     7  C    4.993193   0.418496   0.339251  -0.049030  -0.007583  -0.063368
     8  H    0.418496   0.552717  -0.062286   0.001595  -0.000396  -0.002807
     9  C    0.339251  -0.062286   5.182098   0.317691  -0.053022  -0.006467
    10  C   -0.049030   0.001595   0.317691   5.126731   0.332708  -0.059847
    11  C   -0.007583  -0.000396  -0.053022   0.332708   5.122875   0.330838
    12  C   -0.063368  -0.002807  -0.006467  -0.059847   0.330838   5.136194
    13  C    0.335629  -0.042022  -0.047890  -0.002098  -0.047656   0.367573
    14  H   -0.039973  -0.000958   0.003852  -0.000393   0.003929  -0.040774
    15  N   -0.057999   0.004149  -0.012552   0.001456  -0.007236  -0.073712
    16  C   -0.002946   0.000058  -0.001004  -0.000011  -0.000004   0.002753
    17  H    0.001482  -0.000011  -0.000064   0.000001   0.000000   0.000001
    18  H   -0.027690  -0.002256   0.000826  -0.000122   0.000011  -0.000129
    19  H   -0.035306   0.004237   0.385167  -0.032541  -0.002344   0.000651
    20  H   -0.041445  -0.001914   0.397588  -0.037507   0.004149  -0.000351
    21  H    0.004033  -0.000079  -0.035877   0.400266  -0.035887   0.004200
    22  H   -0.004177   0.003553  -0.045603   0.395912  -0.045529  -0.001290
    23  H    0.000383   0.000035  -0.002013  -0.040239   0.396735  -0.037044
    24  H   -0.000141  -0.000097   0.004386  -0.038411   0.400321  -0.037676
    25  H    0.004939  -0.000001  -0.000367   0.004095  -0.034012   0.395636
    26  H   -0.004438   0.001672   0.001012  -0.002399  -0.042406   0.394615
    27  H   -0.000407   0.000009  -0.000060   0.000005   0.000004  -0.000020
              13         14         15         16         17         18
     1  O   -0.000022  -0.000004   0.000104   0.003909   0.000111   0.000000
     2  N   -0.000038  -0.000051   0.001644  -0.028050  -0.003707  -0.000036
     3  O   -0.000003   0.000000  -0.000014   0.001899   0.011240   0.000008
     4  C   -0.011833   0.003225  -0.060808   0.319942  -0.028927   0.000771
     5  C    0.000556   0.005446  -0.003952  -0.040456   0.378716  -0.023423
     6  N   -0.042213  -0.005622   0.001910  -0.001794  -0.034357   0.327675
     7  C    0.335629  -0.039973  -0.057999  -0.002946   0.001482  -0.027690
     8  H   -0.042022  -0.000958   0.004149   0.000058  -0.000011  -0.002256
     9  C   -0.047890   0.003852  -0.012552  -0.001004  -0.000064   0.000826
    10  C   -0.002098  -0.000393   0.001456  -0.000011   0.000001  -0.000122
    11  C   -0.047656   0.003929  -0.007236  -0.000004   0.000000   0.000011
    12  C    0.367573  -0.040774  -0.073712   0.002753   0.000001  -0.000129
    13  C    5.028696   0.401028   0.238054  -0.070714  -0.000041   0.003524
    14  H    0.401028   0.520478  -0.036054  -0.004882   0.000085   0.000011
    15  N    0.238054  -0.036054   6.929502   0.585665  -0.000069  -0.000118
    16  C   -0.070714  -0.004882   0.585665   4.704715   0.001635  -0.000225
    17  H   -0.000041   0.000085  -0.000069   0.001635   0.388432  -0.001640
    18  H    0.003524   0.000011  -0.000118  -0.000225  -0.001640   0.322265
    19  H   -0.006386   0.000064   0.007020   0.002557   0.000010  -0.000123
    20  H    0.003807  -0.000048   0.000065  -0.000030  -0.000000   0.003069
    21  H   -0.000363   0.000009  -0.000025   0.000002  -0.000000  -0.000000
    22  H    0.000351  -0.000045   0.000001  -0.000001   0.000000   0.000002
    23  H   -0.005646   0.000006   0.006570   0.000042   0.000000   0.000000
    24  H    0.004098  -0.000057   0.000037   0.000005   0.000000  -0.000000
    25  H   -0.034600  -0.002611   0.000581  -0.000059  -0.000000   0.000002
    26  H   -0.044652  -0.000986   0.004175  -0.000067   0.000000  -0.000001
    27  H    0.004920  -0.000181  -0.039438   0.401646  -0.000057   0.000003
              19         20         21         22         23         24
     1  O    0.000000   0.000000  -0.000000  -0.000000   0.000000   0.000000
     2  N    0.000001  -0.000000  -0.000000   0.000000  -0.000000   0.000000
     3  O    0.000000   0.000000   0.000000  -0.000000   0.000000   0.000000
     4  C   -0.000620  -0.000023   0.000000  -0.000000   0.000023   0.000000
     5  C    0.000442   0.000041   0.000001  -0.000002  -0.000000  -0.000000
     6  N    0.000890  -0.002077  -0.000057  -0.000100  -0.000024   0.000004
     7  C   -0.035306  -0.041445   0.004033  -0.004177   0.000383  -0.000141
     8  H    0.004237  -0.001914  -0.000079   0.003553   0.000035  -0.000097
     9  C    0.385167   0.397588  -0.035877  -0.045603  -0.002013   0.004386
    10  C   -0.032541  -0.037507   0.400266   0.395912  -0.040239  -0.038411
    11  C   -0.002344   0.004149  -0.035887  -0.045529   0.396735   0.400321
    12  C    0.000651  -0.000351   0.004200  -0.001290  -0.037044  -0.037676
    13  C   -0.006386   0.003807  -0.000363   0.000351  -0.005646   0.004098
    14  H    0.000064  -0.000048   0.000009  -0.000045   0.000006  -0.000057
    15  N    0.007020   0.000065  -0.000025   0.000001   0.006570   0.000037
    16  C    0.002557  -0.000030   0.000002  -0.000001   0.000042   0.000005
    17  H    0.000010  -0.000000  -0.000000   0.000000   0.000000   0.000000
    18  H   -0.000123   0.003069  -0.000000   0.000002   0.000000  -0.000000
    19  H    0.508327  -0.024042  -0.002599   0.003765   0.001668  -0.000069
    20  H   -0.024042   0.550179  -0.002595  -0.002953  -0.000050  -0.000090
    21  H   -0.002599  -0.002595   0.526186  -0.024720  -0.002829  -0.002043
    22  H    0.003765  -0.002953  -0.024720   0.568243   0.004070  -0.003568
    23  H    0.001668  -0.000050  -0.002829   0.004070   0.511114  -0.024953
    24  H   -0.000069  -0.000090  -0.002043  -0.003568  -0.024953   0.540391
    25  H   -0.000027   0.000011  -0.000086  -0.000082  -0.002133  -0.002358
    26  H    0.000024  -0.000035  -0.000075   0.002471   0.003854  -0.002797
    27  H    0.000074  -0.000000  -0.000000   0.000000  -0.000019  -0.000000
              25         26         27
     1  O    0.000000   0.000000   0.004918
     2  N   -0.000000  -0.000000  -0.000188
     3  O    0.000000   0.000000  -0.000008
     4  C    0.000018   0.000007  -0.064975
     5  C   -0.000001  -0.000001   0.002178
     6  N   -0.000070  -0.000068   0.000069
     7  C    0.004939  -0.004438  -0.000407
     8  H   -0.000001   0.001672   0.000009
     9  C   -0.000367   0.001012  -0.000060
    10  C    0.004095  -0.002399   0.000005
    11  C   -0.034012  -0.042406   0.000004
    12  C    0.395636   0.394615  -0.000020
    13  C   -0.034600  -0.044652   0.004920
    14  H   -0.002611  -0.000986  -0.000181
    15  N    0.000581   0.004175  -0.039438
    16  C   -0.000059  -0.000067   0.401646
    17  H   -0.000000   0.000000  -0.000057
    18  H    0.000002  -0.000001   0.000003
    19  H   -0.000027   0.000024   0.000074
    20  H    0.000011  -0.000035  -0.000000
    21  H   -0.000086  -0.000075  -0.000000
    22  H   -0.000082   0.002471   0.000000
    23  H   -0.002133   0.003854  -0.000019
    24  H   -0.002358  -0.002797  -0.000000
    25  H    0.510723  -0.023112  -0.000009
    26  H   -0.023112   0.560574   0.000001
    27  H   -0.000009   0.000001   0.453593
 Mulliken charges:
               1
     1  O   -0.456161
     2  N    0.503462
     3  O   -0.483754
     4  C   -0.018069
     5  C    0.195806
     6  N   -0.800461
     7  C    0.066735
     8  H    0.176906
     9  C   -0.312547
    10  C   -0.321059
    11  C   -0.315343
    12  C   -0.312392
    13  C   -0.032056
    14  H    0.194506
    15  N   -0.488957
    16  C    0.125414
    17  H    0.287161
    18  H    0.397594
    19  H    0.189159
    20  H    0.154254
    21  H    0.172539
    22  H    0.149703
    23  H    0.190449
    24  H    0.163016
    25  H    0.183519
    26  H    0.152632
    27  H    0.237944
 Sum of Mulliken charges =  -0.00000
 Mulliken charges with hydrogens summed into heavy atoms:
               1
     1  O   -0.456161
     2  N    0.503462
     3  O   -0.483754
     4  C   -0.018069
     5  C    0.482967
     6  N   -0.402867
     7  C    0.243641
     9  C    0.030865
    10  C    0.001184
    11  C    0.038122
    12  C    0.023760
    13  C    0.162450
    15  N   -0.488957
    16  C    0.363357
 Electronic spatial extent (au):  <R**2>=           3124.6732
 Charge=              0.0000 electrons
 Dipole moment (field-independent basis, Debye):
    X=              5.2987    Y=              4.4528    Z=              0.3502  Tot=              6.9301
 Quadrupole moment (field-independent basis, Debye-Ang):
   XX=           -105.2736   YY=            -80.5512   ZZ=            -82.1310
   XY=             -2.1291   XZ=              1.4699   YZ=             -0.1901
 Traceless Quadrupole moment (field-independent basis, Debye-Ang):
   XX=            -15.9550   YY=              8.7674   ZZ=              7.1876
   XY=             -2.1291   XZ=              1.4699   YZ=             -0.1901
 Octapole moment (field-independent basis, Debye-Ang**2):
  XXX=            100.5974  YYY=             37.0407  ZZZ=             -6.1948  XYY=             -1.1421
  XXY=             12.4444  XXZ=             -4.1695  XZZ=             -8.6739  YZZ=             -2.7195
  YYZ=             -0.5096  XYZ=             -2.0677
 Hexadecapole moment (field-independent basis, Debye-Ang**3):
 XXXX=          -3555.8414 YYYY=           -621.5054 ZZZZ=           -297.8799 XXXY=            -49.5547
 XXXZ=             56.5756 YYYX=            -27.4877 YYYZ=              8.6790 ZZZX=             37.1983
 ZZZY=             10.6377 XXYY=           -657.2979 XXZZ=           -543.6838 YYZZ=           -163.7348
 XXYZ=              2.5663 YYXZ=             15.2601 ZZXY=              0.8567
 N-N= 9.176715511823D+02 E-N=-3.381348438180D+03  KE= 6.588547018805D+02
 Calling FoFJK, ICntrl=  10002127 FMM=F ISym2X=0 I1Cent= 0 IOpClX= 0 NMat=1 NMatS=1 NMatT=0.
 -------------------------------------------------------------------
 Center     Atomic                   Forces (Hartrees/Bohr)
 Number     Number              X              Y              Z
 -------------------------------------------------------------------
      1        8           0.002408251   -0.019459723   -0.003990764
      2        7           0.038746516    0.014264901   -0.001910767
      3        8          -0.005366053    0.015394488    0.004150324
      4        6          -0.002499347    0.010511823    0.010453504
      5        6           0.001569605   -0.017509134   -0.009027544
      6        7           0.015337659   -0.012713318   -0.004404398
      7        6          -0.002758300    0.007221084    0.004750726
      8        1          -0.009260357   -0.002118869   -0.007838380
      9        6          -0.004683855   -0.000850150   -0.002769799
     10        6           0.002992554   -0.000842986    0.001173547
     11        6          -0.001944779   -0.004640972   -0.002651542
     12        6           0.001603135   -0.008245456   -0.002250262
     13        6           0.009666144   -0.002465797    0.005237536
     14        1           0.000679344    0.004739327   -0.009890641
     15        7          -0.001644250    0.003833220   -0.002021557
     16        6          -0.020840476    0.005254207    0.006290093
     17        1           0.006392950   -0.005249978   -0.008485867
     18        1          -0.016940944   -0.001517547    0.008268250
     19        1           0.003092852    0.006069140    0.007550207
     20        1          -0.003386303   -0.007304437    0.002578968
     21        1          -0.004628275    0.002393310    0.009514797
     22        1          -0.003803486   -0.003988130   -0.007520220
     23        1           0.003996786    0.006097246    0.009251840
     24        1          -0.009368946    0.002624373   -0.002303073
     25        1          -0.000763325    0.010588470   -0.002402705
     26        1          -0.004767140   -0.004845403   -0.004475245
     27        1           0.006170040    0.002760310    0.002722971
 -------------------------------------------------------------------
 Cartesian Forces:  Max     0.038746516 RMS     0.008558304

 GradGradGradGradGradGradGradGradGradGradGradGradGradGradGradGradGradGrad
 Berny optimization.
 FormGI is forming the generalized inverse of G from B-inverse, IUseBI=4.
 Internal  Forces:  Max     0.037157096 RMS     0.006829352
 Search for a local minimum.
 Step number   1 out of a maximum of   20
 All quantities printed in internal units (Hartrees-Bohrs-Radians)
 Mixed Optimization -- RFO/linear search
 Second derivative matrix not updated -- first step.
 ITU=  0
     Eigenvalues ---    0.00231   0.00828   0.01043   0.01169   0.01214
     Eigenvalues ---    0.01515   0.01552   0.01939   0.02013   0.02081
     Eigenvalues ---    0.02656   0.03310   0.04418   0.04681   0.04825
     Eigenvalues ---    0.04999   0.05129   0.05305   0.05546   0.06246
     Eigenvalues ---    0.06922   0.07668   0.07718   0.07865   0.07989
     Eigenvalues ---    0.08051   0.08110   0.10467   0.11673   0.12106
     Eigenvalues ---    0.13022   0.15339   0.15650   0.15995   0.15998
     Eigenvalues ---    0.19600   0.21753   0.23024   0.24988   0.25000
     Eigenvalues ---    0.25000   0.25385   0.26084   0.26640   0.27989
     Eigenvalues ---    0.28108   0.28450   0.29773   0.31382   0.31388
     Eigenvalues ---    0.32024   0.32227   0.32288   0.32377   0.32386
     Eigenvalues ---    0.32413   0.32493   0.32522   0.32563   0.33184
     Eigenvalues ---    0.33384   0.33602   0.35339   0.43876   0.44135
     Eigenvalues ---    0.48880   0.66470   0.90452   0.911871000.00000
     Eigenvalues --- 1000.000001000.000001000.000001000.000001000.00000
     Eigenvalues --- 1000.000001000.000001000.000001000.000001000.00000
     Eigenvalues --- 1000.000001000.000001000.000001000.000001000.00000
     Eigenvalues --- 1000.000001000.000001000.000001000.000001000.00000
     Eigenvalues --- 1000.000001000.000001000.000001000.000001000.00000
     Eigenvalues --- 1000.000001000.000001000.000001000.000001000.00000
     Eigenvalues --- 1000.000001000.000001000.000001000.000001000.00000
     Eigenvalues --- 1000.000001000.000001000.000001000.000001000.00000
     Eigenvalues --- 1000.000001000.000001000.000001000.000001000.00000
     Eigenvalues --- 1000.000001000.000001000.000001000.000001000.00000
     Eigenvalues --- 1000.000001000.000001000.000001000.000001000.00000
     Eigenvalues --- 1000.000001000.000001000.000001000.000001000.00000
     Eigenvalues --- 1000.000001000.000001000.000001000.000001000.00000
     Eigenvalues --- 1000.000001000.000001000.000001000.000001000.00000
     Eigenvalues --- 1000.000001000.000001000.000001000.000001000.00000
     Eigenvalues --- 1000.000001000.000001000.000001000.000001000.00000
     Eigenvalues --- 1000.000001000.000001000.000001000.000001000.00000
     Eigenvalues --- 1000.000001000.000001000.000001000.000001000.00000
     Eigenvalues --- 1000.00000
 RFO step:  Lambda=-2.35671588D-02 EMin= 2.31105524D-03
 Linear search not attempted -- first point.
 Iteration  1 RMS(Cart)=  0.05138064 RMS(Int)=  0.00103895
 Iteration  2 RMS(Cart)=  0.00105499 RMS(Int)=  0.00034837
 Iteration  3 RMS(Cart)=  0.00000075 RMS(Int)=  0.00034837
 Iteration  1 RMS(Cart)=  0.00004127 RMS(Int)=  0.00003321
 Iteration  2 RMS(Cart)=  0.00002828 RMS(Int)=  0.00003667
 Iteration  3 RMS(Cart)=  0.00001975 RMS(Int)=  0.00004194
 Iteration  4 RMS(Cart)=  0.00001388 RMS(Int)=  0.00004633
 Iteration  5 RMS(Cart)=  0.00000979 RMS(Int)=  0.00004959
 Iteration  6 RMS(Cart)=  0.00000693 RMS(Int)=  0.00005192
 Iteration  7 RMS(Cart)=  0.00000493 RMS(Int)=  0.00005357
 Iteration  8 RMS(Cart)=  0.00000353 RMS(Int)=  0.00005473
 Iteration  9 RMS(Cart)=  0.00000255 RMS(Int)=  0.00005554
 Iteration 10 RMS(Cart)=  0.00000186 RMS(Int)=  0.00005611
 Iteration 11 RMS(Cart)=  0.00000137 RMS(Int)=  0.00005652
 Iteration 12 RMS(Cart)=  0.00000103 RMS(Int)=  0.00005680
 Iteration 13 RMS(Cart)=  0.00000078 RMS(Int)=  0.00005701
 Variable       Old X    -DE/DX   Delta X   Delta X   Delta X     New X
                                 (Linear)    (Quad)   (Total)
    R1        2.32391   0.01833   0.00000   0.01959   0.01959   2.34350
    R2        2.32726   0.01570   0.00000   0.01691   0.01691   2.34417
    R3        2.88418  -0.03716   0.00000  -0.11565  -0.11565   2.76853
    R4        2.64587  -0.03566   0.00000  -0.07627  -0.07599   2.56988
    R5        2.81201  -0.02122   0.00000  -0.05794  -0.05768   2.75433
    R6        2.59105  -0.02238   0.00000  -0.04473  -0.04462   2.54643
    R7        2.08382  -0.01024   0.00000  -0.02866  -0.02866   2.05516
    R8        2.82516  -0.01941   0.00000  -0.05646  -0.05649   2.76866
    R9        1.93303  -0.00700   0.00000  -0.01515  -0.01515   1.91788
   R10        2.11977  -0.01166   0.00000  -0.03455  -0.03455   2.08522
   R11        2.92556  -0.01291   0.00000  -0.04642  -0.04648   2.87908
   R12        2.90298  -0.00556   0.00000  -0.01284  -0.01277   2.89020
   R13        2.91067  -0.00483   0.00000  -0.01456  -0.01456   2.89610
   R14        2.09951  -0.00998   0.00000  -0.02865  -0.02865   2.07086
   R15        2.09899  -0.00801   0.00000  -0.02297  -0.02297   2.07602
   R16        2.90429  -0.00196   0.00000  -0.00652  -0.00656   2.89774
   R17        2.10143  -0.01060   0.00000  -0.03050  -0.03050   2.07094
   R18        2.10320  -0.00903   0.00000  -0.02607  -0.02607   2.07712
   R19        2.91846  -0.00915   0.00000  -0.02663  -0.02657   2.89189
   R20        2.10431  -0.01165   0.00000  -0.03369  -0.03369   2.07061
   R21        2.10094  -0.00997   0.00000  -0.02868  -0.02868   2.07226
   R22        2.93525  -0.01046   0.00000  -0.03656  -0.03656   2.89869
   R23        2.10160  -0.01072   0.00000  -0.03085  -0.03085   2.07074
   R24        2.09825  -0.00791   0.00000  -0.02265  -0.02265   2.07560
   R25        2.10800  -0.00902   0.00000  -0.02623  -0.02623   2.08177
   R26        2.76787  -0.00456   0.00000  -0.01096  -0.01144   2.75642
   R27        2.44501  -0.00710   0.00000  -0.00901  -0.00916   2.43586
   R28        2.08008  -0.00626   0.00000  -0.01742  -0.01742   2.06266
    A1        2.15984   0.01080   0.00000   0.03964   0.03947   2.19931
    A2        2.05322  -0.00783   0.00000  -0.02846  -0.02864   2.02458
    A3        2.06999  -0.00296   0.00000  -0.01064  -0.01081   2.05917
    A4        2.03538  -0.00631   0.00000  -0.02240  -0.02273   2.01265
    A5        2.03576  -0.00355   0.00000  -0.01217  -0.01254   2.02322
    A6        2.21157   0.00982   0.00000   0.03369   0.03395   2.24552
    A7        2.19115   0.00592   0.00000   0.01466   0.01489   2.20604
    A8        2.06785  -0.00335   0.00000  -0.00917  -0.00952   2.05834
    A9        2.02388  -0.00255   0.00000  -0.00475  -0.00509   2.01879
   A10        2.24239  -0.00456   0.00000  -0.01976  -0.01998   2.22242
   A11        2.12634  -0.01262   0.00000  -0.06626  -0.06712   2.05922
   A12        1.88614   0.01731   0.00000   0.09740   0.09736   1.98350
   A13        1.83351  -0.00065   0.00000  -0.01953  -0.01944   1.81407
   A14        2.00832  -0.00167   0.00000  -0.00989  -0.00977   1.99855
   A15        1.97165   0.00054   0.00000   0.00645   0.00616   1.97781
   A16        1.84696   0.00276   0.00000   0.01454   0.01452   1.86148
   A17        1.84420   0.00058   0.00000   0.01165   0.01134   1.85554
   A18        1.94302  -0.00112   0.00000  -0.00160  -0.00135   1.94167
   A19        1.91177  -0.00011   0.00000  -0.00543  -0.00562   1.90615
   A20        1.92057  -0.00050   0.00000  -0.01020  -0.01015   1.91041
   A21        1.92362  -0.00163   0.00000  -0.00841  -0.00834   1.91527
   A22        1.91843  -0.00039   0.00000   0.00715   0.00720   1.92564
   A23        1.90427   0.00315   0.00000   0.02299   0.02296   1.92723
   A24        1.88497  -0.00049   0.00000  -0.00574  -0.00600   1.87897
   A25        1.93993  -0.00098   0.00000   0.00599   0.00596   1.94589
   A26        1.91908  -0.00072   0.00000  -0.00655  -0.00660   1.91248
   A27        1.90535   0.00040   0.00000  -0.00339  -0.00347   1.90188
   A28        1.91603   0.00092   0.00000   0.00768   0.00771   1.92374
   A29        1.89862   0.00163   0.00000   0.01033   0.01032   1.90894
   A30        1.88380  -0.00124   0.00000  -0.01456  -0.01463   1.86918
   A31        1.94486   0.00055   0.00000   0.00309   0.00311   1.94796
   A32        1.90179   0.00065   0.00000   0.00576   0.00576   1.90755
   A33        1.91840   0.00037   0.00000   0.00604   0.00602   1.92443
   A34        1.90441  -0.00084   0.00000  -0.01180  -0.01182   1.89259
   A35        1.91607  -0.00062   0.00000  -0.00032  -0.00036   1.91570
   A36        1.87694  -0.00013   0.00000  -0.00308  -0.00313   1.87381
   A37        1.95358  -0.00300   0.00000  -0.01197  -0.01202   1.94156
   A38        1.90559   0.00260   0.00000   0.01887   0.01880   1.92438
   A39        1.90823   0.00144   0.00000   0.00916   0.00912   1.91735
   A40        1.90582   0.00004   0.00000  -0.00346  -0.00336   1.90246
   A41        1.90941  -0.00012   0.00000  -0.00785  -0.00781   1.90160
   A42        1.87974  -0.00088   0.00000  -0.00447  -0.00464   1.87509
   A43        1.84774   0.00422   0.00000   0.02248   0.02248   1.87022
   A44        1.94146  -0.00430   0.00000  -0.03305  -0.03352   1.90794
   A45        1.97876   0.00091   0.00000   0.01350   0.01390   1.99267
   A46        1.87660   0.00233   0.00000   0.03159   0.03198   1.90858
   A47        1.89262  -0.00325   0.00000  -0.02423  -0.02446   1.86816
   A48        1.92180   0.00033   0.00000  -0.00764  -0.00762   1.91419
   A49        2.06978  -0.00540   0.00000  -0.02128  -0.02181   2.04797
   A50        2.24327  -0.00452   0.00000  -0.01870  -0.01843   2.22484
   A51        1.98060   0.00604   0.00000   0.02997   0.02969   2.01029
   A52        2.05878  -0.00144   0.00000  -0.01046  -0.01075   2.04803
    D1       -3.02830  -0.00100   0.00000  -0.02835  -0.02789  -3.05618
    D2        0.14414  -0.00003   0.00000   0.00000  -0.00000   0.14414
    D3        0.13079  -0.00172   0.00000  -0.06196  -0.06173   0.06906
    D4       -2.97996  -0.00075   0.00000  -0.03361  -0.03384  -3.01380
    D5        3.11537  -0.00066   0.00000   0.00653   0.00649   3.12186
    D6        0.00118  -0.00140   0.00000  -0.02719  -0.02744  -0.02626
    D7       -0.06061  -0.00205   0.00000  -0.02616  -0.02678  -0.08739
    D8        3.10838  -0.00279   0.00000  -0.05988  -0.06071   3.04767
    D9       -2.62224  -0.00220   0.00000  -0.02648  -0.02708  -2.64932
   D10        0.48311   0.00057   0.00000   0.00090   0.00063   0.48374
   D11        0.55376  -0.00076   0.00000   0.00639   0.00652   0.56028
   D12       -2.62408   0.00201   0.00000   0.03377   0.03423  -2.58985
   D13       -0.27538   0.00118   0.00000   0.01339   0.01376  -0.26162
   D14        2.58144   0.00432   0.00000   0.08362   0.08155   2.66299
   D15        2.83943   0.00189   0.00000   0.04628   0.04695   2.88637
   D16       -0.58694   0.00503   0.00000   0.11651   0.11474  -0.47220
   D17       -2.36918  -0.00122   0.00000  -0.00014   0.00021  -2.36897
   D18        1.89037  -0.00330   0.00000   0.00000   0.00000   1.89038
   D19       -0.36754  -0.00065   0.00000   0.00538   0.00520  -0.36234
   D20        1.02620  -0.00051   0.00000  -0.04346  -0.04452   0.98168
   D21       -0.99743  -0.00259   0.00000  -0.04332  -0.04472  -1.04216
   D22        3.02784   0.00006   0.00000  -0.03793  -0.03953   2.98831
   D23        2.93579   0.00292   0.00000   0.01176   0.01169   2.94749
   D24       -1.23650   0.00205   0.00000   0.01070   0.01069  -1.22581
   D25        0.84050   0.00012   0.00000  -0.00795  -0.00788   0.83261
   D26        0.91987   0.00281   0.00000   0.03155   0.03138   0.95125
   D27        3.03077   0.00193   0.00000   0.03049   0.03037   3.06114
   D28       -1.17542   0.00000   0.00000   0.01184   0.01180  -1.16362
   D29       -1.07548   0.00113   0.00000   0.01050   0.01042  -1.06507
   D30        1.03541   0.00026   0.00000   0.00945   0.00941   1.04482
   D31        3.11241  -0.00167   0.00000  -0.00921  -0.00916   3.10325
   D32       -2.90112  -0.00170   0.00000  -0.00753  -0.00731  -2.90843
   D33       -0.86774   0.00130   0.00000   0.02607   0.02590  -0.84184
   D34        1.30938  -0.00097   0.00000   0.00000  -0.00000   1.30937
   D35       -0.90591  -0.00186   0.00000  -0.02076  -0.02075  -0.92667
   D36        1.12746   0.00114   0.00000   0.01284   0.01246   1.13992
   D37       -2.97860  -0.00113   0.00000  -0.01323  -0.01345  -2.99205
   D38        1.09116   0.00117   0.00000   0.00207   0.00215   1.09332
   D39        3.12454   0.00418   0.00000   0.03566   0.03537  -3.12328
   D40       -0.98153   0.00190   0.00000   0.00960   0.00946  -0.97207
   D41        0.95665   0.00058   0.00000   0.00000   0.00000   0.95666
   D42        3.08193   0.00060   0.00000   0.00923   0.00920   3.09114
   D43       -1.13772  -0.00109   0.00000  -0.01437  -0.01433  -1.15205
   D44       -1.15553   0.00152   0.00000   0.01155   0.01161  -1.14393
   D45        0.96974   0.00154   0.00000   0.02078   0.02081   0.99055
   D46        3.03327  -0.00015   0.00000  -0.00281  -0.00273   3.03055
   D47        3.06374   0.00046   0.00000   0.00058   0.00051   3.06424
   D48       -1.09417   0.00048   0.00000   0.00981   0.00971  -1.08446
   D49        0.96936  -0.00121   0.00000  -0.01378  -0.01383   0.95553
   D50       -0.92192  -0.00103   0.00000   0.00000   0.00000  -0.92192
   D51        1.18042  -0.00131   0.00000  -0.00897  -0.00898   1.17144
   D52       -3.05008  -0.00087   0.00000  -0.00582  -0.00583  -3.05591
   D53       -3.04898  -0.00010   0.00000  -0.00092  -0.00093  -3.04991
   D54       -0.94664  -0.00037   0.00000  -0.00989  -0.00991  -0.95655
   D55        1.10605   0.00006   0.00000  -0.00674  -0.00676   1.09929
   D56        1.17645  -0.00009   0.00000   0.00619   0.00621   1.18266
   D57       -3.00440  -0.00037   0.00000  -0.00278  -0.00277  -3.00717
   D58       -0.95171   0.00007   0.00000   0.00037   0.00038  -0.95133
   D59        0.98381  -0.00054   0.00000  -0.01491  -0.01490   0.96891
   D60        3.09602  -0.00067   0.00000  -0.01420  -0.01428   3.08174
   D61       -1.13474   0.00060   0.00000  -0.00342  -0.00337  -1.13811
   D62       -1.11699  -0.00114   0.00000  -0.01627  -0.01624  -1.13323
   D63        0.99523  -0.00127   0.00000  -0.01556  -0.01563   0.97960
   D64        3.04765  -0.00000   0.00000  -0.00478  -0.00472   3.04293
   D65        3.11332  -0.00013   0.00000  -0.00542  -0.00541   3.10791
   D66       -1.05765  -0.00026   0.00000  -0.00471  -0.00480  -1.06245
   D67        0.99477   0.00101   0.00000   0.00607   0.00611   1.00088
   D68       -1.04062  -0.00011   0.00000   0.00935   0.00937  -1.03126
   D69       -3.11738   0.00153   0.00000   0.02030   0.01995  -3.09743
   D70        1.08825   0.00162   0.00000   0.02502   0.02507   1.11332
   D71        3.13048  -0.00145   0.00000  -0.00428  -0.00418   3.12630
   D72        1.05373   0.00019   0.00000   0.00667   0.00640   1.06013
   D73       -1.02383   0.00027   0.00000   0.01139   0.01152  -1.01231
   D74        1.07725  -0.00035   0.00000   0.00765   0.00776   1.08501
   D75       -0.99951   0.00129   0.00000   0.01860   0.01834  -0.98117
   D76       -3.07706   0.00138   0.00000   0.02332   0.02346  -3.05361
   D77       -1.17216   0.00291   0.00000   0.00000  -0.00000  -1.17217
   D78        3.06437  -0.00074   0.00000  -0.02006  -0.01991   3.04446
   D79        1.01553  -0.00184   0.00000  -0.03965  -0.03987   0.97566
   D80        0.06821   0.00357   0.00000   0.01374   0.01374   0.08194
   D81       -3.03575   0.00057   0.00000  -0.01539  -0.01520  -3.05095
         Item               Value     Threshold  Converged?
 Maximum Force            0.037157     0.000450     NO 
 RMS     Force            0.006931     0.000300     NO 
 Maximum Displacement     0.279949     0.001800     NO 
 RMS     Displacement     0.051619     0.001200     NO 
 Predicted change in Energy=-1.323391D-02
 GradGradGradGradGradGradGradGradGradGradGradGradGradGradGradGradGradGrad

                          Input orientation:                          
 ---------------------------------------------------------------------
 Center     Atomic      Atomic             Coordinates (Angstroms)
 Number     Number       Type             X           Y           Z
 ---------------------------------------------------------------------
      1          8           0       -3.468459   -1.451180   -0.132522
      2          7           0       -3.129357   -0.272258    0.049325
      3          8           0       -3.889907    0.674917    0.300752
      4          6           0       -1.691844    0.000994   -0.023073
      5          6           0       -1.326103    1.275166    0.280422
      6          7           0       -0.069839    1.761941    0.305677
      7          6           0        1.179532    0.996754    0.316489
      8          1           0        1.794875    1.503310    1.079614
      9          6           0        1.966478    1.053109   -0.986864
     10          6           0        3.360398    0.457726   -0.760551
     11          6           0        3.278597   -0.959082   -0.179750
     12          6           0        2.403091   -1.004322    1.074573
     13          6           0        1.002377   -0.445003    0.795137
     14          1           0        0.414696   -0.450025    1.726898
     15          7           0        0.377563   -1.326982   -0.184323
     16          6           0       -0.856073   -1.101308   -0.482206
     17          1           0       -2.111922    1.986520    0.523766
     18          1           0        0.060870    2.752233    0.126080
     19          1           0        1.432663    0.489404   -1.760279
     20          1           0        2.045172    2.094414   -1.327999
     21          1           0        3.913546    0.447970   -1.706549
     22          1           0        3.916909    1.104353   -0.067491
     23          1           0        2.846806   -1.632829   -0.928233
     24          1           0        4.282786   -1.331684    0.055374
     25          1           0        2.310342   -2.034767    1.435594
     26          1           0        2.868996   -0.415451    1.876167
     27          1           0       -1.349153   -1.811909   -1.148027
 ---------------------------------------------------------------------
                    Distance matrix (angstroms):
                    1          2          3          4          5
     1  O    0.000000
     2  N    1.240127   0.000000
     3  O    2.210346   1.240481   0.000000
     4  C    2.297205   1.465043   2.321749   0.000000
     5  C    3.491872   2.387394   2.633212   1.359922   0.000000
     6  N    4.697529   3.682978   3.971722   2.416591   1.347512
     7  C    5.272363   4.499809   5.079669   3.058045   2.521313
     8  H    6.156376   5.334997   5.797379   3.953489   3.229746
     9  C    6.044824   5.366359   6.008180   3.926723   3.535026
    10  C    7.118401   6.580706   7.330789   5.126171   4.869818
    11  C    6.765143   6.448726   7.368059   5.064738   5.138762
    12  C    6.010978   5.674066   6.558999   4.357060   4.442255
    13  C    4.675609   4.202059   5.043123   2.850826   2.940363
    14  H    4.420254   3.925068   4.672151   2.775486   2.845867
    15  N    3.848375   3.669539   4.738586   2.464136   3.144779
    16  C    2.658806   2.477431   3.601687   1.457527   2.539716
    17  H    3.753489   2.522369   2.220646   2.101859   1.087545
    18  H    5.494699   4.396701   4.467035   3.265512   2.032054
    19  H    5.516924   4.966570   5.710693   3.608181   3.520322
    20  H    6.663372   5.854392   6.316089   4.477782   3.824092
    21  H    7.783208   7.294128   8.060685   5.869776   5.664470
    22  H    7.815283   7.180429   7.827286   5.716423   5.257318
    23  H    6.367788   6.206552   7.226299   4.907956   5.227853
    24  H    7.754443   7.487475   8.419001   6.121960   6.189180
    25  H    6.016153   5.883749   6.861001   4.721178   5.051119
    26  H    6.728365   6.272008   7.025212   4.958003   4.796190
    27  H    2.377570   2.640701   3.839101   2.160920   3.401621
                    6          7          8          9         10
     6  N    0.000000
     7  C    1.465112   0.000000
     8  H    2.035442   1.103451   0.000000
     9  C    2.513899   1.523545   2.121900   0.000000
    10  C    3.821563   2.491334   2.632550   1.532551   0.000000
    11  C    4.341846   2.911636   3.138599   2.534167   1.533416
    12  C    3.789300   2.464973   2.580344   2.945026   2.534107
    13  C    2.501963   1.529428   2.122476   2.519793   2.965695
    14  H    2.673469   2.160416   2.477779   3.468709   3.960881
    15  N    3.159385   2.508728   3.408352   2.972130   3.523426
    16  C    3.071989   3.030423   4.031233   3.586500   4.504075
    17  H    2.065939   3.443293   3.975616   4.448214   5.825201
    18  H    1.014899   2.090303   2.340044   2.785141   4.115552
    19  H    2.853951   2.152776   3.037136   1.095852   2.171779
    20  H    2.693085   2.158364   2.491717   1.098582   2.174986
    21  H    4.652196   3.445095   3.655846   2.162224   1.095892
    22  H    4.057812   2.766271   2.445005   2.156863   1.099165
    23  H    4.642608   3.353184   3.869545   2.827132   2.159238
    24  H    5.345887   3.888444   3.908448   3.484076   2.172215
    25  H    4.621359   3.423631   3.593107   3.939737   3.483991
    26  H    3.980480   2.698371   2.338777   3.341879   2.820673
    27  H    4.064763   4.053103   5.083106   4.384940   5.242256
                   11         12         13         14         15
    11  C    0.000000
    12  C    1.530321   0.000000
    13  C    2.529003   1.533923   0.000000
    14  H    3.477985   2.164830   1.101623   0.000000
    15  N    2.924273   2.406593   1.458637   2.103140   0.000000
    16  C    4.148157   3.613187   2.348655   2.630430   1.289000
    17  H    6.182977   5.443700   3.960405   3.710536   4.204547
    18  H    4.921499   4.527399   3.399470   3.597537   4.103248
    19  H    2.829073   3.348034   2.754707   3.752224   2.626049
    20  H    3.487642   3.937337   3.470413   4.297094   3.974276
    21  H    2.171191   3.482135   3.940906   4.983664   4.239199
    22  H    2.162824   2.835925   3.411617   4.231008   4.295581
    23  H    1.095721   2.145492   2.789777   3.789975   2.596942
    24  H    1.096591   2.163143   3.477720   4.305048   3.912576
    25  H    2.168860   1.095790   2.155993   2.487918   2.619298
    26  H    2.165665   1.098358   2.157258   2.459078   3.359129
    27  H    4.804263   4.435254   3.342755   3.637455   2.036032
                   16         17         18         19         20
    16  C    0.000000
    17  H    3.481927   0.000000
    18  H    4.007565   2.337840   0.000000
    19  H    3.066292   4.474628   3.249702   0.000000
    20  H    4.398321   4.552155   2.546474   1.771466   0.000000
    21  H    5.162223   6.606641   4.848842   2.481811   2.518908
    22  H    5.274305   6.121651   4.197859   3.068416   2.464244
    23  H    3.767329   6.308484   5.301112   2.682530   3.833375
    24  H    5.172035   7.219568   5.874347   3.838770   4.319581
    25  H    3.817786   6.046370   5.448882   4.165977   4.975731
    26  H    4.461890   5.692802   4.580677   4.013172   4.152684
    27  H    1.091512   4.219570   4.943977   3.661883   5.178145
                   21         22         23         24         25
    21  H    0.000000
    22  H    1.765605   0.000000
    23  H    2.464433   3.062379   0.000000
    24  H    2.531378   2.466423   1.766412   0.000000
    25  H    4.313619   3.833328   2.457037   2.507962   0.000000
    26  H    3.830461   2.680623   3.057313   2.480640   1.768723
    27  H    5.754563   6.115844   4.205526   5.779059   4.485160
                   26         27
    26  H    0.000000
    27  H    5.374814   0.000000
 Symmetry turned off by external request.
 Stoichiometry    C9H13N3O2
 Framework group  C1[X(C9H13N3O2)]
 Deg. of freedom    75
 Full point group                 C1      NOp   1
 Rotational constants (GHZ):           1.6989184           0.4209587           0.3710222
 Standard basis: 6-31G(d) (6D, 7F)
   236 basis functions,   444 primitive gaussians,   236 cartesian basis functions
    52 alpha electrons       52 beta electrons
       nuclear repulsion energy       931.9030798797 Hartrees.
 NAtoms=   27 NActive=   27 NUniq=   27 SFac= 1.00D+00 NAtFMM=   60 NAOKFM=F Big=F
 Integral buffers will be    131072 words long.
 Raffenetti 1 integral format.
 Two-electron integral symmetry is turned off.
 One-electron integrals computed using PRISM.
 NBasis=   236 RedAO= T EigKep=  1.02D-03  NBF=   236
 NBsUse=   236 1.00D-06 EigRej= -1.00D+00 NBFU=   236
 Initial guess from the checkpoint file:  "/home/alexey/tmp/Gau-1527036.chk"
 B after Tr=     0.051877    0.003149    0.004013
         Rot=    0.999999   -0.000144   -0.001098    0.001072 Ang=  -0.18 deg.
 ExpMin= 1.61D-01 ExpMax= 5.48D+03 ExpMxC= 8.25D+02 IAcc=3 IRadAn=         5 AccDes= 0.00D+00
 Harris functional with IExCor=  205 and IRadAn=       5 diagonalized for initial guess.
 HarFok:  IExCor=  205 AccDes= 0.00D+00 IRadAn=         5 IDoV= 1 UseB2=F ITyADJ=14
 ICtDFT=  3500011 ScaDFX=  1.000000  1.000000  1.000000  1.000000
 FoFCou: FMM=F IPFlag=           0 FMFlag=      100000 FMFlg1=           0
         NFxFlg=           0 DoJE=T BraDBF=F KetDBF=T FulRan=T
         wScrn=  0.000000 ICntrl=       500 IOpCl=  0 I1Cent=   200000004 NGrid=           0
         NMat0=    1 NMatS0=      1 NMatT0=    0 NMatD0=    1 NMtDS0=    0 NMtDT0=    0
 Symmetry not used in FoFCou.
 Keep R1 ints in memory in canonical form, NReq=397720213.
 Requested convergence on RMS density matrix=1.00D-08 within 128 cycles.
 Requested convergence on MAX density matrix=1.00D-06.
 Requested convergence on             energy=1.00D-06.
 No special actions if energy rises.
 SCF Done:  E(RHF) =  -661.296113210     A.U. after   15 cycles
            NFock= 15  Conv=0.44D-08     -V/T= 2.0024
 ExpMin= 1.61D-01 ExpMax= 5.48D+03 ExpMxC= 8.25D+02 IAcc=3 IRadAn=         5 AccDes= 0.00D+00
 HarFok:  IExCor=  205 AccDes= 0.00D+00 IRadAn=         5 IDoV=-2 UseB2=F ITyADJ=14
 ICtDFT= 12500011 ScaDFX=  1.000000  1.000000  1.000000  1.000000
 Range of M.O.s used for correlation:    15   236
 NBasis=   236 NAE=    52 NBE=    52 NFC=    14 NFV=     0
 NROrb=    222 NOA=    38 NOB=    38 NVA=   184 NVB=   184
 Fully direct method using O(ONN) memory.
 JobTyp=1 Pass  1:  I=  15 to  52 NPSUse=  4 ParTrn=T ParDer=T DoDerP=T.
 Spin components of T(2) and E(2):
     alpha-alpha T2 =       0.9119472251D-01 E2=     -0.2722354502D+00
     alpha-beta  T2 =       0.4915190883D+00 E2=     -0.1488211914D+01
     beta-beta   T2 =       0.9119472251D-01 E2=     -0.2722354502D+00
 ANorm=    0.1293796171D+01
 E2 =    -0.2032682815D+01 EUMP2 =    -0.66332879602483D+03
          IDoAtm=111111111111111111111111111
          Differentiating once with respect to electric field.
                with respect to dipole field.
          Differentiating once with respect to nuclear coordinates.
 Keep R1 ints in memory in canonical form, NReq=397723379.
          There are     1 degrees of freedom in the 1st order CPHF.  IDoFFX=0 NUNeed=     1.
 LinEq1:  Iter=  0 NonCon=     1 RMS=4.56D-03 Max=1.02D-01 NDo=     1
 AX will form     1 AO Fock derivatives at one time.
 LinEq1:  Iter=  1 NonCon=     1 RMS=1.53D-03 Max=2.46D-02 NDo=     1
 LinEq1:  Iter=  2 NonCon=     1 RMS=6.40D-04 Max=1.72D-02 NDo=     1
 LinEq1:  Iter=  3 NonCon=     1 RMS=2.80D-04 Max=8.03D-03 NDo=     1
 LinEq1:  Iter=  4 NonCon=     1 RMS=8.67D-05 Max=1.89D-03 NDo=     1
 LinEq1:  Iter=  5 NonCon=     1 RMS=3.63D-05 Max=1.82D-03 NDo=     1
 LinEq1:  Iter=  6 NonCon=     1 RMS=1.40D-05 Max=5.37D-04 NDo=     1
[...]
    26  H    2.173907   1.098983   2.163825   2.479616   3.362965
    27  H    4.779213   4.428755   3.347935   3.644055   2.032279
                   16         17         18         19         20
    16  C    0.000000
    17  H    3.468484   0.000000
    18  H    4.073956   2.241657   0.000000
    19  H    3.048855   4.438664   3.542791   0.000000
    20  H    4.393562   4.538057   2.883819   1.768151   0.000000
    21  H    5.153149   6.590533   5.081556   2.497357   2.523184
    22  H    5.266820   6.105672   4.283255   3.069899   2.461611
    23  H    3.756925   6.287792   5.422703   2.699446   3.839599
    24  H    5.169557   7.204273   5.918161   3.848099   4.318021
    25  H    3.809781   6.031244   5.354424   4.168291   4.982260
    26  H    4.479162   5.707377   4.464030   4.044930   4.191179
    27  H    1.089609   4.218722   5.054255   3.629610   5.159737
                   21         22         23         24         25
    21  H    0.000000
    22  H    1.758891   0.000000
    23  H    2.467777   3.061937   0.000000
    24  H    2.518991   2.462725   1.764558   0.000000
    25  H    4.312533   3.843390   2.442926   2.520238   0.000000
    26  H    3.849970   2.710652   3.059399   2.484457   1.766854
    27  H    5.723670   6.090787   4.173006   5.755689   4.461751
                   26         27
    26  H    0.000000
    27  H    5.377666   0.000000
 Symmetry turned off by external request.
 Stoichiometry    C9H13N3O2
 Framework group  C1[X(C9H13N3O2)]
 Deg. of freedom    75
 Full point group                 C1      NOp   1
 Rotational constants (GHZ):           1.6959818           0.4181549           0.3703558

 **********************************************************************

            Population analysis using the SCF Density.

 **********************************************************************

 Alpha  occ. eigenvalues --  -20.59284 -20.58948 -15.84750 -15.63979 -15.56369
 Alpha  occ. eigenvalues --  -11.34985 -11.29616 -11.29580 -11.28688 -11.27177
 Alpha  occ. eigenvalues --  -11.23680 -11.23221 -11.22765 -11.22204  -1.57148
 Alpha  occ. eigenvalues --   -1.36752  -1.30908  -1.23207  -1.14690  -1.09868
 Alpha  occ. eigenvalues --   -1.02808  -1.01323  -0.94470  -0.89642  -0.85583
 Alpha  occ. eigenvalues --   -0.82480  -0.78514  -0.77402  -0.75230  -0.71945
 Alpha  occ. eigenvalues --   -0.69841  -0.69465  -0.67800  -0.64952  -0.63692
 Alpha  occ. eigenvalues --   -0.62354  -0.60400  -0.57566  -0.57163  -0.55035
 Alpha  occ. eigenvalues --   -0.54680  -0.50823  -0.49859  -0.48654  -0.48066
 Alpha  occ. eigenvalues --   -0.47419  -0.46221  -0.46082  -0.43695  -0.41703
 Alpha  occ. eigenvalues --   -0.40246  -0.33970
 Alpha virt. eigenvalues --    0.07334   0.11830   0.17302   0.21750   0.24005
 Alpha virt. eigenvalues --    0.25500   0.27053   0.28604   0.28954   0.29667
 Alpha virt. eigenvalues --    0.30616   0.31701   0.32005   0.32685   0.33998
 Alpha virt. eigenvalues --    0.34368   0.35833   0.37151   0.38660   0.40154
 Alpha virt. eigenvalues --    0.41308   0.42689   0.45363   0.46256   0.46631
 Alpha virt. eigenvalues --    0.46964   0.48929   0.53862   0.57695   0.59214
 Alpha virt. eigenvalues --    0.63736   0.69391   0.70248   0.72630   0.74206
 Alpha virt. eigenvalues --    0.74955   0.75837   0.76828   0.78422   0.79465
 Alpha virt. eigenvalues --    0.81195   0.84714   0.85880   0.86233   0.88626
 Alpha virt. eigenvalues --    0.89803   0.90546   0.92392   0.92844   0.94582
 Alpha virt. eigenvalues --    0.95707   0.98102   0.99406   1.01767   1.02564
 Alpha virt. eigenvalues --    1.03058   1.05601   1.06515   1.07691   1.09005
 Alpha virt. eigenvalues --    1.10103   1.10759   1.11826   1.12386   1.13975
 Alpha virt. eigenvalues --    1.14652   1.14878   1.15539   1.16708   1.18638
 Alpha virt. eigenvalues --    1.19444   1.20941   1.22175   1.23797   1.24153
 Alpha virt. eigenvalues --    1.24576   1.25943   1.26891   1.27183   1.29152
 Alpha virt. eigenvalues --    1.29909   1.33389   1.35664   1.36621   1.40905
 Alpha virt. eigenvalues --    1.42352   1.47111   1.48474   1.50558   1.53771
 Alpha virt. eigenvalues --    1.55383   1.57565   1.60247   1.63123   1.65378
 Alpha virt. eigenvalues --    1.67918   1.69088   1.73937   1.74131   1.76426
 Alpha virt. eigenvalues --    1.81762   1.84365   1.87269   1.90520   1.93568
 Alpha virt. eigenvalues --    1.96389   1.97283   1.99601   2.01421   2.02638
 Alpha virt. eigenvalues --    2.05155   2.05588   2.08156   2.09473   2.12407
 Alpha virt. eigenvalues --    2.13083   2.15309   2.17790   2.20238   2.21452
 Alpha virt. eigenvalues --    2.23151   2.24618   2.25554   2.28100   2.29879
 Alpha virt. eigenvalues --    2.31679   2.34284   2.35336   2.36579   2.38827
 Alpha virt. eigenvalues --    2.39955   2.41664   2.43809   2.45581   2.48283
 Alpha virt. eigenvalues --    2.51051   2.51828   2.53220   2.56021   2.61576
 Alpha virt. eigenvalues --    2.62579   2.64735   2.67898   2.70434   2.71072
 Alpha virt. eigenvalues --    2.72434   2.73416   2.77665   2.78486   2.83519
 Alpha virt. eigenvalues --    2.88019   2.88486   2.92785   2.93489   2.96648
 Alpha virt. eigenvalues --    2.99890   3.01170   3.03798   3.04858   3.07809
 Alpha virt. eigenvalues --    3.09047   3.14237   3.21791   3.24987   3.27304
 Alpha virt. eigenvalues --    3.32439   3.37320   3.38043   3.51994   3.64549
 Alpha virt. eigenvalues --    4.13082   4.27987   4.34531   4.38435   4.45839
 Alpha virt. eigenvalues --    4.56223   4.61678   4.61874   4.73287   4.79105
 Alpha virt. eigenvalues --    4.98896   5.00595   5.04227   5.11497
          Condensed to atoms (all electrons):
               1          2          3          4          5          6
     1  O    8.315468   0.307951  -0.082449  -0.085905   0.004604  -0.000017
     2  N    0.307951   5.722214   0.300787   0.265383  -0.052497   0.000959
     3  O   -0.082449   0.300787   8.353055  -0.092326   0.003898   0.000748
     4  C   -0.085905   0.265383  -0.092326   5.216504   0.563236  -0.049799
     5  C    0.004604  -0.052497   0.003898   0.563236   4.713125   0.317819
     6  N   -0.000017   0.000959   0.000748  -0.049799   0.317819   7.185396
     7  C    0.000004  -0.000144   0.000001   0.003431  -0.031603   0.170680
     8  H   -0.000000   0.000003  -0.000000  -0.000204   0.002685  -0.053243
     9  C   -0.000000  -0.000003   0.000000   0.000843   0.001098  -0.059478
    10  C    0.000000   0.000000   0.000000  -0.000031  -0.000065   0.003664
    11  C   -0.000000  -0.000000  -0.000000  -0.000032   0.000028  -0.000189
    12  C   -0.000000   0.000003  -0.000000  -0.000043  -0.000162   0.003941
    13  C   -0.000030  -0.000070  -0.000005  -0.013902  -0.000478  -0.043625
    14  H   -0.000006  -0.000116   0.000000   0.003071   0.007264  -0.007389
    15  N    0.000274   0.002394  -0.000016  -0.062281  -0.006755   0.001618
    16  C    0.001102  -0.028763   0.002488   0.331005  -0.049030  -0.002251
    17  H    0.000206  -0.007007   0.016775  -0.023738   0.374973  -0.034011
    18  H    0.000001  -0.000051   0.000011   0.001792  -0.031420   0.338719
    19  H    0.000000  -0.000002   0.000000  -0.000929   0.000793   0.000036
    20  H    0.000000  -0.000000   0.000000  -0.000075   0.000186  -0.000803
    21  H   -0.000000   0.000000   0.000000   0.000000   0.000001  -0.000072
    22  H   -0.000000   0.000000  -0.000000  -0.000000  -0.000004  -0.000126
    23  H    0.000000  -0.000000   0.000000   0.000033   0.000000  -0.000030
    24  H    0.000000   0.000000   0.000000   0.000000  -0.000000   0.000005
    25  H    0.000000  -0.000000   0.000000   0.000024   0.000001  -0.000090
    26  H    0.000000  -0.000000   0.000000   0.000008  -0.000003  -0.000064
    27  H    0.005798  -0.000958   0.000011  -0.061481   0.002272   0.000033
               7          8          9         10         11         12
     1  O    0.000004  -0.000000  -0.000000   0.000000  -0.000000  -0.000000
     2  N   -0.000144   0.000003  -0.000003   0.000000  -0.000000   0.000003
     3  O    0.000001  -0.000000   0.000000   0.000000  -0.000000  -0.000000
     4  C    0.003431  -0.000204   0.000843  -0.000031  -0.000032  -0.000043
     5  C   -0.031603   0.002685   0.001098  -0.000065   0.000028  -0.000162
     6  N    0.170680  -0.053243  -0.059478   0.003664  -0.000189   0.003941
     7  C    5.020327   0.421040   0.345882  -0.054326  -0.008826  -0.060100
     8  H    0.421040   0.547949  -0.058501   0.000851  -0.000507  -0.002521
     9  C    0.345882  -0.058501   5.157026   0.323862  -0.050398  -0.005530
    10  C   -0.054326   0.000851   0.323862   5.121931   0.336406  -0.060266
    11  C   -0.008826  -0.000507  -0.050398   0.336406   5.117009   0.336103
    12  C   -0.060100  -0.002521  -0.005530  -0.060266   0.336103   5.118382
    13  C    0.341250  -0.040299  -0.056678  -0.000853  -0.050402   0.371326
    14  H   -0.047178  -0.000734   0.004417  -0.000414   0.004140  -0.036365
    15  N   -0.058837   0.004125  -0.013080   0.001486  -0.010629  -0.081216
    16  C   -0.002325   0.000046  -0.001229  -0.000016   0.000020   0.002943
    17  H    0.001758  -0.000049  -0.000070   0.000001   0.000000  -0.000000
    18  H   -0.022042  -0.004852   0.001484  -0.000089   0.000004  -0.000119
    19  H   -0.037271   0.004610   0.389292  -0.032159  -0.002325   0.000664
    20  H   -0.042072  -0.002099   0.400571  -0.035718   0.003953  -0.000389
    21  H    0.004621  -0.000067  -0.036365   0.402611  -0.034864   0.004297
    22  H   -0.005043   0.003706  -0.046686   0.397616  -0.045404  -0.001076
    23  H    0.000434   0.000043  -0.001914  -0.039482   0.399112  -0.038355
    24  H   -0.000126  -0.000108   0.004361  -0.038212   0.402465  -0.038525
    25  H    0.005174  -0.000013  -0.000434   0.004168  -0.033385   0.398531
    26  H   -0.004054   0.001768   0.000956  -0.002192  -0.041621   0.396402
    27  H   -0.000414   0.000010  -0.000062   0.000006   0.000007  -0.000039
              13         14         15         16         17         18
     1  O   -0.000030  -0.000006   0.000274   0.001102   0.000206   0.000001
     2  N   -0.000070  -0.000116   0.002394  -0.028763  -0.007007  -0.000051
     3  O   -0.000005   0.000000  -0.000016   0.002488   0.016775   0.000011
     4  C   -0.013902   0.003071  -0.062281   0.331005  -0.023738   0.001792
     5  C   -0.000478   0.007264  -0.006755  -0.049030   0.374973  -0.031420
     6  N   -0.043625  -0.007389   0.001618  -0.002251  -0.034011   0.338719
     7  C    0.341250  -0.047178  -0.058837  -0.002325   0.001758  -0.022042
     8  H   -0.040299  -0.000734   0.004125   0.000046  -0.000049  -0.004852
     9  C   -0.056678   0.004417  -0.013080  -0.001229  -0.000070   0.001484
    10  C   -0.000853  -0.000414   0.001486  -0.000016   0.000001  -0.000089
    11  C   -0.050402   0.004140  -0.010629   0.000020   0.000000   0.000004
    12  C    0.371326  -0.036365  -0.081216   0.002943  -0.000000  -0.000119
    13  C    5.040875   0.401622   0.245877  -0.073467   0.000016   0.002834
    14  H    0.401622   0.530413  -0.037973  -0.004927   0.000134  -0.000127
    15  N    0.245877  -0.037973   6.952139   0.582738  -0.000102  -0.000122
    16  C   -0.073467  -0.004927   0.582738   4.716328   0.001998  -0.000189
    17  H    0.000016   0.000134  -0.000102   0.001998   0.377423  -0.002903
    18  H    0.002834  -0.000127  -0.000122  -0.000189  -0.002903   0.313437
    19  H   -0.007108   0.000105   0.007659   0.002873   0.000012  -0.000154
    20  H    0.004166  -0.000066   0.000092  -0.000034   0.000004   0.000691
    21  H   -0.000412   0.000010  -0.000030   0.000003  -0.000000   0.000002
    22  H    0.000181  -0.000057   0.000011  -0.000002   0.000000   0.000000
    23  H   -0.006792   0.000000   0.007968   0.000066   0.000000   0.000000
    24  H    0.004623  -0.000055   0.000093   0.000006   0.000000  -0.000000
    25  H   -0.035879  -0.002687   0.000111   0.000002  -0.000000   0.000002
    26  H   -0.047012  -0.001248   0.004853  -0.000081   0.000000   0.000000
    27  H    0.005186  -0.000184  -0.039858   0.402249  -0.000078   0.000001
              19         20         21         22         23         24
     1  O    0.000000   0.000000  -0.000000  -0.000000   0.000000   0.000000
     2  N   -0.000002  -0.000000   0.000000   0.000000  -0.000000   0.000000
     3  O    0.000000   0.000000   0.000000  -0.000000   0.000000   0.000000
     4  C   -0.000929  -0.000075   0.000000  -0.000000   0.000033   0.000000
     5  C    0.000793   0.000186   0.000001  -0.000004   0.000000  -0.000000
     6  N    0.000036  -0.000803  -0.000072  -0.000126  -0.000030   0.000005
     7  C   -0.037271  -0.042072   0.004621  -0.005043   0.000434  -0.000126
     8  H    0.004610  -0.002099  -0.000067   0.003706   0.000043  -0.000108
     9  C    0.389292   0.400571  -0.036365  -0.046686  -0.001914   0.004361
    10  C   -0.032159  -0.035718   0.402611   0.397616  -0.039482  -0.038212
    11  C   -0.002325   0.003953  -0.034864  -0.045404   0.399112   0.402465
    12  C    0.000664  -0.000389   0.004297  -0.001076  -0.038355  -0.038525
    13  C   -0.007108   0.004166  -0.000412   0.000181  -0.006792   0.004623
    14  H    0.000105  -0.000066   0.000010  -0.000057   0.000000  -0.000055
    15  N    0.007659   0.000092  -0.000030   0.000011   0.007968   0.000093
    16  C    0.002873  -0.000034   0.000003  -0.000002   0.000066   0.000006
    17  H    0.000012   0.000004  -0.000000   0.000000   0.000000   0.000000
    18  H   -0.000154   0.000691   0.000002   0.000000   0.000000  -0.000000
    19  H    0.506324  -0.024429  -0.002780   0.003956   0.001577  -0.000066
    20  H   -0.024429   0.539115  -0.002638  -0.002964  -0.000046  -0.000083
    21  H   -0.002780  -0.002638   0.523511  -0.027353  -0.002940  -0.002201
    22  H    0.003956  -0.002964  -0.027353   0.570927   0.004171  -0.003620
    23  H    0.001577  -0.000046  -0.002940   0.004171   0.502609  -0.025520
    24  H   -0.000066  -0.000083  -0.002201  -0.003620  -0.025520   0.537080
    25  H   -0.000027   0.000012  -0.000086  -0.000078  -0.002421  -0.002240
    26  H    0.000019  -0.000029  -0.000082   0.002351   0.004111  -0.003157
    27  H    0.000079   0.000000  -0.000000   0.000000  -0.000027  -0.000000
              25         26         27
     1  O    0.000000   0.000000   0.005798
     2  N   -0.000000  -0.000000  -0.000958
     3  O    0.000000   0.000000   0.000011
     4  C    0.000024   0.000008  -0.061481
     5  C    0.000001  -0.000003   0.002272
     6  N   -0.000090  -0.000064   0.000033
     7  C    0.005174  -0.004054  -0.000414
     8  H   -0.000013   0.001768   0.000010
     9  C   -0.000434   0.000956  -0.000062
    10  C    0.004168  -0.002192   0.000006
    11  C   -0.033385  -0.041621   0.000007
    12  C    0.398531   0.396402  -0.000039
    13  C   -0.035879  -0.047012   0.005186
    14  H   -0.002687  -0.001248  -0.000184
    15  N    0.000111   0.004853  -0.039858
    16  C    0.000002  -0.000081   0.402249
    17  H   -0.000000   0.000000  -0.000078
    18  H    0.000002   0.000000   0.000001
    19  H   -0.000027   0.000019   0.000079
    20  H    0.000012  -0.000029   0.000000
    21  H   -0.000086  -0.000082  -0.000000
    22  H   -0.000078   0.002351   0.000000
    23  H   -0.002421   0.004111  -0.000027
    24  H   -0.002240  -0.003157  -0.000000
    25  H    0.505717  -0.024104  -0.000012
    26  H   -0.024104   0.562510   0.000001
    27  H   -0.000012   0.000001   0.440204
 Mulliken charges:
               1
     1  O   -0.467000
     2  N    0.489917
     3  O   -0.502978
     4  C    0.005415
     5  C    0.180036
     6  N   -0.772434
     7  C    0.059758
     8  H    0.176362
     9  C   -0.299365
    10  C   -0.328780
    11  C   -0.320665
    12  C   -0.307884
    13  C   -0.040945
    14  H    0.188352
    15  N   -0.500540
    16  C    0.118448
    17  H    0.294656
    18  H    0.403089
    19  H    0.189249
    20  H    0.162656
    21  H    0.174837
    22  H    0.149494
    23  H    0.197406
    24  H    0.165278
    25  H    0.187715
    26  H    0.150669
    27  H    0.247254
 Sum of Mulliken charges =  -0.00000
 Mulliken charges with hydrogens summed into heavy atoms:
               1
     1  O   -0.467000
     2  N    0.489917
     3  O   -0.502978
     4  C    0.005415
     5  C    0.474692
     6  N   -0.369345
     7  C    0.236120
     9  C    0.052540
    10  C   -0.004449
    11  C    0.042019
    12  C    0.030500
    13  C    0.147407
    15  N   -0.500540
    16  C    0.365702
 Electronic spatial extent (au):  <R**2>=           3012.8463
 Charge=              0.0000 electrons
 Dipole moment (field-independent basis, Debye):
    X=              5.4066    Y=              4.7847    Z=              1.1605  Tot=              7.3124
 Quadrupole moment (field-independent basis, Debye-Ang):
   XX=           -105.9829   YY=            -79.5766   ZZ=            -81.4339
   XY=             -2.0940   XZ=              0.8716   YZ=              2.0010
 Traceless Quadrupole moment (field-independent basis, Debye-Ang):
   XX=            -16.9851   YY=              9.4212   ZZ=              7.5639
   XY=             -2.0940   XZ=              0.8716   YZ=              2.0010
 Octapole moment (field-independent basis, Debye-Ang**2):
  XXX=             93.5578  YYY=             37.0359  ZZZ=             -2.4407  XYY=             -4.0442
  XXY=             10.6269  XXZ=             -0.7494  XZZ=             -9.9741  YZZ=             -0.3786
  YYZ=              7.7864  XYZ=             -0.3957
 Hexadecapole moment (field-independent basis, Debye-Ang**3):
 XXXX=          -3398.0619 YYYY=           -604.1966 ZZZZ=           -297.3829 XXXY=            -33.3804
 XXXZ=             30.2363 YYYX=            -17.3957 YYYZ=             27.4554 ZZZX=             25.1082
 ZZZY=             10.6727 XXYY=           -630.5151 XXZZ=           -524.5525 YYZZ=           -156.1894
 XXYZ=             -3.7916 YYXZ=             10.3596 ZZXY=              3.2086
 N-N= 9.308930383584D+02 E-N=-3.408476614683D+03  KE= 6.596298166782D+02
 Unable to Open any file for archive entry.
 1\1\GINC-LOTUS\FOpt\RMP2-FC\6-31G(d)\C9H13N3O2\ALEXEY\02-Jul-2023\0\\#
 MP2/6-31G* SCF=Tight Opt=(ModRedun, MaxCycle=20 ) NoSymm\\MolName:\\0,
 1\O,-3.5061662807,-1.4159079618,-0.2696143682\N,-3.1276058594,-0.25394
 89323,-0.0231813357\O,-3.9061636766,0.6897340753,0.2140366375\C,-1.693
 8738527,-0.0205337721,-0.000353543\C,-1.3087464534,1.2615191788,0.2914
 959401\N,-0.0617134248,1.7634609036,0.2793526156\C,1.1893098417,1.0122
 061887,0.2938495707\H,1.8189443685,1.5355907042,1.0315654486\C,1.95338
 2248,1.0330288137,-1.0256411292\C,3.346990394,0.437861466,-0.798423355
 8\C,3.2785993328,-0.9604935219,-0.1780188198\C,2.4225358376,-0.9820136
 415,1.0916232892\C,1.0225097407,-0.4258331452,0.8134943295\H,0.4260842
 397,-0.3886751563,1.7397999213\N,0.3898274274,-1.3262776893,-0.1460892
 662\C,-0.8523263612,-1.117243697,-0.4478061986\H,-2.0988028609,1.97985
 48644,0.4927549668\H,0.0104624793,2.7364029619,0.5532533463\H,1.399731
 9091,0.4537447019,-1.7728523427\H,2.0270273812,2.0631764294,-1.3952447
 409\H,3.8964759433,0.4053164367,-1.7461264247\H,3.911595062,1.10659070
 51,-0.1331524394\H,2.838155662,-1.6568297197,-0.8991118895\H,4.2895497
 798,-1.3203297803,0.0463448847\H,2.3213707578,-2.0072797618,1.46266780
 54\H,2.9013637925,-0.3930012277,1.8863257058\H,-1.325477428,-1.8481094
 231,-1.1029486079\\Version=ES64L-G16RevC.02\HF=-661.2993967\MP2=-663.3
 337999\RMSD=6.568e-09\RMSF=1.422e-03\Dipole=1.9684129,1.6801839,0.4255
 38\PG=C01 [X(C9H13N3O2)]\\@
 The archive entry for this job was punched.


 A COMPUTER IS LIKE A HORSE, IT WILL SENSE WEAKNESS.
     -- GREG WETTSTEIN
 Job cpu time:       0 days  1 hours 15 minutes 40.5 seconds.
 Elapsed time:       0 days  0 hours 22 minutes 47.8 seconds.
 File lengths (MBytes):  RWF=     36 Int=      0 D2E=      0 Chk=      7 Scr=      1
 Normal termination of Gaussian 16 at Sun Jul  2 15:00:49 2023.
