 Entering Gaussian System, Link 0=g16
 Initial command:
 /home/alexey/programs//g16/l1.exe "/home/alexey/tmp/Gau-1531335.inp" -scrdir="/home/alexey/tmp/"
 Entering Link 1 = /home/alexey/programs//g16/l1.exe PID=   1531337.
  
 Copyright (c) 1988-2021, Gaussian, Inc.  All Rights Reserved.
  
 This is part of the Gaussian(R) 16 program.  It is based on
 the Gaussian(R) 09 system (copyright 2009, Gaussian, Inc.),
 the Gaussian(R) 03 system (copyright 2003, Gaussian, Inc.),
 the Gaussian(R) 98 system (copyright 1998, Gaussian, Inc.),
 the Gaussian(R) 94 system (copyright 1995, Gaussian, Inc.),
 the Gaussian 92(TM) system (copyright 1992, Gaussian, Inc.),
 the Gaussian 90(TM) system (copyright 1990, Gaussian, Inc.),
 the Gaussian 88(TM) system (copyright 1988, Gaussian, Inc.),
 the Gaussian 86(TM) system (copyright 1986, Carnegie Mellon
 University), and the Gaussian 82(TM) system (copyright 1983,
 Carnegie Mellon University). Gaussian is a federally registered
 trademark of Gaussian, Inc.
  
 This software contains proprietary and confidential information,
 including trade secrets, belonging to Gaussian, Inc.
  
 This software is provided under written license and may be
 used, copied, transmitted, or stored only in accord with that
 written license.
  
 The following legend is applicable only to US Government
 contracts under FAR:
  
                    RESTRICTED RIGHTS LEGEND
  
 Use, reproduction and disclosure by the US Government is
 subject to restrictions as set forth in subparagraphs (a)
 and (c) of the Commercial Computer Software - Restricted
 Rights clause in FAR 52.227-19.
  
 Gaussian, Inc.
 340 Quinnipiac St., Bldg. 40, Wallingford CT 06492
  
  
 ---------------------------------------------------------------
 Warning -- This program may not be used in any manner that
 competes with the business of Gaussian, Inc. or will provide
 assistance to any competitor of Gaussian, Inc.  The licensee
 of this program is prohibited from giving any competitor of
 Gaussian, Inc. access to this program.  By using this program,
 the user acknowledges that Gaussian, Inc. is engaged in the
 business of creating and licensing software in the field of
 computational chemistry and represents and warrants to the
 licensee that it is not a competitor of Gaussian, Inc. and that
 it will not use this program in any manner prohibited above.
 ---------------------------------------------------------------
  

 Cite this work as:
 Gaussian 16, Revision C.02,
 M. J. Frisch, G. W. Trucks, H. B. Schlegel, G. E. Scuseria, 
 M. A. Robb, J. R. Cheeseman, G. Scalmani, V. Barone, 
 G. A. Petersson, H. Nakatsuji, X. Li, M. Caricato, A. V. Marenich, 
 J. Bloino, B. G. Janesko, R. Gomperts, B. Mennucci, H. P. Hratchian, 
 J. V. Ortiz, A. F. Izmaylov, J. L. Sonnenberg, D. Williams-Young, 
 F. Ding, F. Lipparini, F. Egidi, J. Goings, B. Peng, A. Petrone, 
 T. Henderson, D. Ranasinghe, V. G. Zakrzewski, J. Gao, N. Rega, 
 G. Zheng, W. Liang, M. Hada, M. Ehara, K. Toyota, R. Fukuda, 
 J. Hasegawa, M. Ishida, T. Nakajima, Y. Honda, O. Kitao, H. Nakai, 
 T. Vreven, K. Throssell, J. A. Montgomery, Jr., J. E. Peralta, 
 F. Ogliaro, M. J. Bearpark, J. J. Heyd, E. N. Brothers, K. N. Kudin, 
 V. N. Staroverov, T. A. Keith, R. Kobayashi, J. Normand, 
 K. Raghavachari, A. P. Rendell, J. C. Burant, S. S. Iyengar, 
 J. Tomasi, M. Cossi, J. M. Millam, M. Klene, C. Adamo, R. Cammi, 
 J. W. Ochterski, R. L. Martin, K. Morokuma, O. Farkas, 
 J. B. Foresman, and D. J. Fox, Gaussian, Inc., Wallingford CT, 2019.
 
 ******************************************
 Gaussian 16:  ES64L-G16RevC.02  7-Dec-2021
                 2-Jul-2023 
 ******************************************
 %mem=8GB
 %NPROCS=4
 Will use up to    4 processors via shared memory.
 %NoSave
 ---------------------------------------------------------
 #MP2/6-31G* SCF=Tight Opt=(ModRedun, MaxCycle=20 ) NoSymm
 ---------------------------------------------------------
 1/6=20,18=120,19=15,38=1/1,3;
 2/9=110,12=2,15=1,17=6,18=5,40=1/2;
 3/5=1,6=6,7=1,11=9,25=1,30=1,71=1/1,2,3;
 4//1;
 5/5=2,32=2,38=5/2;
 8/6=4,10=2/1;
 9/15=2,16=-3/6;
 10/5=1,31=1/2;
 6/7=2,8=2,9=2,10=2/1;
 7/12=2,30=1/1,2,3,16;
 1/6=20,18=20,19=15/3(2);
 2/9=110,15=1/2;
 99//99;
 2/9=110,15=1/2;
 3/5=1,6=6,7=1,11=9,25=1,30=1,71=1/1,2,3;
 4/5=5,16=3,69=1/1;
 5/5=2,32=2,38=5/2;
 8/6=4,10=2/1;
 9/15=2,16=-3/6;
 10/5=1,31=1/2;
 7/12=2,30=1/1,2,3,16;
 1/6=20,18=20,19=15/3(-8);
 2/9=110,15=1/2;
 6/7=2,8=2,9=2,10=2/1;
 99/9=10/99;
 --------
 MolName:
 --------
 Symbolic Z-matrix:
 Charge =  0 Multiplicity = 1
 8                    0    -3.58353  -1.49243  -0.04454 
 7                    0    -3.24453  -0.32403   0.13417 
 8                    0    -4.02989   0.58416   0.40782 
 6                    0    -1.76659   0.01378  -0.02081 
 6                    0    -1.37325   1.3098    0.33977 
 7                    0    -0.09282   1.7848    0.22427 
 6                    0     1.17317   0.99126   0.26435 
 1                    0     1.79336   1.48906   1.05772 
 6                    0     2.03409   1.04915  -1.01842 
 6                    0     3.43002   0.46582  -0.734 
 6                    0     3.32797  -0.95367  -0.15371 
 6                    0     2.38979  -0.99664   1.07349 
 6                    0     0.9705   -0.4481    0.76095 
 1                    0     0.39201  -0.47517   1.71483 
 7                    0     0.34668  -1.31581  -0.23966 
 6                    0    -0.88334  -1.06105  -0.56125 
 1                    0    -2.12937   2.00768   0.73646 
 1                    0     0.11945   2.74031  -0.07307 
 1                    0     1.54137   0.46952  -1.82875 
 1                    0     2.14196   2.09966  -1.3629 
 1                    0     4.03176   0.44763  -1.66903 
 1                    0     3.95641   1.1164   -0.00029 
 1                    0     2.92689  -1.6357   -0.93756 
 1                    0     4.33758  -1.32261   0.12954 
 1                    0     2.30496  -2.04634   1.43109 
 1                    0     2.83942  -0.39788   1.89387 
 1                    0    -1.39106  -1.73662  -1.26636 
 
 The following ModRedundant input section has been read:
 D       5       6       7       9 F                                           
 D       1       2       4      16 F                                           
 D       7      13      15      16 F                                           
 D       7       9      10      11 F                                           
 D       9      10      11      12 F                                           
 D       6       7      13      15 F                                           
 

 GradGradGradGradGradGradGradGradGradGradGradGradGradGradGradGradGradGrad
 Berny optimization.
 Initialization pass.
                           ----------------------------
                           !    Initial Parameters    !
                           ! (Angstroms and Degrees)  !
 --------------------------                            --------------------------
 ! Name  Definition              Value          Derivative Info.                !
 --------------------------------------------------------------------------------
 ! R1    R(1,2)                  1.2296         estimate D2E/DX2                !
 ! R2    R(2,3)                  1.2315         estimate D2E/DX2                !
 ! R3    R(2,4)                  1.524          estimate D2E/DX2                !
 ! R4    R(4,5)                  1.4016         estimate D2E/DX2                !
 ! R5    R(4,16)                 1.4925         estimate D2E/DX2                !
 ! R6    R(5,6)                  1.3706         estimate D2E/DX2                !
 ! R7    R(5,17)                 1.1028         estimate D2E/DX2                !
 ! R8    R(6,7)                  1.4947         estimate D2E/DX2                !
 ! R9    R(6,18)                 1.023          estimate D2E/DX2                !
 ! R10   R(7,8)                  1.1233         estimate D2E/DX2                !
 ! R11   R(7,9)                  1.546          estimate D2E/DX2                !
 ! R12   R(7,13)                 1.536          estimate D2E/DX2                !
 ! R13   R(9,10)                 1.5394         estimate D2E/DX2                !
 ! R14   R(9,19)                 1.1115         estimate D2E/DX2                !
 ! R15   R(9,20)                 1.1108         estimate D2E/DX2                !
 ! R16   R(10,11)                1.5369         estimate D2E/DX2                !
 ! R17   R(10,21)                1.1121         estimate D2E/DX2                !
 ! R18   R(10,22)                1.113          estimate D2E/DX2                !
 ! R19   R(11,12)                1.5453         estimate D2E/DX2                !
 ! R20   R(11,23)                1.1138         estimate D2E/DX2                !
 ! R21   R(11,24)                1.1116         estimate D2E/DX2                !
 ! R22   R(12,13)                1.5534         estimate D2E/DX2                !
 ! R23   R(12,25)                1.1122         estimate D2E/DX2                !
 ! R24   R(12,26)                1.1107         estimate D2E/DX2                !
 ! R25   R(13,14)                1.1159         estimate D2E/DX2                !
 ! R26   R(13,15)                1.464          estimate D2E/DX2                !
 ! R27   R(15,16)                1.2966         estimate D2E/DX2                !
 ! R28   R(16,27)                1.1006         estimate D2E/DX2                !
 ! A1    A(1,2,3)              123.865          estimate D2E/DX2                !
 ! A2    A(1,2,4)              117.5946         estimate D2E/DX2                !
 ! A3    A(3,2,4)              118.5296         estimate D2E/DX2                !
 ! A4    A(2,4,5)              116.8065         estimate D2E/DX2                !
 ! A5    A(2,4,16)             116.8157         estimate D2E/DX2                !
 ! A6    A(5,4,16)             126.3708         estimate D2E/DX2                !
 ! A7    A(4,5,6)              124.1232         estimate D2E/DX2                !
 ! A8    A(4,5,17)             119.0323         estimate D2E/DX2                !
 ! A9    A(6,5,17)             116.843          estimate D2E/DX2                !
 ! A10   A(5,6,7)              127.2315         estimate D2E/DX2                !
 ! A11   A(5,6,18)             122.8244         estimate D2E/DX2                !
 ! A12   A(7,6,18)             109.1438         estimate D2E/DX2                !
 ! A13   A(6,7,8)              104.5542         estimate D2E/DX2                !
 ! A14   A(6,7,9)              115.4388         estimate D2E/DX2                !
 ! A15   A(6,7,13)             113.229          estimate D2E/DX2                !
 ! A16   A(8,7,9)              105.1874         estimate D2E/DX2                !
 ! A17   A(8,7,13)             105.056          estimate D2E/DX2                !
 ! A18   A(9,7,13)             112.1369         estimate D2E/DX2                !
 ! A19   A(7,9,10)             109.7235         estimate D2E/DX2                !
 ! A20   A(7,9,19)             109.788          estimate D2E/DX2                !
 ! A21   A(7,9,20)             110.2925         estimate D2E/DX2                !
 ! A22   A(10,9,19)            109.8204         estimate D2E/DX2                !
 ! A23   A(10,9,20)            109.1233         estimate D2E/DX2                !
 ! A24   A(19,9,20)            108.068          estimate D2E/DX2                !
 ! A25   A(9,10,11)            111.0712         estimate D2E/DX2                !
 ! A26   A(9,10,21)            109.9694         estimate D2E/DX2                !
 ! A27   A(9,10,22)            109.219          estimate D2E/DX2                !
 ! A28   A(11,10,21)           109.7722         estimate D2E/DX2                !
 ! A29   A(11,10,22)           108.8072         estimate D2E/DX2                !
 ! A30   A(21,10,22)           107.9347         estimate D2E/DX2                !
 ! A31   A(10,11,12)           111.4589         estimate D2E/DX2                !
 ! A32   A(10,11,23)           108.8908         estimate D2E/DX2                !
 ! A33   A(10,11,24)           110.0258         estimate D2E/DX2                !
 ! A34   A(12,11,23)           108.8595         estimate D2E/DX2                !
 ! A35   A(12,11,24)           109.8658         estimate D2E/DX2                !
 ! A36   A(23,11,24)           107.6477         estimate D2E/DX2                !
 ! A37   A(11,12,13)           112.6501         estimate D2E/DX2                !
 ! A38   A(11,12,25)           109.1407         estimate D2E/DX2                !
 ! A39   A(11,12,26)           109.0138         estimate D2E/DX2                !
 ! A40   A(13,12,25)           109.1652         estimate D2E/DX2                !
 ! A41   A(13,12,26)           109.1542         estimate D2E/DX2                !
 ! A42   A(25,12,26)           107.5887         estimate D2E/DX2                !
 ! A43   A(7,13,12)            105.9855         estimate D2E/DX2                !
 ! A44   A(7,13,14)            111.5605         estimate D2E/DX2                !
 ! A45   A(7,13,15)            112.9947         estimate D2E/DX2                !
 ! A46   A(12,13,14)           107.0437         estimate D2E/DX2                !
 ! A47   A(12,13,15)           108.5145         estimate D2E/DX2                !
 ! A48   A(14,13,15)           110.4238         estimate D2E/DX2                !
 ! A49   A(13,15,16)           117.2116         estimate D2E/DX2                !
 ! A50   A(4,16,15)            127.8129         estimate D2E/DX2                !
 ! A51   A(4,16,27)            113.6427         estimate D2E/DX2                !
 ! A52   A(15,16,27)           118.4178         estimate D2E/DX2                !
 ! D1    D(1,2,4,5)           -172.6455         estimate D2E/DX2                !
 ! D2    D(1,2,4,16)             8.2584         Frozen                          !
 ! D3    D(3,2,4,5)              8.5026         estimate D2E/DX2                !
 ! D4    D(3,2,4,16)          -170.5934         estimate D2E/DX2                !
 ! D5    D(2,4,5,6)           -178.0175         estimate D2E/DX2                !
 ! D6    D(2,4,5,17)             1.5181         estimate D2E/DX2                !
 ! D7    D(16,4,5,6)             0.9806         estimate D2E/DX2                !
 ! D8    D(16,4,5,17)         -179.4838         estimate D2E/DX2                !
 ! D9    D(2,4,16,15)         -144.5878         estimate D2E/DX2                !
 ! D10   D(2,4,16,27)           31.2141         estimate D2E/DX2                !
 ! D11   D(5,4,16,15)           36.4142         estimate D2E/DX2                !
 ! D12   D(5,4,16,27)         -147.7839         estimate D2E/DX2                !
 ! D13   D(4,5,6,7)            -27.2937         estimate D2E/DX2                !
 ! D14   D(4,5,6,18)           141.3223         estimate D2E/DX2                !
 ! D15   D(17,5,6,7)           153.1614         estimate D2E/DX2                !
 ! D16   D(17,5,6,18)          -38.2227         estimate D2E/DX2                !
 ! D17   D(5,6,7,8)           -126.4453         estimate D2E/DX2                !
 ! D18   D(5,6,7,9)            118.5168         Frozen                          !
 ! D19   D(5,6,7,13)           -12.6493         estimate D2E/DX2                !
 ! D20   D(18,6,7,8)            63.667          estimate D2E/DX2                !
 ! D21   D(18,6,7,9)           -51.3709         estimate D2E/DX2                !
 ! D22   D(18,6,7,13)          177.4631         estimate D2E/DX2                !
 ! D23   D(6,7,9,10)           167.2872         estimate D2E/DX2                !
 ! D24   D(6,7,9,19)           -71.929          estimate D2E/DX2                !
 ! D25   D(6,7,9,20)            47.0478         estimate D2E/DX2                !
 ! D26   D(8,7,9,10)            52.6123         estimate D2E/DX2                !
 ! D27   D(8,7,9,19)           173.396          estimate D2E/DX2                !
 ! D28   D(8,7,9,20)           -67.6272         estimate D2E/DX2                !
 ! D29   D(13,7,9,10)          -61.0294         estimate D2E/DX2                !
 ! D30   D(13,7,9,19)           59.7544         estimate D2E/DX2                !
 ! D31   D(13,7,9,20)          178.7312         estimate D2E/DX2                !
 ! D32   D(6,7,13,12)         -166.2678         estimate D2E/DX2                !
 ! D33   D(6,7,13,14)          -50.0987         estimate D2E/DX2                !
 ! D34   D(6,7,13,15)           75.0208         Frozen                          !
 ! D35   D(8,7,13,12)          -52.7747         estimate D2E/DX2                !
 ! D36   D(8,7,13,14)           63.3944         estimate D2E/DX2                !
 ! D37   D(8,7,13,15)         -171.4862         estimate D2E/DX2                !
 ! D38   D(9,7,13,12)           60.9479         estimate D2E/DX2                !
 ! D39   D(9,7,13,14)          177.117          estimate D2E/DX2                !
 ! D40   D(9,7,13,15)          -57.7636         estimate D2E/DX2                !
 ! D41   D(7,9,10,11)           54.8119         Frozen                          !
 ! D42   D(7,9,10,21)          176.5282         estimate D2E/DX2                !
 ! D43   D(7,9,10,22)          -65.2009         estimate D2E/DX2                !
 ! D44   D(19,9,10,11)         -65.9522         estimate D2E/DX2                !
 ! D45   D(19,9,10,21)          55.764          estimate D2E/DX2                !
 ! D46   D(19,9,10,22)         174.035          estimate D2E/DX2                !
 ! D47   D(20,9,10,11)         175.7598         estimate D2E/DX2                !
 ! D48   D(20,9,10,21)         -62.524          estimate D2E/DX2                !
 ! D49   D(20,9,10,22)          55.747          estimate D2E/DX2                !
 ! D50   D(9,10,11,12)         -52.8229         Frozen                          !
 ! D51   D(9,10,11,23)          67.2836         estimate D2E/DX2                !
 ! D52   D(9,10,11,24)        -174.9566         estimate D2E/DX2                !
 ! D53   D(21,10,11,12)       -174.6542         estimate D2E/DX2                !
 ! D54   D(21,10,11,23)        -54.5477         estimate D2E/DX2                !
 ! D55   D(21,10,11,24)         63.2121         estimate D2E/DX2                !
 ! D56   D(22,10,11,12)         67.4343         estimate D2E/DX2                !
 ! D57   D(22,10,11,23)       -172.4592         estimate D2E/DX2                !
 ! D58   D(22,10,11,24)        -54.6994         estimate D2E/DX2                !
 ! D59   D(10,11,12,13)         55.8356         estimate D2E/DX2                !
 ! D60   D(10,11,12,25)        177.2603         estimate D2E/DX2                !
 ! D61   D(10,11,12,26)        -65.4864         estimate D2E/DX2                !
 ! D62   D(23,11,12,13)        -64.2893         estimate D2E/DX2                !
 ! D63   D(23,11,12,25)         57.1353         estimate D2E/DX2                !
 ! D64   D(23,11,12,26)        174.3887         estimate D2E/DX2                !
 ! D65   D(24,11,12,13)        178.0616         estimate D2E/DX2                !
 ! D66   D(24,11,12,25)        -60.5138         estimate D2E/DX2                !
 ! D67   D(24,11,12,26)         56.7396         estimate D2E/DX2                !
 ! D68   D(11,12,13,7)         -58.0899         estimate D2E/DX2                !
 ! D69   D(11,12,13,14)       -177.2759         estimate D2E/DX2                !
 ! D70   D(11,12,13,15)         63.5428         estimate D2E/DX2                !
 ! D71   D(25,12,13,7)        -179.5007         estimate D2E/DX2                !
 ! D72   D(25,12,13,14)         61.3133         estimate D2E/DX2                !
 ! D73   D(25,12,13,15)        -57.868          estimate D2E/DX2                !
 ! D74   D(26,12,13,7)          63.1521         estimate D2E/DX2                !
 ! D75   D(26,12,13,14)        -56.0339         estimate D2E/DX2                !
 ! D76   D(26,12,13,15)       -175.2152         estimate D2E/DX2                !
 ! D77   D(7,13,15,16)         -67.1605         Frozen                          !
 ! D78   D(12,13,15,16)        175.6068         estimate D2E/DX2                !
 ! D79   D(14,13,15,16)         58.572          estimate D2E/DX2                !
 ! D80   D(13,15,16,4)          -0.7795         estimate D2E/DX2                !
 ! D81   D(13,15,16,27)       -176.4066         estimate D2E/DX2                !
 --------------------------------------------------------------------------------
 Trust Radius=3.00D-01 FncErr=1.00D-07 GrdErr=1.00D-07 EigMax=2.50D+02 EigMin=1.00D-04
 Number of steps in this run=     20 maximum allowed number of steps=    162.
 GradGradGradGradGradGradGradGradGradGradGradGradGradGradGradGradGradGrad

                          Input orientation:                          
 ---------------------------------------------------------------------
 Center     Atomic      Atomic             Coordinates (Angstroms)
 Number     Number       Type             X           Y           Z
 ---------------------------------------------------------------------
      1          8           0       -3.583530   -1.492430   -0.044540
      2          7           0       -3.244530   -0.324030    0.134170
      3          8           0       -4.029890    0.584160    0.407820
      4          6           0       -1.766590    0.013780   -0.020810
      5          6           0       -1.373250    1.309800    0.339770
      6          7           0       -0.092820    1.784800    0.224270
      7          6           0        1.173170    0.991260    0.264350
      8          1           0        1.793360    1.489060    1.057720
      9          6           0        2.034090    1.049150   -1.018420
     10          6           0        3.430020    0.465820   -0.734000
     11          6           0        3.327970   -0.953670   -0.153710
     12          6           0        2.389790   -0.996640    1.073490
     13          6           0        0.970500   -0.448100    0.760950
     14          1           0        0.392010   -0.475170    1.714830
     15          7           0        0.346680   -1.315810   -0.239660
     16          6           0       -0.883340   -1.061050   -0.561250
     17          1           0       -2.129370    2.007680    0.736460
     18          1           0        0.119450    2.740310   -0.073070
     19          1           0        1.541370    0.469520   -1.828750
     20          1           0        2.141960    2.099660   -1.362900
     21          1           0        4.031760    0.447630   -1.669030
     22          1           0        3.956410    1.116400   -0.000290
     23          1           0        2.926890   -1.635700   -0.937560
     24          1           0        4.337580   -1.322610    0.129540
     25          1           0        2.304960   -2.046340    1.431090
     26          1           0        2.839420   -0.397880    1.893870
     27          1           0       -1.391060   -1.736620   -1.266360
 ---------------------------------------------------------------------
                    Distance matrix (angstroms):
                    1          2          3          4          5
     1  O    0.000000
     2  N    1.229641   0.000000
     3  O    2.171657   1.231456   0.000000
     4  C    2.360191   1.523956   2.373096   0.000000
     5  C    3.589641   2.492661   2.754800   1.401571   0.000000
     6  N    4.795576   3.793225   4.120163   2.449098   1.370571
     7  C    5.374972   4.611183   5.220934   3.111105   2.567374
     8  H    6.246215   5.433284   5.928866   4.001615   3.251923
     9  C    6.242253   5.574757   6.246778   4.063543   3.677307
    10  C    7.314368   6.776961   7.547716   5.264764   4.993665
    11  C    6.933326   6.608864   7.537794   5.187308   5.241020
    12  C    6.097241   5.751547   6.644873   4.415194   4.474202
    13  C    4.741163   4.263182   5.118023   2.883772   2.959860
    14  H    4.464876   3.968092   4.731137   2.812663   2.862351
    15  N    3.939012   3.744351   4.814923   2.506315   3.191822
    16  C    2.782823   2.569441   3.680569   1.492470   2.583172
    17  H    3.869795   2.653904   2.397163   2.163494   1.102777
    18  H    5.623963   4.555161   4.700772   3.315697   2.108305
    19  H    5.770377   5.233318   6.004525   3.797229   3.728748
    20  H    6.886394   6.093420   6.597266   4.629132   3.984930
    21  H    8.024677   7.536006   8.325992   6.043651   5.830330
    22  H    7.978637   7.344825   8.014413   5.828286   5.343999
    23  H    6.572943   6.399649   7.425269   5.058653   5.366446
    24  H    7.924842   7.647586   8.586487   6.250555   6.291849
    25  H    6.095787   5.953587   6.935195   4.788489   5.097439
    26  H    6.797776   6.333754   7.096490   5.005077   4.803955
    27  H    2.521785   2.718868   3.892598   2.180898   3.443929
                    6          7          8          9         10
     6  N    0.000000
     7  C    1.494671   0.000000
     8  H    2.083213   1.123333   0.000000
     9  C    2.570838   1.545973   2.135844   0.000000
    10  C    3.881803   2.523125   2.633617   1.539412   0.000000
    11  C    4.398169   2.932693   3.128821   2.536363   1.536913
    12  C    3.823733   2.467107   2.556302   2.947519   2.547133
    13  C    2.530715   1.536048   2.125502   2.557174   3.019828
    14  H    2.750326   2.205566   2.500755   3.534209   4.013943
    15  N    3.165782   2.501936   3.412239   3.007799   3.595214
    16  C    3.056276   3.020401   4.035944   3.629510   4.578892
    17  H    2.111765   3.487516   3.969885   4.618743   5.953688
    18  H    1.022971   2.069627   2.376192   2.723886   4.070627
    19  H    2.935205   2.188344   3.071591   1.111476   2.183000
    20  H    2.759074   2.194322   2.520666   1.110799   2.173487
    21  H    4.731254   3.493570   3.678339   2.185362   1.112071
    22  H    4.110164   2.798592   2.436605   2.176333   1.112956
    23  H    4.708324   3.379503   3.876875   2.830556   2.170475
    24  H    5.412339   3.922456   3.903852   3.499875   2.183540
    25  H    4.677969   3.445177   3.591684   3.956707   3.502045
    26  H    4.018667   2.713196   2.313856   3.350207   2.828513
    27  H    4.038292   4.044710   5.093809   4.421950   5.327003
                   11         12         13         14         15
    11  C    0.000000
    12  C    1.545331   0.000000
    13  C    2.578734   1.553371   0.000000
    14  H    3.512871   2.162030   1.115917   0.000000
    15  N    3.004434   2.449598   1.463999   2.128089   0.000000
    16  C    4.232346   3.659222   2.358102   2.674007   1.296639
    17  H    6.272524   5.437126   3.954826   3.671391   4.257842
    18  H    4.893525   4.520380   3.403797   3.689199   4.065894
    19  H    2.832520   3.360422   2.806148   3.843231   2.672058
    20  H    3.491645   3.947720   3.517689   4.377727   4.018723
    21  H    2.180632   3.507620   4.009794   5.054686   4.328121
    22  H    2.168793   2.841169   3.455836   4.263763   4.359254
    23  H    1.113755   2.177429   2.850051   3.848067   2.692003
    24  H    1.111602   2.188877   3.535629   4.335761   4.007947
    25  H    2.179924   1.112180   2.187291   2.491678   2.675806
    26  H    2.177193   1.110722   2.186068   2.455167   3.407095
    27  H    4.911237   4.507471   3.368566   3.695685   2.061779
                   16         17         18         19         20
    16  C    0.000000
    17  H    3.557210   0.000000
    18  H    3.961596   2.499855   0.000000
    19  H    3.135031   4.735037   3.203241   0.000000
    20  H    4.448052   4.760256   2.482869   1.798633   0.000000
    21  H    5.259420   6.795562   4.807249   2.495603   2.528688
    22  H    5.336585   6.194667   4.167090   3.097441   2.473001
    23  H    3.871651   6.453087   5.270534   2.673170   3.840566
    24  H    5.272913   7.299358   5.860119   3.855570   4.331288
    25  H    3.886576   6.048212   5.472748   4.187980   5.002226
    26  H    4.508475   5.640496   4.595142   4.036733   4.163017
    27  H    1.100616   4.310008   4.873242   3.712477   5.216186
                   21         22         23         24         25
    21  H    0.000000
    22  H    1.799340   0.000000
    23  H    2.469018   3.084225   0.000000
    24  H    2.542072   2.472027   1.796322   0.000000
    25  H    4.337334   3.844354   2.483128   2.519794   0.000000
    26  H    3.851080   2.669935   3.091415   2.492483   1.793665
    27  H    5.860040   6.191776   4.331626   5.910775   4.586145
                   26         27
    26  H    0.000000
    27  H    5.447590   0.000000
 Symmetry turned off by external request.
 Stoichiometry    C9H13N3O2
 Framework group  C1[X(C9H13N3O2)]
 Deg. of freedom    75
 Full point group                 C1      NOp   1
 Rotational constants (GHZ):           1.6934102           0.4006246           0.3552906
 Standard basis: 6-31G(d) (6D, 7F)
   236 basis functions,   444 primitive gaussians,   236 cartesian basis functions
    52 alpha electrons       52 beta electrons
       nuclear repulsion energy       918.0032244291 Hartrees.
 NAtoms=   27 NActive=   27 NUniq=   27 SFac= 1.00D+00 NAtFMM=   60 NAOKFM=F Big=F
 Integral buffers will be    131072 words long.
 Raffenetti 1 integral format.
 Two-electron integral symmetry is turned off.
 One-electron integrals computed using PRISM.
 NBasis=   236 RedAO= T EigKep=  1.33D-03  NBF=   236
 NBsUse=   236 1.00D-06 EigRej= -1.00D+00 NBFU=   236
 ExpMin= 1.61D-01 ExpMax= 5.48D+03 ExpMxC= 8.25D+02 IAcc=3 IRadAn=         5 AccDes= 0.00D+00
 Harris functional with IExCor=  205 and IRadAn=       5 diagonalized for initial guess.
 HarFok:  IExCor=  205 AccDes= 0.00D+00 IRadAn=         5 IDoV= 1 UseB2=F ITyADJ=14
 ICtDFT=  3500011 ScaDFX=  1.000000  1.000000  1.000000  1.000000
 FoFCou: FMM=F IPFlag=           0 FMFlag=      100000 FMFlg1=           0
         NFxFlg=           0 DoJE=T BraDBF=F KetDBF=T FulRan=T
         wScrn=  0.000000 ICntrl=       500 IOpCl=  0 I1Cent=   200000004 NGrid=           0
         NMat0=    1 NMatS0=      1 NMatT0=    0 NMatD0=    1 NMtDS0=    0 NMtDT0=    0
 Symmetry not used in FoFCou.
 Keep R1 ints in memory in canonical form, NReq=397720213.
 Requested convergence on RMS density matrix=1.00D-08 within 128 cycles.
 Requested convergence on MAX density matrix=1.00D-06.
 Requested convergence on             energy=1.00D-06.
 No special actions if energy rises.
 SCF Done:  E(RHF) =  -661.273044212     A.U. after   16 cycles
            NFock= 16  Conv=0.91D-08     -V/T= 2.0037
 ExpMin= 1.61D-01 ExpMax= 5.48D+03 ExpMxC= 8.25D+02 IAcc=3 IRadAn=         5 AccDes= 0.00D+00
 HarFok:  IExCor=  205 AccDes= 0.00D+00 IRadAn=         5 IDoV=-2 UseB2=F ITyADJ=14
 ICtDFT= 12500011 ScaDFX=  1.000000  1.000000  1.000000  1.000000
 Range of M.O.s used for correlation:    15   236
 NBasis=   236 NAE=    52 NBE=    52 NFC=    14 NFV=     0
 NROrb=    222 NOA=    38 NOB=    38 NVA=   184 NVB=   184
 Fully direct method using O(ONN) memory.
 JobTyp=1 Pass  1:  I=  15 to  52 NPSUse=  4 ParTrn=T ParDer=T DoDerP=T.
 Spin components of T(2) and E(2):
     alpha-alpha T2 =       0.9193582456D-01 E2=     -0.2717048753D+00
     alpha-beta  T2 =       0.5006631032D+00 E2=     -0.1494613744D+01
     beta-beta   T2 =       0.9193582456D-01 E2=     -0.2717048753D+00
 ANorm=    0.1297896280D+01
 E2 =    -0.2038023495D+01 EUMP2 =    -0.66331106770684D+03
          IDoAtm=111111111111111111111111111
          Differentiating once with respect to electric field.
                with respect to dipole field.
          Differentiating once with respect to nuclear coordinates.
 Keep R1 ints in memory in canonical form, NReq=397723379.
          There are     1 degrees of freedom in the 1st order CPHF.  IDoFFX=0 NUNeed=     1.
 LinEq1:  Iter=  0 NonCon=     1 RMS=4.58D-03 Max=1.04D-01 NDo=     1
 AX will form     1 AO Fock derivatives at one time.
 LinEq1:  Iter=  1 NonCon=     1 RMS=1.55D-03 Max=3.21D-02 NDo=     1
 LinEq1:  Iter=  2 NonCon=     1 RMS=6.37D-04 Max=1.66D-02 NDo=     1
 LinEq1:  Iter=  3 NonCon=     1 RMS=2.96D-04 Max=9.09D-03 NDo=     1
 LinEq1:  Iter=  4 NonCon=     1 RMS=9.14D-05 Max=2.10D-03 NDo=     1
 LinEq1:  Iter=  5 NonCon=     1 RMS=3.89D-05 Max=2.04D-03 NDo=     1
 LinEq1:  Iter=  6 NonCon=     1 RMS=1.60D-05 Max=5.99D-04 NDo=     1
 LinEq1:  Iter=  7 NonCon=     1 RMS=6.27D-06 Max=1.11D-04 NDo=     1
 LinEq1:  Iter=  8 NonCon=     1 RMS=2.52D-06 Max=6.49D-05 NDo=     1
 LinEq1:  Iter=  9 NonCon=     1 RMS=9.65D-07 Max=2.69D-05 NDo=     1
 LinEq1:  Iter= 10 NonCon=     1 RMS=4.68D-07 Max=1.46D-05 NDo=     1
 LinEq1:  Iter= 11 NonCon=     1 RMS=1.63D-07 Max=5.85D-06 NDo=     1
 LinEq1:  Iter= 12 NonCon=     1 RMS=5.70D-08 Max=9.14D-07 NDo=     1
 LinEq1:  Iter= 13 NonCon=     1 RMS=1.83D-08 Max=4.02D-07 NDo=     1
 LinEq1:  Iter= 14 NonCon=     1 RMS=6.22D-09 Max=1.67D-07 NDo=     1
 LinEq1:  Iter= 15 NonCon=     1 RMS=2.44D-09 Max=5.49D-08 NDo=     1
 LinEq1:  Iter= 16 NonCon=     1 RMS=9.24D-10 Max=1.56D-08 NDo=     1
 LinEq1:  Iter= 17 NonCon=     1 RMS=2.89D-10 Max=4.63D-09 NDo=     1
 LinEq1:  Iter= 18 NonCon=     1 RMS=9.55D-11 Max=1.23D-09 NDo=     1
 LinEq1:  Iter= 19 NonCon=     0 RMS=3.05D-11 Max=5.95D-10 NDo=     1
 Linear equations converged to 1.000D-10 1.000D-09 after    19 iterations.
 End of Minotr F.D. properties file   721 does not exist.
 End of Minotr F.D. properties file   722 does not exist.
 End of Minotr F.D. properties file   788 does not exist.

 **********************************************************************

            Population analysis using the SCF Density.

 **********************************************************************

 Alpha  occ. eigenvalues --  -20.59965 -20.59485 -15.85358 -15.62363 -15.57506
 Alpha  occ. eigenvalues --  -11.35629 -11.30694 -11.30303 -11.29919 -11.27793
 Alpha  occ. eigenvalues --  -11.24608 -11.23876 -11.23453 -11.22941  -1.58598
 Alpha  occ. eigenvalues --   -1.38113  -1.28288  -1.22888  -1.13177  -1.08332
 Alpha  occ. eigenvalues --   -1.01834  -1.00568  -0.93418  -0.88954  -0.84935
 Alpha  occ. eigenvalues --   -0.81569  -0.78154  -0.76753  -0.74111  -0.70932
 Alpha  occ. eigenvalues --   -0.70432  -0.69861  -0.67490  -0.64455  -0.63443
 Alpha  occ. eigenvalues --   -0.61550  -0.60780  -0.57437  -0.56280  -0.55045
 Alpha  occ. eigenvalues --   -0.53176  -0.50754  -0.48874  -0.48456  -0.47672
 Alpha  occ. eigenvalues --   -0.47197  -0.46091  -0.45812  -0.44054  -0.42159
 Alpha  occ. eigenvalues --   -0.40629  -0.33866
 Alpha virt. eigenvalues --    0.06796   0.11602   0.18924   0.21331   0.23001
 Alpha virt. eigenvalues --    0.24060   0.26175   0.27421   0.28498   0.28854
 Alpha virt. eigenvalues --    0.29864   0.30917   0.31882   0.32172   0.33278
 Alpha virt. eigenvalues --    0.33690   0.34280   0.35617   0.37648   0.38458
 Alpha virt. eigenvalues --    0.40768   0.42301   0.45003   0.45337   0.45720
 Alpha virt. eigenvalues --    0.46016   0.49418   0.52946   0.57558   0.58578
 Alpha virt. eigenvalues --    0.63368   0.68944   0.69989   0.71961   0.73858
 Alpha virt. eigenvalues --    0.75185   0.75590   0.75922   0.77337   0.79661
 Alpha virt. eigenvalues --    0.80273   0.83502   0.85158   0.85594   0.88196
 Alpha virt. eigenvalues --    0.88470   0.90596   0.91123   0.92002   0.93889
 Alpha virt. eigenvalues --    0.95941   0.97210   0.98341   1.00128   1.01880
 Alpha virt. eigenvalues --    1.02699   1.05160   1.05540   1.06712   1.08009
 Alpha virt. eigenvalues --    1.09331   1.10409   1.10774   1.11645   1.13196
 Alpha virt. eigenvalues --    1.13621   1.14340   1.14713   1.16198   1.17233
 Alpha virt. eigenvalues --    1.17858   1.19419   1.20576   1.21916   1.22850
 Alpha virt. eigenvalues --    1.23271   1.24654   1.25845   1.27057   1.27336
 Alpha virt. eigenvalues --    1.28946   1.31745   1.32753   1.35274   1.40398
 Alpha virt. eigenvalues --    1.42689   1.44701   1.46573   1.48265   1.51022
 Alpha virt. eigenvalues --    1.52804   1.55286   1.60690   1.61927   1.66186
 Alpha virt. eigenvalues --    1.69331   1.69999   1.71790   1.73830   1.75924
 Alpha virt. eigenvalues --    1.78976   1.80661   1.83858   1.87664   1.92593
 Alpha virt. eigenvalues --    1.93600   1.96338   1.97762   1.99334   1.99906
 Alpha virt. eigenvalues --    2.03405   2.04459   2.05599   2.08795   2.11965
 Alpha virt. eigenvalues --    2.12296   2.15869   2.17643   2.18119   2.18935
 Alpha virt. eigenvalues --    2.21115   2.22574   2.24628   2.24880   2.26868
 Alpha virt. eigenvalues --    2.29564   2.32399   2.34126   2.35967   2.37142
 Alpha virt. eigenvalues --    2.38696   2.39624   2.40879   2.43132   2.46046
 Alpha virt. eigenvalues --    2.47926   2.50071   2.52651   2.56040   2.57515
 Alpha virt. eigenvalues --    2.61172   2.62706   2.67013   2.67953   2.68960
 Alpha virt. eigenvalues --    2.70222   2.70836   2.75201   2.78517   2.80748
 Alpha virt. eigenvalues --    2.82845   2.86829   2.90464   2.91966   2.95943
 Alpha virt. eigenvalues --    2.98218   2.98398   3.02515   3.02631   3.05735
 Alpha virt. eigenvalues --    3.06479   3.11459   3.20382   3.22195   3.26937
 Alpha virt. eigenvalues --    3.28120   3.32880   3.36310   3.43097   3.57669
 Alpha virt. eigenvalues --    4.08909   4.22676   4.32237   4.35981   4.42560
 Alpha virt. eigenvalues --    4.52786   4.59180   4.60103   4.70524   4.77186
 Alpha virt. eigenvalues --    4.94245   4.99018   5.02097   5.10545
          Condensed to atoms (all electrons):
               1          2          3          4          5          6
     1  O    8.298646   0.313171  -0.088845  -0.079563   0.003271  -0.000018
     2  N    0.313171   5.689376   0.307536   0.261452  -0.042946   0.001062
     3  O   -0.088845   0.307536   8.328752  -0.085561   0.007504   0.000422
     4  C   -0.079563   0.261452  -0.085561   5.233481   0.573610  -0.055748
     5  C    0.003271  -0.042946   0.007504   0.573610   4.667758   0.306179
     6  N   -0.000018   0.001062   0.000422  -0.055748   0.306179   7.216248
     7  C    0.000003  -0.000091   0.000001   0.002288  -0.031765   0.196491
     8  H   -0.000000   0.000003  -0.000000  -0.000012   0.001176  -0.056507
     9  C   -0.000000  -0.000003   0.000000   0.000295   0.002431  -0.051222
    10  C   -0.000000   0.000000  -0.000000  -0.000009  -0.000082   0.003161
    11  C    0.000000  -0.000000  -0.000000  -0.000022   0.000015  -0.000145
    12  C   -0.000000   0.000002  -0.000000   0.000082  -0.000064   0.003518
    13  C   -0.000025  -0.000063  -0.000003  -0.014239   0.000703  -0.040251
    14  H   -0.000007  -0.000032  -0.000001   0.003458   0.006312  -0.005670
    15  N    0.000004   0.001607  -0.000014  -0.059917  -0.004552   0.001958
    16  C    0.004595  -0.029766   0.001843   0.322144  -0.039508  -0.002396
    17  H    0.000087  -0.003007   0.010044  -0.031345   0.380519  -0.034607
    18  H    0.000000  -0.000038   0.000009   0.000665  -0.022102   0.326956
    19  H    0.000000   0.000001   0.000000  -0.000403   0.000174   0.001169
    20  H    0.000000  -0.000000   0.000000  -0.000017   0.000055  -0.002499
    21  H   -0.000000  -0.000000   0.000000  -0.000000   0.000001  -0.000052
    22  H   -0.000000   0.000000  -0.000000   0.000000  -0.000003  -0.000103
    23  H    0.000000  -0.000000   0.000000   0.000020  -0.000000  -0.000024
    24  H   -0.000000   0.000000   0.000000   0.000000  -0.000000   0.000004
    25  H    0.000000  -0.000000   0.000000   0.000018  -0.000000  -0.000068
    26  H   -0.000000  -0.000000   0.000000   0.000010  -0.000003  -0.000074
    27  H    0.004340  -0.000061  -0.000016  -0.063174   0.002166   0.000111
               7          8          9         10         11         12
     1  O    0.000003  -0.000000  -0.000000  -0.000000   0.000000  -0.000000
     2  N   -0.000091   0.000003  -0.000003   0.000000  -0.000000   0.000002
     3  O    0.000001  -0.000000   0.000000  -0.000000  -0.000000  -0.000000
     4  C    0.002288  -0.000012   0.000295  -0.000009  -0.000022   0.000082
     5  C   -0.031765   0.001176   0.002431  -0.000082   0.000015  -0.000064
     6  N    0.196491  -0.056507  -0.051222   0.003161  -0.000145   0.003518
     7  C    4.982271   0.421290   0.336642  -0.048306  -0.007389  -0.062162
     8  H    0.421290   0.563454  -0.065168   0.001682  -0.000529  -0.002756
     9  C    0.336642  -0.065168   5.181182   0.317709  -0.053154  -0.006836
    10  C   -0.048306   0.001682   0.317709   5.126578   0.332546  -0.059310
    11  C   -0.007389  -0.000529  -0.053154   0.332546   5.120765   0.331128
    12  C   -0.062162  -0.002756  -0.006836  -0.059310   0.331128   5.135649
    13  C    0.338747  -0.045142  -0.043548  -0.002657  -0.046858   0.366302
    14  H   -0.039453  -0.000987   0.003778  -0.000395   0.003876  -0.041094
    15  N   -0.058277   0.004357  -0.011559   0.001366  -0.006087  -0.073110
    16  C   -0.004121   0.000119  -0.001071   0.000004  -0.000021   0.003178
    17  H    0.001593   0.000004  -0.000060   0.000001   0.000000   0.000001
    18  H   -0.026647  -0.001760   0.000778  -0.000122   0.000011  -0.000119
    19  H   -0.036157   0.004523   0.384087  -0.032686  -0.002486   0.000679
    20  H   -0.041172  -0.002080   0.398352  -0.037693   0.004169  -0.000336
    21  H    0.004028  -0.000072  -0.035997   0.400531  -0.035952   0.004181
    22  H   -0.004159   0.003657  -0.045399   0.395716  -0.045296  -0.001410
    23  H    0.000300   0.000039  -0.002041  -0.040586   0.396755  -0.037950
    24  H   -0.000142  -0.000095   0.004377  -0.038280   0.400389  -0.037234
    25  H    0.004896   0.000004  -0.000364   0.004092  -0.034116   0.395846
    26  H   -0.004388   0.001776   0.000968  -0.002398  -0.042724   0.394345
    27  H   -0.000419   0.000010  -0.000059   0.000005   0.000002  -0.000022
              13         14         15         16         17         18
     1  O   -0.000025  -0.000007   0.000004   0.004595   0.000087   0.000000
     2  N   -0.000063  -0.000032   0.001607  -0.029766  -0.003007  -0.000038
     3  O   -0.000003  -0.000001  -0.000014   0.001843   0.010044   0.000009
     4  C   -0.014239   0.003458  -0.059917   0.322144  -0.031345   0.000665
     5  C    0.000703   0.006312  -0.004552  -0.039508   0.380519  -0.022102
     6  N   -0.040251  -0.005670   0.001958  -0.002396  -0.034607   0.326956
     7  C    0.338747  -0.039453  -0.058277  -0.004121   0.001593  -0.026647
     8  H   -0.045142  -0.000987   0.004357   0.000119   0.000004  -0.001760
     9  C   -0.043548   0.003778  -0.011559  -0.001071  -0.000060   0.000778
    10  C   -0.002657  -0.000395   0.001366   0.000004   0.000001  -0.000122
    11  C   -0.046858   0.003876  -0.006087  -0.000021   0.000000   0.000011
    12  C    0.366302  -0.041094  -0.073110   0.003178   0.000001  -0.000119
    13  C    5.037905   0.399619   0.235448  -0.072184  -0.000051   0.003333
    14  H    0.399619   0.521874  -0.036159  -0.005228   0.000124   0.000010
    15  N    0.235448  -0.036159   6.920533   0.581595  -0.000084  -0.000116
    16  C   -0.072184  -0.005228   0.581595   4.714123   0.001558  -0.000240
    17  H   -0.000051   0.000124  -0.000084   0.001558   0.391478  -0.001365
    18  H    0.003333   0.000010  -0.000116  -0.000240  -0.001365   0.319032
    19  H   -0.006494   0.000059   0.006993   0.002517   0.000008  -0.000110
    20  H    0.003707  -0.000046   0.000038  -0.000031   0.000000   0.003241
    21  H   -0.000345   0.000008  -0.000017   0.000001  -0.000000  -0.000000
    22  H    0.000413  -0.000047  -0.000001  -0.000001  -0.000000   0.000002
    23  H   -0.005220   0.000002   0.006179   0.000013   0.000000   0.000000
    24  H    0.004005  -0.000057   0.000018   0.000005   0.000000  -0.000000
    25  H   -0.034800  -0.002501   0.000312  -0.000055  -0.000000   0.000002
    26  H   -0.044456  -0.001168   0.004173  -0.000086   0.000000  -0.000000
    27  H    0.004985  -0.000192  -0.038945   0.400730  -0.000055   0.000004
              19         20         21         22         23         24
     1  O    0.000000   0.000000  -0.000000  -0.000000   0.000000  -0.000000
     2  N    0.000001  -0.000000  -0.000000   0.000000  -0.000000   0.000000
     3  O    0.000000   0.000000   0.000000  -0.000000   0.000000   0.000000
     4  C   -0.000403  -0.000017  -0.000000   0.000000   0.000020   0.000000
     5  C    0.000174   0.000055   0.000001  -0.000003  -0.000000  -0.000000
     6  N    0.001169  -0.002499  -0.000052  -0.000103  -0.000024   0.000004
     7  C   -0.036157  -0.041172   0.004028  -0.004159   0.000300  -0.000142
     8  H    0.004523  -0.002080  -0.000072   0.003657   0.000039  -0.000095
     9  C    0.384087   0.398352  -0.035997  -0.045399  -0.002041   0.004377
    10  C   -0.032686  -0.037693   0.400531   0.395716  -0.040586  -0.038280
    11  C   -0.002486   0.004169  -0.035952  -0.045296   0.396755   0.400389
    12  C    0.000679  -0.000336   0.004181  -0.001410  -0.037950  -0.037234
    13  C   -0.006494   0.003707  -0.000345   0.000413  -0.005220   0.004005
    14  H    0.000059  -0.000046   0.000008  -0.000047   0.000002  -0.000057
    15  N    0.006993   0.000038  -0.000017  -0.000001   0.006179   0.000018
    16  C    0.002517  -0.000031   0.000001  -0.000001   0.000013   0.000005
    17  H    0.000008   0.000000  -0.000000  -0.000000   0.000000   0.000000
    18  H   -0.000110   0.003241  -0.000000   0.000002   0.000000  -0.000000
    19  H    0.511424  -0.024039  -0.002603   0.003786   0.001739  -0.000068
    20  H   -0.024039   0.549276  -0.002565  -0.002915  -0.000050  -0.000090
    21  H   -0.002603  -0.002565   0.526134  -0.024769  -0.002866  -0.002008
    22  H    0.003786  -0.002915  -0.024769   0.567052   0.004092  -0.003504
    23  H    0.001739  -0.000050  -0.002866   0.004092   0.514413  -0.024868
    24  H   -0.000068  -0.000090  -0.002008  -0.003504  -0.024868   0.538987
    25  H   -0.000027   0.000010  -0.000086  -0.000081  -0.002217  -0.002316
    26  H    0.000026  -0.000035  -0.000076   0.002484   0.003936  -0.002868
    27  H    0.000069  -0.000000  -0.000000   0.000000  -0.000015  -0.000000
              25         26         27
     1  O    0.000000  -0.000000   0.004340
     2  N   -0.000000  -0.000000  -0.000061
     3  O    0.000000   0.000000  -0.000016
     4  C    0.000018   0.000010  -0.063174
     5  C   -0.000000  -0.000003   0.002166
     6  N   -0.000068  -0.000074   0.000111
     7  C    0.004896  -0.004388  -0.000419
     8  H    0.000004   0.001776   0.000010
     9  C   -0.000364   0.000968  -0.000059
    10  C    0.004092  -0.002398   0.000005
    11  C   -0.034116  -0.042724   0.000002
    12  C    0.395846   0.394345  -0.000022
    13  C   -0.034800  -0.044456   0.004985
    14  H   -0.002501  -0.001168  -0.000192
    15  N    0.000312   0.004173  -0.038945
    16  C   -0.000055  -0.000086   0.400730
    17  H   -0.000000   0.000000  -0.000055
    18  H    0.000002  -0.000000   0.000004
    19  H   -0.000027   0.000026   0.000069
    20  H    0.000010  -0.000035  -0.000000
    21  H   -0.000086  -0.000076  -0.000000
    22  H   -0.000081   0.002484   0.000000
    23  H   -0.002217   0.003936  -0.000015
    24  H   -0.002316  -0.002868  -0.000000
    25  H    0.511353  -0.023174  -0.000008
    26  H   -0.023174   0.560896   0.000001
    27  H   -0.000008   0.000001   0.454606
 Mulliken charges:
               1
     1  O   -0.455659
     2  N    0.501796
     3  O   -0.481670
     4  C   -0.007513
     5  C    0.189152
     6  N   -0.807896
     7  C    0.076098
     8  H    0.173014
     9  C   -0.314118
    10  C   -0.320866
    11  C   -0.314878
    12  C   -0.312507
    13  C   -0.038832
    14  H    0.193914
    15  N   -0.475742
    16  C    0.122280
    17  H    0.285155
    18  H    0.398577
    19  H    0.187818
    20  H    0.154718
    21  H    0.172524
    22  H    0.150487
    23  H    0.188350
    24  H    0.163745
    25  H    0.183279
    26  H    0.152836
    27  H    0.235939
 Sum of Mulliken charges =  -0.00000
 Mulliken charges with hydrogens summed into heavy atoms:
               1
     1  O   -0.455659
     2  N    0.501796
     3  O   -0.481670
     4  C   -0.007513
     5  C    0.474306
     6  N   -0.409319
     7  C    0.249112
     9  C    0.028418
    10  C    0.002145
    11  C    0.037217
    12  C    0.023609
    13  C    0.155082
    15  N   -0.475742
    16  C    0.358219
 Electronic spatial extent (au):  <R**2>=           3121.9571
 Charge=             -0.0000 electrons
 Dipole moment (field-independent basis, Debye):
    X=              5.2154    Y=              4.3779    Z=              0.1589  Tot=              6.8112
 Quadrupole moment (field-independent basis, Debye-Ang):
   XX=           -104.9641   YY=            -80.9991   ZZ=            -81.9605
   XY=             -2.4378   XZ=              2.1756   YZ=             -0.4600
 Traceless Quadrupole moment (field-independent basis, Debye-Ang):
   XX=            -15.6562   YY=              8.3088   ZZ=              7.3474
   XY=             -2.4378   XZ=              2.1756   YZ=             -0.4600
 Octapole moment (field-independent basis, Debye-Ang**2):
  XXX=             99.3840  YYY=             37.1925  ZZZ=             -7.2787  XYY=             -0.8867
  XXY=             13.0695  XXZ=             -9.2635  XZZ=             -8.9383  YZZ=             -2.1906
  YYZ=             -2.0482  XYZ=             -3.0345
 Hexadecapole moment (field-independent basis, Debye-Ang**3):
 XXXX=          -3542.7054 YYYY=           -623.8721 ZZZZ=           -298.6359 XXXY=            -59.4643
 XXXZ=             96.7057 YYYX=            -35.9139 YYYZ=              6.6228 ZZZX=             59.0526
 ZZZY=             14.4807 XXYY=           -657.4333 XXZZ=           -545.0500 YYZZ=           -162.2806
 XXYZ=              3.4778 YYXZ=             22.1931 ZZXY=             -1.0051
 N-N= 9.180032244291D+02 E-N=-3.382006556842D+03  KE= 6.588546121233D+02
 Calling FoFJK, ICntrl=  10002127 FMM=F ISym2X=0 I1Cent= 0 IOpClX= 0 NMat=1 NMatS=1 NMatT=0.
 -------------------------------------------------------------------
 Center     Atomic                   Forces (Hartrees/Bohr)
 Number     Number              X              Y              Z
 -------------------------------------------------------------------
      1        8           0.002139522   -0.019836244   -0.005160198
      2        7           0.038163677    0.014302417   -0.001644079
      3        8          -0.005384132    0.014848145    0.004653137
      4        6          -0.001641556    0.013152388    0.011812390
      5        6          -0.002266940   -0.020297978   -0.015154661
      6        7           0.017700578   -0.014536075   -0.002613469
      7        6           0.000806110    0.011106237    0.010319103
      8        1          -0.007958252   -0.002978005   -0.008020652
      9        6          -0.006493512   -0.002684997   -0.004499730
     10        6           0.003206888   -0.000912257    0.001645412
     11        6          -0.003855718   -0.004657579   -0.003188546
     12        6           0.003205254   -0.007306650   -0.000782436
     13        6           0.012320725   -0.003583509    0.005328180
     14        1           0.000362904    0.005238800   -0.010272719
     15        7          -0.005759230    0.007976412   -0.006205217
     16        6          -0.020300375    0.002586992    0.009495717
     17        1           0.004916105   -0.004472755   -0.010838539
     18        1          -0.015718853   -0.001401668    0.010776585
     19        1           0.003138474    0.006399219    0.007163050
     20        1          -0.003621235   -0.007324513    0.002584927
     21        1          -0.005087149    0.002363665    0.009335036
     22        1          -0.003501214   -0.004004347   -0.007678311
     23        1           0.004105631    0.005999556    0.009079486
     24        1          -0.009396967    0.002568328   -0.002543459
     25        1          -0.000812091    0.010580471   -0.002406947
     26        1          -0.004771256   -0.004913342   -0.004623785
     27        1           0.006502612    0.001787290    0.003439726
 -------------------------------------------------------------------
 Cartesian Forces:  Max     0.038163677 RMS     0.009144743

 GradGradGradGradGradGradGradGradGradGradGradGradGradGradGradGradGradGrad
 Berny optimization.
 FormGI is forming the generalized inverse of G from B-inverse, IUseBI=4.
 Internal  Forces:  Max     0.037116688 RMS     0.006809066
 Search for a local minimum.
 Step number   1 out of a maximum of   20
 All quantities printed in internal units (Hartrees-Bohrs-Radians)
 Mixed Optimization -- RFO/linear search
 Second derivative matrix not updated -- first step.
 ITU=  0
     Eigenvalues ---    0.00231   0.00823   0.01016   0.01170   0.01194
     Eigenvalues ---    0.01486   0.01548   0.01925   0.02018   0.02074
     Eigenvalues ---    0.02650   0.03286   0.04424   0.04679   0.04836
     Eigenvalues ---    0.05031   0.05113   0.05310   0.05570   0.06237
     Eigenvalues ---    0.06850   0.07678   0.07748   0.07945   0.07980
     Eigenvalues ---    0.08055   0.08230   0.10487   0.11719   0.12168
     Eigenvalues ---    0.13184   0.15444   0.15828   0.15993   0.16000
     Eigenvalues ---    0.19712   0.21424   0.22814   0.24997   0.25000
     Eigenvalues ---    0.25000   0.25501   0.26056   0.26666   0.28023
     Eigenvalues ---    0.28162   0.28447   0.29989   0.30961   0.31228
     Eigenvalues ---    0.31982   0.32206   0.32289   0.32370   0.32382
     Eigenvalues ---    0.32431   0.32444   0.32516   0.32524   0.32870
     Eigenvalues ---    0.33377   0.33614   0.35361   0.43867   0.43884
     Eigenvalues ---    0.48666   0.65445   0.90482   0.912361000.00000
     Eigenvalues --- 1000.000001000.000001000.000001000.000001000.00000
     Eigenvalues --- 1000.000001000.000001000.000001000.000001000.00000
     Eigenvalues --- 1000.000001000.000001000.000001000.000001000.00000
     Eigenvalues --- 1000.000001000.000001000.000001000.000001000.00000
     Eigenvalues --- 1000.000001000.000001000.000001000.000001000.00000
     Eigenvalues --- 1000.000001000.000001000.000001000.000001000.00000
     Eigenvalues --- 1000.000001000.000001000.000001000.000001000.00000
     Eigenvalues --- 1000.000001000.000001000.000001000.000001000.00000
     Eigenvalues --- 1000.000001000.000001000.000001000.000001000.00000
     Eigenvalues --- 1000.000001000.000001000.000001000.000001000.00000
     Eigenvalues --- 1000.000001000.000001000.000001000.000001000.00000
     Eigenvalues --- 1000.000001000.000001000.000001000.000001000.00000
     Eigenvalues --- 1000.000001000.000001000.000001000.000001000.00000
     Eigenvalues --- 1000.000001000.000001000.000001000.000001000.00000
     Eigenvalues --- 1000.000001000.000001000.000001000.000001000.00000
     Eigenvalues --- 1000.000001000.000001000.000001000.000001000.00000
     Eigenvalues --- 1000.000001000.000001000.000001000.000001000.00000
     Eigenvalues --- 1000.000001000.000001000.000001000.000001000.00000
     Eigenvalues --- 1000.00000
 RFO step:  Lambda=-2.35652827D-02 EMin= 2.31457600D-03
 Linear search not attempted -- first point.
 Iteration  1 RMS(Cart)=  0.05221809 RMS(Int)=  0.00107785
 Iteration  2 RMS(Cart)=  0.00113360 RMS(Int)=  0.00040225
 Iteration  3 RMS(Cart)=  0.00000102 RMS(Int)=  0.00040225
 Iteration  4 RMS(Cart)=  0.00000000 RMS(Int)=  0.00040225
 Iteration  1 RMS(Cart)=  0.00004518 RMS(Int)=  0.00003373
 Iteration  2 RMS(Cart)=  0.00003098 RMS(Int)=  0.00003721
 Iteration  3 RMS(Cart)=  0.00002132 RMS(Int)=  0.00004278
 Iteration  4 RMS(Cart)=  0.00001471 RMS(Int)=  0.00004755
 Iteration  5 RMS(Cart)=  0.00001018 RMS(Int)=  0.00005114
 Iteration  6 RMS(Cart)=  0.00000708 RMS(Int)=  0.00005371
 Iteration  7 RMS(Cart)=  0.00000495 RMS(Int)=  0.00005553
 Iteration  8 RMS(Cart)=  0.00000349 RMS(Int)=  0.00005680
 Iteration  9 RMS(Cart)=  0.00000248 RMS(Int)=  0.00005769
 Iteration 10 RMS(Cart)=  0.00000179 RMS(Int)=  0.00005832
 Iteration 11 RMS(Cart)=  0.00000132 RMS(Int)=  0.00005875
 Iteration 12 RMS(Cart)=  0.00000099 RMS(Int)=  0.00005906
 Variable       Old X    -DE/DX   Delta X   Delta X   Delta X     New X
                                 (Linear)    (Quad)   (Total)
    R1        2.32368   0.01901   0.00000   0.02031   0.02031   2.34399
    R2        2.32711   0.01542   0.00000   0.01661   0.01661   2.34372
    R3        2.87986  -0.03615   0.00000  -0.11176  -0.11176   2.76810
    R4        2.64859  -0.03712   0.00000  -0.07868  -0.07842   2.57017
    R5        2.82036  -0.02114   0.00000  -0.05512  -0.05489   2.76547
    R6        2.59000  -0.01772   0.00000  -0.03729  -0.03720   2.55280
    R7        2.08395  -0.01010   0.00000  -0.02827  -0.02827   2.05568
    R8        2.82452  -0.01908   0.00000  -0.05779  -0.05771   2.76681
    R9        1.93313  -0.00770   0.00000  -0.01667  -0.01667   1.91647
   R10        2.12279  -0.01138   0.00000  -0.03388  -0.03388   2.08891
   R11        2.92147  -0.01280   0.00000  -0.04789  -0.04795   2.87351
   R12        2.90271  -0.00713   0.00000  -0.01859  -0.01843   2.88428
   R13        2.90907  -0.00514   0.00000  -0.01471  -0.01472   2.89434
   R14        2.10039  -0.00995   0.00000  -0.02859  -0.02859   2.07179
   R15        2.09911  -0.00808   0.00000  -0.02317  -0.02317   2.07593
   R16        2.90435  -0.00215   0.00000  -0.00621  -0.00626   2.89809
   R17        2.10151  -0.01064   0.00000  -0.03063  -0.03063   2.07088
   R18        2.10318  -0.00906   0.00000  -0.02615  -0.02615   2.07704
   R19        2.92025  -0.00937   0.00000  -0.02544  -0.02537   2.89488
   R20        2.10469  -0.01154   0.00000  -0.03340  -0.03340   2.07130
   R21        2.10062  -0.01004   0.00000  -0.02885  -0.02885   2.07178
   R22        2.93545  -0.01039   0.00000  -0.03714  -0.03713   2.89831
   R23        2.10172  -0.01070   0.00000  -0.03081  -0.03081   2.07091
   R24        2.09896  -0.00800   0.00000  -0.02292  -0.02292   2.07604
   R25        2.10878  -0.00910   0.00000  -0.02649  -0.02649   2.08229
   R26        2.76656  -0.00298   0.00000  -0.00856  -0.00910   2.75746
   R27        2.45029  -0.00943   0.00000  -0.01167  -0.01191   2.43838
   R28        2.07986  -0.00630   0.00000  -0.01752  -0.01752   2.06235
    A1        2.16185   0.01051   0.00000   0.03862   0.03843   2.20028
    A2        2.05241  -0.00787   0.00000  -0.02855  -0.02874   2.02367
    A3        2.06873  -0.00264   0.00000  -0.00942  -0.00961   2.05912
    A4        2.03866  -0.00426   0.00000  -0.01693  -0.01713   2.02153
    A5        2.03882  -0.00440   0.00000  -0.01733  -0.01756   2.02126
    A6        2.20559   0.00865   0.00000   0.03394   0.03416   2.23975
    A7        2.16636   0.00630   0.00000   0.01211   0.01216   2.17851
    A8        2.07750  -0.00389   0.00000  -0.01014  -0.01041   2.06710
    A9        2.03929  -0.00242   0.00000  -0.00218  -0.00239   2.03691
   A10        2.22061  -0.00347   0.00000  -0.01675  -0.01711   2.20350
   A11        2.14369  -0.01257   0.00000  -0.06439  -0.06527   2.07843
   A12        1.90492   0.01605   0.00000   0.09032   0.09005   1.99497
   A13        1.82481   0.00118   0.00000  -0.01480  -0.01474   1.81008
   A14        2.01479  -0.00307   0.00000  -0.01023  -0.01015   2.00464
   A15        1.97622   0.00003   0.00000   0.00752   0.00734   1.98356
   A16        1.83587   0.00318   0.00000   0.01116   0.01123   1.84710
   A17        1.83357   0.00014   0.00000   0.00445   0.00409   1.83766
   A18        1.95716  -0.00064   0.00000   0.00235   0.00258   1.95973
   A19        1.91504  -0.00072   0.00000  -0.00790  -0.00811   1.90693
   A20        1.91616   0.00006   0.00000  -0.00456  -0.00450   1.91166
   A21        1.92497  -0.00163   0.00000  -0.01055  -0.01042   1.91455
   A22        1.91673  -0.00044   0.00000   0.00848   0.00857   1.92530
   A23        1.90456   0.00347   0.00000   0.02201   0.02196   1.92652
   A24        1.88614  -0.00071   0.00000  -0.00719  -0.00743   1.87871
   A25        1.93856  -0.00109   0.00000   0.00633   0.00634   1.94489
   A26        1.91933  -0.00085   0.00000  -0.00615  -0.00622   1.91311
   A27        1.90623   0.00057   0.00000  -0.00416  -0.00424   1.90199
   A28        1.91589   0.00114   0.00000   0.00880   0.00882   1.92471
   A29        1.89904   0.00149   0.00000   0.00905   0.00904   1.90808
   A30        1.88382  -0.00124   0.00000  -0.01438  -0.01445   1.86936
   A31        1.94532   0.00057   0.00000   0.00203   0.00200   1.94732
   A32        1.90050   0.00058   0.00000   0.00488   0.00491   1.90542
   A33        1.92031   0.00036   0.00000   0.00683   0.00682   1.92713
   A34        1.89996  -0.00027   0.00000  -0.00776  -0.00776   1.89219
   A35        1.91752  -0.00101   0.00000  -0.00194  -0.00196   1.91556
   A36        1.87881  -0.00024   0.00000  -0.00437  -0.00441   1.87439
   A37        1.96612  -0.00342   0.00000  -0.01043  -0.01050   1.95562
   A38        1.90486   0.00275   0.00000   0.02001   0.01996   1.92483
   A39        1.90265   0.00171   0.00000   0.00873   0.00868   1.91133
   A40        1.90529  -0.00009   0.00000  -0.00412  -0.00405   1.90124
   A41        1.90510   0.00008   0.00000  -0.00933  -0.00927   1.89583
   A42        1.87778  -0.00094   0.00000  -0.00467  -0.00486   1.87292
   A43        1.84980   0.00388   0.00000   0.02096   0.02096   1.87075
   A44        1.94710  -0.00441   0.00000  -0.03676  -0.03727   1.90983
   A45        1.97213   0.00084   0.00000   0.01438   0.01485   1.98698
   A46        1.86826   0.00250   0.00000   0.03485   0.03531   1.90358
   A47        1.89394  -0.00199   0.00000  -0.02048  -0.02080   1.87314
   A48        1.92726  -0.00049   0.00000  -0.00989  -0.00997   1.91729
   A49        2.04573  -0.00325   0.00000  -0.02256  -0.02310   2.02263
   A50        2.23076  -0.00376   0.00000  -0.01722  -0.01680   2.21395
   A51        1.98344   0.00641   0.00000   0.03259   0.03239   2.01583
   A52        2.06678  -0.00246   0.00000  -0.01508  -0.01529   2.05149
    D1       -3.01323  -0.00140   0.00000  -0.01982  -0.01964  -3.03287
    D2        0.14414  -0.00069   0.00000   0.00000  -0.00000   0.14414
    D3        0.14840  -0.00151   0.00000  -0.05466  -0.05456   0.09384
    D4       -2.97742  -0.00080   0.00000  -0.03483  -0.03492  -3.01234
    D5       -3.10699  -0.00278   0.00000  -0.02007  -0.02024  -3.12723
    D6        0.02650  -0.00278   0.00000  -0.05228  -0.05269  -0.02620
    D7        0.01711  -0.00372   0.00000  -0.04263  -0.04340  -0.02628
    D8       -3.13258  -0.00372   0.00000  -0.07484  -0.07585   3.07475
    D9       -2.52353  -0.00238   0.00000  -0.00410  -0.00466  -2.52820
   D10        0.54479   0.00079   0.00000   0.00037   0.00011   0.54490
   D11        0.63555  -0.00145   0.00000   0.01846   0.01848   0.65403
   D12       -2.57932   0.00173   0.00000   0.02293   0.02326  -2.55605
   D13       -0.47636   0.00296   0.00000   0.02779   0.02810  -0.44826
   D14        2.46654   0.00466   0.00000   0.10171   0.09921   2.56575
   D15        2.67317   0.00297   0.00000   0.05939   0.06008   2.73325
   D16       -0.66711   0.00467   0.00000   0.13332   0.13118  -0.53593
   D17       -2.20689  -0.00214   0.00000  -0.00118  -0.00080  -2.20769
   D18        2.06851  -0.00521   0.00000   0.00000   0.00001   2.06852
   D19       -0.22077  -0.00127   0.00000  -0.00098  -0.00115  -0.22193
   D20        1.11120  -0.00120   0.00000  -0.05366  -0.05498   1.05621
   D21       -0.89659  -0.00427   0.00000  -0.05248  -0.05418  -0.95077
   D22        3.09731  -0.00033   0.00000  -0.05346  -0.05534   3.04198
   D23        2.91971   0.00416   0.00000   0.00516   0.00508   2.92480
   D24       -1.25540   0.00320   0.00000   0.00776   0.00774  -1.24766
   D25        0.82114   0.00135   0.00000  -0.01042  -0.01038   0.81076
   D26        0.91826   0.00225   0.00000   0.02131   0.02110   0.93936
   D27        3.02633   0.00129   0.00000   0.02392   0.02376   3.05009
   D28       -1.18032  -0.00056   0.00000   0.00573   0.00564  -1.17468
   D29       -1.06516   0.00059   0.00000   0.00867   0.00860  -1.05656
   D30        1.04291  -0.00037   0.00000   0.01128   0.01126   1.05417
   D31        3.11945  -0.00221   0.00000  -0.00691  -0.00686   3.11259
   D32       -2.90192  -0.00317   0.00000  -0.00355  -0.00334  -2.90526
   D33       -0.87439  -0.00020   0.00000   0.03128   0.03109  -0.84330
   D34        1.30936  -0.00370   0.00000   0.00000   0.00000   1.30936
   D35       -0.92109  -0.00168   0.00000  -0.01495  -0.01496  -0.93606
   D36        1.10644   0.00130   0.00000   0.01989   0.01946   1.12590
   D37       -2.99300  -0.00221   0.00000  -0.01139  -0.01163  -3.00463
   D38        1.06374   0.00185   0.00000   0.00181   0.00188   1.06562
   D39        3.09127   0.00482   0.00000   0.03665   0.03631   3.12758
   D40       -1.00816   0.00132   0.00000   0.00537   0.00522  -1.00295
   D41        0.95665   0.00052   0.00000   0.00000   0.00001   0.95665
   D42        3.08100   0.00065   0.00000   0.01114   0.01113   3.09213
   D43       -1.13797  -0.00101   0.00000  -0.01250  -0.01245  -1.15042
   D44       -1.15108   0.00118   0.00000   0.00529   0.00533  -1.14576
   D45        0.97327   0.00131   0.00000   0.01643   0.01645   0.98972
   D46        3.03748  -0.00035   0.00000  -0.00721  -0.00713   3.03036
   D47        3.06759   0.00024   0.00000  -0.00408  -0.00419   3.06339
   D48       -1.09125   0.00037   0.00000   0.00706   0.00693  -1.08431
   D49        0.97297  -0.00129   0.00000  -0.01658  -0.01665   0.95632
   D50       -0.92193  -0.00157   0.00000   0.00000   0.00000  -0.92193
   D51        1.17432  -0.00117   0.00000  -0.00519  -0.00519   1.16913
   D52       -3.05357  -0.00091   0.00000  -0.00364  -0.00363  -3.05720
   D53       -3.04829  -0.00055   0.00000  -0.00240  -0.00242  -3.05071
   D54       -0.95204  -0.00015   0.00000  -0.00759  -0.00761  -0.95965
   D55        1.10326   0.00011   0.00000  -0.00604  -0.00605   1.09721
   D56        1.17695  -0.00058   0.00000   0.00460   0.00462   1.18157
   D57       -3.00998  -0.00018   0.00000  -0.00059  -0.00058  -3.01056
   D58       -0.95468   0.00008   0.00000   0.00096   0.00098  -0.95370
   D59        0.97452  -0.00007   0.00000  -0.01647  -0.01641   0.95810
   D60        3.09378  -0.00052   0.00000  -0.01457  -0.01462   3.07916
   D61       -1.14295   0.00088   0.00000  -0.00388  -0.00381  -1.14676
   D62       -1.12206  -0.00097   0.00000  -0.01872  -0.01868  -1.14074
   D63        0.99720  -0.00142   0.00000  -0.01683  -0.01688   0.98032
   D64        3.04366  -0.00002   0.00000  -0.00614  -0.00607   3.03758
   D65        3.10776   0.00006   0.00000  -0.00777  -0.00775   3.10001
   D66       -1.05616  -0.00039   0.00000  -0.00587  -0.00596  -1.06212
   D67        0.99029   0.00101   0.00000   0.00481   0.00485   0.99515
   D68       -1.01386  -0.00045   0.00000   0.01214   0.01211  -1.00175
   D69       -3.09405   0.00142   0.00000   0.02663   0.02628  -3.06777
   D70        1.10903   0.00168   0.00000   0.03002   0.03015   1.13918
   D71       -3.13288  -0.00162   0.00000  -0.00348  -0.00342  -3.13630
   D72        1.07012   0.00026   0.00000   0.01101   0.01075   1.08087
   D73       -1.00999   0.00051   0.00000   0.01440   0.01462  -0.99537
   D74        1.10221  -0.00048   0.00000   0.00982   0.00987   1.11208
   D75       -0.97798   0.00139   0.00000   0.02431   0.02404  -0.95394
   D76       -3.05808   0.00165   0.00000   0.02770   0.02791  -3.03017
   D77       -1.17217   0.00198   0.00000   0.00000   0.00000  -1.17217
   D78        3.06492  -0.00205   0.00000  -0.02122  -0.02110   3.04382
   D79        1.02228  -0.00362   0.00000  -0.04566  -0.04585   0.97642
   D80       -0.01361   0.00562   0.00000   0.01163   0.01191  -0.00170
   D81       -3.07888   0.00200   0.00000   0.00525   0.00531  -3.07357
         Item               Value     Threshold  Converged?
 Maximum Force            0.036360     0.000450     NO 
 RMS     Force            0.006859     0.000300     NO 
 Maximum Displacement     0.272908     0.001800     NO 
 RMS     Displacement     0.052545     0.001200     NO 
 Predicted change in Energy=-1.340344D-02
 GradGradGradGradGradGradGradGradGradGradGradGradGradGradGradGradGradGrad

                          Input orientation:                          
 ---------------------------------------------------------------------
 Center     Atomic      Atomic             Coordinates (Angstroms)
 Number     Number       Type             X           Y           Z
 ---------------------------------------------------------------------
      1          8           0       -3.440512   -1.485937   -0.022504
      2          7           0       -3.120807   -0.300639    0.154754
      3          8           0       -3.885473    0.621824    0.474992
      4          6           0       -1.700150    0.012519   -0.016575
      5          6           0       -1.330009    1.280986    0.305581
      6          7           0       -0.074168    1.767865    0.202107
      7          6           0        1.163719    0.987554    0.251398
      8          1           0        1.756226    1.485781    1.040463
      9          6           0        2.011996    1.054305   -1.008836
     10          6           0        3.395535    0.464990   -0.718337
     11          6           0        3.291498   -0.955454   -0.149610
     12          6           0        2.354732   -1.010164    1.061259
     13          6           0        0.965634   -0.444598    0.740564
     14          1           0        0.358911   -0.437072    1.660354
     15          7           0        0.355129   -1.326699   -0.248579
     16          6           0       -0.870574   -1.065671   -0.555950
     17          1           0       -2.097854    1.975874    0.638592
     18          1           0        0.057731    2.745382   -0.033616
     19          1           0        1.520165    0.492863   -1.811866
     20          1           0        2.102431    2.098016   -1.339399
     21          1           0        3.994877    0.463809   -1.635781
     22          1           0        3.913754    1.109577    0.005557
     23          1           0        2.897284   -1.624824   -0.922873
     24          1           0        4.283291   -1.328239    0.132050
     25          1           0        2.246037   -2.042979    1.411153
     26          1           0        2.788002   -0.429212    1.886896
     27          1           0       -1.374395   -1.746878   -1.243815
 ---------------------------------------------------------------------
                    Distance matrix (angstroms):
                    1          2          3          4          5
     1  O    0.000000
     2  N    1.240388   0.000000
     3  O    2.210916   1.240244   0.000000
     4  C    2.296576   1.464816   2.321321   0.000000
     5  C    3.495387   2.394002   2.644541   1.360073   0.000000
     6  N    4.687210   3.682792   3.989226   2.402681   1.350886
     7  C    5.233748   4.475035   5.067356   3.037145   2.511516
     8  H    6.080057   5.268893   5.735412   3.903123   3.179125
     9  C    6.095533   5.434655   6.096633   3.981197   3.598343
    10  C    7.142957   6.619002   7.379818   5.163642   4.903572
    11  C    6.754075   6.452835   7.374744   5.086376   5.154337
    12  C    5.914875   5.595239   6.476670   4.318527   4.404285
    13  C    4.591381   4.130726   4.974035   2.808669   2.904622
    14  H    4.285760   3.793927   4.532234   2.693317   2.763980
    15  N    3.805700   3.646588   4.722606   2.464042   3.153856
    16  C    2.658151   2.480709   3.605565   1.463425   2.541676
    17  H    3.771460   2.542251   2.248510   2.107647   1.087820
    18  H    5.490163   4.406453   4.507443   3.249458   2.045808
    19  H    5.632564   5.102534   5.870884   3.718095   3.637061
    20  H    6.730761   5.938708   6.428543   4.534180   3.892960
    21  H    7.854246   7.377219   8.159673   5.937914   5.726349
    22  H    7.798891   7.176072   7.828551   5.720134   5.255134
    23  H    6.402937   6.255570   7.280608   4.963735   5.274735
    24  H    7.726958   7.475101   8.405300   6.133619   6.192520
    25  H    5.890883   5.780770   6.750777   4.672887   5.005911
    26  H    6.599761   6.158804   6.901697   4.895082   4.731104
    27  H    2.414235   2.664125   3.856238   2.169727   3.401553
                    6          7          8          9         10
     6  N    0.000000
     7  C    1.464130   0.000000
     8  H    2.032918   1.105405   0.000000
     9  C    2.515478   1.520598   2.109790   0.000000
    10  C    3.818840   2.488868   2.612034   1.531621   0.000000
    11  C    4.343717   2.909215   3.119769   2.532691   1.533602
    12  C    3.788817   2.462776   2.566785   2.943602   2.535017
    13  C    2.503221   1.526297   2.107449   2.530215   2.976603
    14  H    2.678766   2.159267   2.456445   3.475841   3.961435
    15  N    3.156539   2.501912   3.396285   2.998729   3.560181
    16  C    3.039381   3.000982   3.994812   3.606746   4.535304
    17  H    2.080647   3.429949   3.905845   4.522629   5.856735
    18  H    1.014152   2.096283   2.371735   2.762236   4.099996
    19  H    2.867685   2.151472   3.029421   1.096345   2.171082
    20  H    2.687532   2.155213   2.481619   1.098537   2.173617
    21  H    4.651400   3.442558   3.635693   2.161843   1.095863
    22  H    4.046665   2.763697   2.422289   2.156091   1.099120
    23  H    4.648165   3.347936   3.851307   2.822916   2.158104
    24  H    5.345860   3.887013   3.889728   3.483808   2.174153
    25  H    4.622518   3.420611   3.581826   3.937549   3.485109
    26  H    3.982169   2.705619   2.334139   3.344887   2.820626
    27  H    4.016802   4.019304   5.046663   4.401078   5.284006
                   11         12         13         14         15
    11  C    0.000000
    12  C    1.531903   0.000000
    13  C    2.542249   1.533722   0.000000
    14  H    3.484932   2.161168   1.101899   0.000000
    15  N    2.961399   2.411282   1.459186   2.106057   0.000000
    16  C    4.183313   3.608468   2.332025   2.611278   1.290334
    17  H    6.185391   5.377787   3.905642   3.591936   4.208466
    18  H    4.915983   4.536418   3.405821   3.617770   4.088582
    19  H    2.828133   3.348199   2.775111   3.777512   2.666830
    20  H    3.486138   3.935429   3.476125   4.297098   3.996452
    21  H    2.172039   3.483776   3.955823   4.989623   4.286959
    22  H    2.162320   2.835200   3.412786   4.215137   4.320166
    23  H    1.096083   2.146846   2.809133   3.811449   2.646904
    24  H    1.096337   2.164241   3.486826   4.304723   3.946560
    25  H    2.170641   1.095878   2.154981   2.490438   2.615971
    26  H    2.162822   1.098593   2.152983   2.439644   3.359257
    27  H    4.857386   4.445503   3.333081   3.626863   2.039190
                   16         17         18         19         20
    16  C    0.000000
    17  H    3.490578   0.000000
    18  H    3.957109   2.385488   0.000000
    19  H    3.118010   4.614556   3.220983   0.000000
    20  H    4.411515   4.644326   2.510966   1.771659   0.000000
    21  H    5.213249   6.676862   4.824275   2.481139   2.517901
    22  H    5.285526   6.106606   4.188831   3.068001   2.463089
    23  H    3.826753   6.352527   5.287016   2.677940   3.829468
    24  H    5.206209   7.203663   5.871729   3.837980   4.319785
    25  H    3.812859   5.968033   5.459345   4.164762   4.973329
    26  H    4.444970   5.586974   4.606603   4.017272   4.155222
    27  H    1.091347   4.233879   4.867851   3.703728   5.184657
                   21         22         23         24         25
    21  H    0.000000
    22  H    1.765668   0.000000
    23  H    2.464820   3.061395   0.000000
    24  H    2.533742   2.468908   1.766873   0.000000
    25  H    4.315812   3.833483   2.458994   2.509454   0.000000
    26  H    3.829267   2.678549   3.055525   2.474596   1.767570
    27  H    5.819782   6.138793   4.285456   5.837608   4.499340
                   26         27
    26  H    0.000000
    27  H    5.372443   0.000000
 Symmetry turned off by external request.
 Stoichiometry    C9H13N3O2
 Framework group  C1[X(C9H13N3O2)]
 Deg. of freedom    75
 Full point group                 C1      NOp   1
 Rotational constants (GHZ):           1.7081804           0.4211605           0.3709157
 Standard basis: 6-31G(d) (6D, 7F)
   236 basis functions,   444 primitive gaussians,   236 cartesian basis functions
    52 alpha electrons       52 beta electrons
       nuclear repulsion energy       932.0459050018 Hartrees.
 NAtoms=   27 NActive=   27 NUniq=   27 SFac= 1.00D+00 NAtFMM=   60 NAOKFM=F Big=F
 Integral buffers will be    131072 words long.
 Raffenetti 1 integral format.
 Two-electron integral symmetry is turned off.
 One-electron integrals computed using PRISM.
 NBasis=   236 RedAO= T EigKep=  1.05D-03  NBF=   236
 NBsUse=   236 1.00D-06 EigRej= -1.00D+00 NBFU=   236
 Initial guess from the checkpoint file:  "/home/alexey/tmp/Gau-1531337.chk"
 B after Tr=     0.050949    0.000819    0.006202
         Rot=    0.999997    0.000606   -0.002252    0.000638 Ang=   0.28 deg.
 ExpMin= 1.61D-01 ExpMax= 5.48D+03 ExpMxC= 8.25D+02 IAcc=3 IRadAn=         5 AccDes= 0.00D+00
 Harris functional with IExCor=  205 and IRadAn=       5 diagonalized for initial guess.
 HarFok:  IExCor=  205 AccDes= 0.00D+00 IRadAn=         5 IDoV= 1 UseB2=F ITyADJ=14
 ICtDFT=  3500011 ScaDFX=  1.000000  1.000000  1.000000  1.000000
 FoFCou: FMM=F IPFlag=           0 FMFlag=      100000 FMFlg1=           0
         NFxFlg=           0 DoJE=T BraDBF=F KetDBF=T FulRan=T
         wScrn=  0.000000 ICntrl=       500 IOpCl=  0 I1Cent=   200000004 NGrid=           0
         NMat0=    1 NMatS0=      1 NMatT0=    0 NMatD0=    1 NMtDS0=    0 NMtDT0=    0
 Symmetry not used in FoFCou.
 Keep R1 ints in memory in canonical form, NReq=397720213.
 Requested convergence on RMS density matrix=1.00D-08 within 128 cycles.
 Requested convergence on MAX density matrix=1.00D-06.
 Requested convergence on             energy=1.00D-06.
 No special actions if energy rises.
 SCF Done:  E(RHF) =  -661.290949817     A.U. after   15 cycles
            NFock= 15  Conv=0.50D-08     -V/T= 2.0025
 ExpMin= 1.61D-01 ExpMax= 5.48D+03 ExpMxC= 8.25D+02 IAcc=3 IRadAn=         5 AccDes= 0.00D+00
 HarFok:  IExCor=  205 AccDes= 0.00D+00 IRadAn=         5 IDoV=-2 UseB2=F ITyADJ=14
 ICtDFT= 12500011 ScaDFX=  1.000000  1.000000  1.000000  1.000000
 Range of M.O.s used for correlation:    15   236
 NBasis=   236 NAE=    52 NBE=    52 NFC=    14 NFV=     0
 NROrb=    222 NOA=    38 NOB=    38 NVA=   184 NVB=   184
 Fully direct method using O(ONN) memory.
 JobTyp=1 Pass  1:  I=  15 to  52 NPSUse=  4 ParTrn=T ParDer=T DoDerP=T.
 Spin components of T(2) and E(2):
     alpha-alpha T2 =       0.9118028169D-01 E2=     -0.2721917225D+00
     alpha-beta  T2 =       0.4921974958D+00 E2=     -0.1488852294D+01
     beta-beta   T2 =       0.9118028169D-01 E2=     -0.2721917225D+00
 ANorm=    0.1294047163D+01
 E2 =    -0.2033235739D+01 EUMP2 =    -0.66332418555684D+03
          IDoAtm=111111111111111111111111111
          Differentiating once with respect to electric field.
                with respect to dipole field.
          Differentiating once with respect to nuclear coordinates.
 Keep R1 ints in memory in canonical form, NReq=397723379.
          There are     1 degrees of freedom in the 1st order CPHF.  IDoFFX=0 NUNeed=     1.
 LinEq1:  Iter=  0 NonCon=     1 RMS=4.55D-03 Max=9.66D-02 NDo=     1
 AX will form     1 AO Fock derivatives at one time.
 LinEq1:  Iter=  1 NonCon=     1 RMS=1.52D-03 Max=2.56D-02 NDo=     1
 LinEq1:  Iter=  2 NonCon=     1 RMS=6.38D-04 Max=1.63D-02 NDo=     1
 LinEq1:  Iter=  3 NonCon=     1 RMS=2.82D-04 Max=7.91D-03 NDo=     1
 LinEq1:  Iter=  4 NonCon=     1 RMS=8.68D-05 Max=1.86D-03 NDo=     1
 LinEq1:  Iter=  5 NonCon=     1 RMS=3.65D-05 Max=1.89D-03 NDo=     1
 LinEq1:  Iter=  6 NonCon=     1 RMS=1.42D-05 Max=5.45D-04 NDo=     1
[...]
    26  H    2.171463   1.099171   2.159563   2.456854   3.362634
    27  H    4.845697   4.440180   3.338116   3.629753   2.035986
                   16         17         18         19         20
    16  C    0.000000
    17  H    3.475756   0.000000
    18  H    4.051399   2.248449   0.000000
    19  H    3.121474   4.575371   3.557604   0.000000
    20  H    4.415799   4.614017   2.860665   1.767559   0.000000
    21  H    5.220342   6.656630   5.056555   2.494763   2.525274
    22  H    5.287104   6.090849   4.237014   3.069416   2.461201
    23  H    3.833484   6.340164   5.415132   2.694812   3.835901
    24  H    5.212552   7.195988   5.890204   3.846687   4.318629
    25  H    3.796884   5.972098   5.342448   4.164884   4.978896
    26  H    4.459984   5.622931   4.448761   4.057140   4.203036
    27  H    1.089571   4.224171   5.016976   3.691219   5.175934
                   21         22         23         24         25
    21  H    0.000000
    22  H    1.758869   0.000000
    23  H    2.465521   3.061407   0.000000
    24  H    2.520795   2.465766   1.764316   0.000000
    25  H    4.313143   3.848463   2.441273   2.521438   0.000000
    26  H    3.854250   2.719082   3.057953   2.474828   1.765459
    27  H    5.809272   6.125989   4.274370   5.828296   4.469207
                   26         27
    26  H    0.000000
    27  H    5.374959   0.000000
 Symmetry turned off by external request.
 Stoichiometry    C9H13N3O2
 Framework group  C1[X(C9H13N3O2)]
 Deg. of freedom    75
 Full point group                 C1      NOp   1
 Rotational constants (GHZ):           1.7093435           0.4174378           0.3691293

 **********************************************************************

            Population analysis using the SCF Density.

 **********************************************************************

 Alpha  occ. eigenvalues --  -20.59355 -20.59011 -15.84793 -15.63725 -15.56687
 Alpha  occ. eigenvalues --  -11.34931 -11.29718 -11.29520 -11.28789 -11.27222
 Alpha  occ. eigenvalues --  -11.23677 -11.23263 -11.22842 -11.22349  -1.57202
 Alpha  occ. eigenvalues --   -1.36816  -1.30795  -1.23354  -1.14674  -1.09927
 Alpha  occ. eigenvalues --   -1.02811  -1.01347  -0.94453  -0.89578  -0.85638
 Alpha  occ. eigenvalues --   -0.82503  -0.78375  -0.77404  -0.75201  -0.71771
 Alpha  occ. eigenvalues --   -0.69936  -0.69506  -0.67797  -0.65017  -0.63593
 Alpha  occ. eigenvalues --   -0.62371  -0.60558  -0.57416  -0.57333  -0.54963
 Alpha  occ. eigenvalues --   -0.54829  -0.50898  -0.49571  -0.48672  -0.48027
 Alpha  occ. eigenvalues --   -0.47472  -0.46335  -0.46116  -0.43723  -0.41740
 Alpha  occ. eigenvalues --   -0.40663  -0.34134
 Alpha virt. eigenvalues --    0.07100   0.11817   0.17343   0.21611   0.23806
 Alpha virt. eigenvalues --    0.25256   0.27011   0.28442   0.28864   0.29667
 Alpha virt. eigenvalues --    0.30514   0.31561   0.31996   0.32606   0.33962
 Alpha virt. eigenvalues --    0.34397   0.35890   0.36987   0.38709   0.39938
 Alpha virt. eigenvalues --    0.41184   0.43033   0.45670   0.46111   0.46592
 Alpha virt. eigenvalues --    0.47016   0.48824   0.53601   0.57760   0.58877
 Alpha virt. eigenvalues --    0.63476   0.69192   0.70490   0.72376   0.74074
 Alpha virt. eigenvalues --    0.75168   0.75751   0.77033   0.78128   0.79387
 Alpha virt. eigenvalues --    0.81054   0.84564   0.85990   0.86812   0.88747
 Alpha virt. eigenvalues --    0.89536   0.90757   0.92418   0.92953   0.94694
 Alpha virt. eigenvalues --    0.95757   0.98127   0.99126   1.01781   1.02697
 Alpha virt. eigenvalues --    1.02955   1.04912   1.06050   1.07419   1.09042
 Alpha virt. eigenvalues --    1.09803   1.10240   1.11773   1.12308   1.14017
 Alpha virt. eigenvalues --    1.14450   1.14740   1.15288   1.16523   1.18365
 Alpha virt. eigenvalues --    1.19647   1.20523   1.21694   1.23485   1.23580
 Alpha virt. eigenvalues --    1.24551   1.25705   1.26540   1.27040   1.28808
 Alpha virt. eigenvalues --    1.29845   1.33829   1.34931   1.36230   1.40947
 Alpha virt. eigenvalues --    1.43030   1.46896   1.47474   1.50365   1.52278
 Alpha virt. eigenvalues --    1.55116   1.57566   1.60844   1.62488   1.65195
 Alpha virt. eigenvalues --    1.67788   1.69814   1.72368   1.75021   1.75935
 Alpha virt. eigenvalues --    1.82093   1.83886   1.86182   1.89831   1.93598
 Alpha virt. eigenvalues --    1.96704   1.97761   1.99514   2.01610   2.02490
 Alpha virt. eigenvalues --    2.04947   2.05661   2.08045   2.09437   2.12385
 Alpha virt. eigenvalues --    2.12455   2.15234   2.17306   2.20161   2.20922
 Alpha virt. eigenvalues --    2.23497   2.24766   2.25484   2.27818   2.30064
 Alpha virt. eigenvalues --    2.31182   2.34631   2.35336   2.37796   2.39330
 Alpha virt. eigenvalues --    2.39542   2.41608   2.43571   2.46208   2.49184
 Alpha virt. eigenvalues --    2.51522   2.52186   2.53430   2.56561   2.61499
 Alpha virt. eigenvalues --    2.63020   2.64469   2.68032   2.70432   2.71841
 Alpha virt. eigenvalues --    2.72713   2.73946   2.78184   2.78681   2.83227
 Alpha virt. eigenvalues --    2.86529   2.88191   2.92591   2.93885   2.97489
 Alpha virt. eigenvalues --    3.00315   3.00825   3.02946   3.04234   3.07981
 Alpha virt. eigenvalues --    3.08615   3.13752   3.22346   3.24651   3.26976
 Alpha virt. eigenvalues --    3.30726   3.36578   3.37211   3.51604   3.62837
 Alpha virt. eigenvalues --    4.12359   4.27807   4.34183   4.37984   4.45330
 Alpha virt. eigenvalues --    4.56049   4.61161   4.61663   4.72781   4.78767
 Alpha virt. eigenvalues --    4.97890   5.00303   5.03543   5.11975
          Condensed to atoms (all electrons):
               1          2          3          4          5          6
     1  O    8.314540   0.309151  -0.082301  -0.086381   0.004515  -0.000018
     2  N    0.309151   5.721573   0.300329   0.266620  -0.050941   0.000936
     3  O   -0.082301   0.300329   8.352129  -0.091762   0.004050   0.000695
     4  C   -0.086381   0.266620  -0.091762   5.207019   0.568099  -0.055057
     5  C    0.004515  -0.050941   0.004050   0.568099   4.718534   0.319570
     6  N   -0.000018   0.000936   0.000695  -0.055057   0.319570   7.167008
     7  C    0.000005  -0.000140   0.000000   0.001994  -0.033668   0.176622
     8  H   -0.000000   0.000004  -0.000000  -0.000092   0.002123  -0.056186
     9  C   -0.000000  -0.000003   0.000000   0.000710   0.001692  -0.056843
    10  C    0.000000   0.000000  -0.000000  -0.000021  -0.000077   0.003569
    11  C   -0.000000  -0.000000  -0.000000  -0.000037   0.000030  -0.000178
    12  C   -0.000000   0.000003  -0.000000   0.000051  -0.000117   0.003965
    13  C   -0.000036  -0.000108  -0.000006  -0.016849  -0.000636  -0.040456
    14  H   -0.000010  -0.000112  -0.000001   0.003462   0.008294  -0.007735
    15  N    0.000141   0.002386  -0.000017  -0.061182  -0.007156   0.001707
    16  C    0.001578  -0.030608   0.002420   0.332725  -0.047742  -0.002550
    17  H    0.000186  -0.006554   0.015860  -0.024642   0.375780  -0.033538
    18  H    0.000001  -0.000054   0.000011   0.002295  -0.031668   0.338524
    19  H    0.000000  -0.000000   0.000000  -0.000626   0.000430   0.000368
    20  H    0.000000  -0.000000   0.000000  -0.000062   0.000183  -0.001178
    21  H   -0.000000   0.000000   0.000000   0.000000   0.000001  -0.000067
    22  H   -0.000000   0.000000  -0.000000   0.000000  -0.000004  -0.000132
    23  H    0.000000  -0.000000   0.000000   0.000026   0.000000  -0.000030
    24  H    0.000000   0.000000   0.000000   0.000000  -0.000000   0.000005
    25  H    0.000000  -0.000000   0.000000   0.000026   0.000001  -0.000089
    26  H   -0.000000  -0.000000   0.000000   0.000011  -0.000005  -0.000073
    27  H    0.005335  -0.000994   0.000003  -0.059678   0.002277   0.000060
               7          8          9         10         11         12
     1  O    0.000005  -0.000000  -0.000000   0.000000  -0.000000  -0.000000
     2  N   -0.000140   0.000004  -0.000003   0.000000  -0.000000   0.000003
     3  O    0.000000  -0.000000   0.000000  -0.000000  -0.000000  -0.000000
     4  C    0.001994  -0.000092   0.000710  -0.000021  -0.000037   0.000051
     5  C   -0.033668   0.002123   0.001692  -0.000077   0.000030  -0.000117
     6  N    0.176622  -0.056186  -0.056843   0.003569  -0.000178   0.003965
     7  C    5.027309   0.423914   0.340468  -0.053729  -0.008648  -0.058986
     8  H    0.423914   0.559941  -0.062683   0.000896  -0.000746  -0.002816
     9  C    0.340468  -0.062683   5.155978   0.322937  -0.050502  -0.005772
    10  C   -0.053729   0.000896   0.322937   5.124600   0.335755  -0.059345
    11  C   -0.008648  -0.000746  -0.050502   0.335755   5.113894   0.336123
    12  C   -0.058986  -0.002816  -0.005772  -0.059345   0.336123   5.118356
    13  C    0.342170  -0.043271  -0.052151  -0.001576  -0.049761   0.370006
    14  H   -0.047562  -0.000755   0.004360  -0.000422   0.004065  -0.036552
    15  N   -0.060221   0.004427  -0.011283   0.001336  -0.008000  -0.080134
    16  C   -0.003314   0.000097  -0.001073  -0.000009  -0.000003   0.003364
    17  H    0.001938  -0.000054  -0.000068   0.000001   0.000000  -0.000000
    18  H   -0.023729  -0.005335   0.001549  -0.000098   0.000004  -0.000127
    19  H   -0.037719   0.004907   0.388402  -0.032308  -0.002443   0.000648
    20  H   -0.041995  -0.002190   0.401830  -0.036169   0.003988  -0.000365
    21  H    0.004651  -0.000052  -0.036423   0.402854  -0.034839   0.004237
    22  H   -0.005264   0.003874  -0.046351   0.397450  -0.045319  -0.001132
    23  H    0.000267   0.000055  -0.001868  -0.040066   0.399033  -0.038949
    24  H   -0.000123  -0.000115   0.004339  -0.037961   0.402623  -0.038290
    25  H    0.005207  -0.000003  -0.000442   0.004138  -0.033359   0.398807
    26  H   -0.004143   0.001862   0.000934  -0.002125  -0.041841   0.396060
    27  H   -0.000430   0.000011  -0.000063   0.000006   0.000004  -0.000042
              13         14         15         16         17         18
     1  O   -0.000036  -0.000010   0.000141   0.001578   0.000186   0.000001
     2  N   -0.000108  -0.000112   0.002386  -0.030608  -0.006554  -0.000054
     3  O   -0.000006  -0.000001  -0.000017   0.002420   0.015860   0.000011
     4  C   -0.016849   0.003462  -0.061182   0.332725  -0.024642   0.002295
     5  C   -0.000636   0.008294  -0.007156  -0.047742   0.375780  -0.031668
     6  N   -0.040456  -0.007735   0.001707  -0.002550  -0.033538   0.338524
     7  C    0.342170  -0.047562  -0.060221  -0.003314   0.001938  -0.023729
     8  H   -0.043271  -0.000755   0.004427   0.000097  -0.000054  -0.005335
     9  C   -0.052151   0.004360  -0.011283  -0.001073  -0.000068   0.001549
    10  C   -0.001576  -0.000422   0.001336  -0.000009   0.000001  -0.000098
    11  C   -0.049761   0.004065  -0.008000  -0.000003   0.000000   0.000004
    12  C    0.370006  -0.036552  -0.080134   0.003364  -0.000000  -0.000127
    13  C    5.044250   0.400623   0.246602  -0.075755   0.000029   0.002885
    14  H    0.400623   0.532451  -0.038252  -0.005593   0.000188  -0.000138
    15  N    0.246602  -0.038252   6.938857   0.579533  -0.000121  -0.000117
    16  C   -0.075755  -0.005593   0.579533   4.724790   0.001949  -0.000174
    17  H    0.000029   0.000188  -0.000121   0.001949   0.378480  -0.003121
    18  H    0.002885  -0.000138  -0.000117  -0.000174  -0.003121   0.319290
    19  H   -0.006617   0.000097   0.007388   0.002655   0.000009  -0.000161
    20  H    0.003998  -0.000066   0.000056  -0.000036   0.000005   0.000689
    21  H   -0.000390   0.000010  -0.000020   0.000002  -0.000000   0.000002
    22  H    0.000324  -0.000060   0.000005  -0.000002  -0.000000  -0.000001
    23  H   -0.005939  -0.000005   0.007173   0.000027   0.000000   0.000000
    24  H    0.004532  -0.000054   0.000048   0.000006   0.000000  -0.000000
    25  H   -0.036280  -0.002499  -0.000201   0.000022   0.000000   0.000002
    26  H   -0.046620  -0.001513   0.004799  -0.000104  -0.000000   0.000001
    27  H    0.005323  -0.000198  -0.039441   0.401140  -0.000076   0.000001
              19         20         21         22         23         24
     1  O    0.000000   0.000000  -0.000000  -0.000000   0.000000   0.000000
     2  N   -0.000000  -0.000000   0.000000   0.000000  -0.000000   0.000000
     3  O    0.000000   0.000000   0.000000  -0.000000   0.000000   0.000000
     4  C   -0.000626  -0.000062   0.000000   0.000000   0.000026   0.000000
     5  C    0.000430   0.000183   0.000001  -0.000004   0.000000  -0.000000
     6  N    0.000368  -0.001178  -0.000067  -0.000132  -0.000030   0.000005
     7  C   -0.037719  -0.041995   0.004651  -0.005264   0.000267  -0.000123
     8  H    0.004907  -0.002190  -0.000052   0.003874   0.000055  -0.000115
     9  C    0.388402   0.401830  -0.036423  -0.046351  -0.001868   0.004339
    10  C   -0.032308  -0.036169   0.402854   0.397450  -0.040066  -0.037961
    11  C   -0.002443   0.003988  -0.034839  -0.045319   0.399033   0.402623
    12  C    0.000648  -0.000365   0.004237  -0.001132  -0.038949  -0.038290
    13  C   -0.006617   0.003998  -0.000390   0.000324  -0.005939   0.004532
    14  H    0.000097  -0.000066   0.000010  -0.000060  -0.000005  -0.000054
    15  N    0.007388   0.000056  -0.000020   0.000005   0.007173   0.000048
    16  C    0.002655  -0.000036   0.000002  -0.000002   0.000027   0.000006
    17  H    0.000009   0.000005  -0.000000  -0.000000   0.000000   0.000000
    18  H   -0.000161   0.000689   0.000002  -0.000001   0.000000  -0.000000
    19  H    0.508032  -0.024205  -0.002765   0.003955   0.001657  -0.000066
    20  H   -0.024205   0.537495  -0.002583  -0.002938  -0.000047  -0.000082
    21  H   -0.002765  -0.002583   0.522796  -0.027291  -0.002994  -0.002149
    22  H    0.003955  -0.002938  -0.027291   0.570094   0.004212  -0.003583
    23  H    0.001657  -0.000047  -0.002994   0.004212   0.507187  -0.025638
    24  H   -0.000066  -0.000082  -0.002149  -0.003583  -0.025638   0.535775
    25  H   -0.000025   0.000012  -0.000086  -0.000076  -0.002551  -0.002170
    26  H    0.000019  -0.000028  -0.000084   0.002312   0.004167  -0.003320
    27  H    0.000071   0.000000  -0.000000   0.000000  -0.000020  -0.000000
              25         26         27
     1  O    0.000000  -0.000000   0.005335
     2  N   -0.000000  -0.000000  -0.000994
     3  O    0.000000   0.000000   0.000003
     4  C    0.000026   0.000011  -0.059678
     5  C    0.000001  -0.000005   0.002277
     6  N   -0.000089  -0.000073   0.000060
     7  C    0.005207  -0.004143  -0.000430
     8  H   -0.000003   0.001862   0.000011
     9  C   -0.000442   0.000934  -0.000063
    10  C    0.004138  -0.002125   0.000006
    11  C   -0.033359  -0.041841   0.000004
    12  C    0.398807   0.396060  -0.000042
    13  C   -0.036280  -0.046620   0.005323
    14  H   -0.002499  -0.001513  -0.000198
    15  N   -0.000201   0.004799  -0.039441
    16  C    0.000022  -0.000104   0.401140
    17  H    0.000000  -0.000000  -0.000076
    18  H    0.000002   0.000001   0.000001
    19  H   -0.000025   0.000019   0.000071
    20  H    0.000012  -0.000028   0.000000
    21  H   -0.000086  -0.000084  -0.000000
    22  H   -0.000076   0.002312   0.000000
    23  H   -0.002551   0.004167  -0.000020
    24  H   -0.002170  -0.003320  -0.000000
    25  H    0.505281  -0.024129  -0.000011
    26  H   -0.024129   0.562751   0.000001
    27  H   -0.000011   0.000001   0.441539
 Mulliken charges:
               1
     1  O   -0.466706
     2  N    0.488513
     3  O   -0.501412
     4  C    0.013350
     5  C    0.166435
     6  N   -0.758900
     7  C    0.055127
     8  H    0.172187
     9  C   -0.297673
    10  C   -0.329636
    11  C   -0.319843
    12  C   -0.308993
    13  C   -0.044291
    14  H    0.187976
    15  N   -0.488311
    16  C    0.116655
    17  H    0.293750
    18  H    0.399470
    19  H    0.188298
    20  H    0.163687
    21  H    0.175191
    22  H    0.149926
    23  H    0.194303
    24  H    0.166225
    25  H    0.188423
    26  H    0.151070
    27  H    0.245181
 Sum of Mulliken charges =  -0.00000
 Mulliken charges with hydrogens summed into heavy atoms:
               1
     1  O   -0.466706
     2  N    0.488513
     3  O   -0.501412
     4  C    0.013350
     5  C    0.460185
     6  N   -0.359430
     7  C    0.227314
     9  C    0.054312
    10  C   -0.004519
    11  C    0.040685
    12  C    0.030499
    13  C    0.143685
    15  N   -0.488311
    16  C    0.361836
 Electronic spatial extent (au):  <R**2>=           3017.6941
 Charge=             -0.0000 electrons
 Dipole moment (field-independent basis, Debye):
    X=              5.3953    Y=              4.7516    Z=              0.9849  Tot=              7.2565
 Quadrupole moment (field-independent basis, Debye-Ang):
   XX=           -105.5875   YY=            -79.9762   ZZ=            -81.5519
   XY=             -2.3940   XZ=              1.9457   YZ=              2.0363
 Traceless Quadrupole moment (field-independent basis, Debye-Ang):
   XX=            -16.5490   YY=              9.0624   ZZ=              7.4866
   XY=             -2.3940   XZ=              1.9457   YZ=              2.0363
 Octapole moment (field-independent basis, Debye-Ang**2):
  XXX=             93.7163  YYY=             37.9317  ZZZ=             -3.7186  XYY=             -3.4279
  XXY=             11.7006  XXZ=             -6.9158  XZZ=             -9.7771  YZZ=             -0.5612
  YYZ=              7.1370  XYZ=             -1.2372
 Hexadecapole moment (field-independent basis, Debye-Ang**3):
 XXXX=          -3400.0249 YYYY=           -607.6235 ZZZZ=           -294.4136 XXXY=            -46.1143
 XXXZ=             76.5395 YYYX=            -26.1235 YYYZ=             29.9778 ZZZX=             49.9115
 ZZZY=             15.1432 XXYY=           -632.1007 XXZZ=           -526.4441 YYZZ=           -156.3271
 XXYZ=             -2.2790 YYXZ=             19.5506 ZZXY=              1.8272
 N-N= 9.306638283556D+02 E-N=-3.407982957997D+03  KE= 6.596308654484D+02
 Unable to Open any file for archive entry.
 1\1\GINC-LOTUS\FOpt\RMP2-FC\6-31G(d)\C9H13N3O2\ALEXEY\02-Jul-2023\0\\#
 MP2/6-31G* SCF=Tight Opt=(ModRedun, MaxCycle=20 ) NoSymm\\MolName:\\0,
 1\O,-3.4986484791,-1.4425550042,-0.1548883766\N,-3.1277698368,-0.27563
 15411,0.0803825123\O,-3.9056638629,0.6504180749,0.3797519204\C,-1.7015
 180879,-0.0144910409,0.0107209294\C,-1.312921946,1.264843001,0.3055786
 404\N,-0.0697846137,1.7693328947,0.1689185132\C,1.1701228569,0.9948672
 843,0.2222976962\H,1.7777234311,1.5128025946,0.9846876708\C,1.99844929
 01,1.0313294371,-1.0536671744\C,3.3848043632,0.4519294532,-0.758119218
 3\C,3.2980951736,-0.9503737633,-0.1481529618\C,2.377018662,-0.98961251
 14,1.0765167045\C,0.9877002561,-0.4306534001,0.7582432299\H,0.37418774
 53,-0.3766467939,1.6728968876\N,0.3655375265,-1.3375362666,-0.20336430
 88\C,-0.8712210904,-1.0952212513,-0.507472417\H,-2.0907190084,1.977774
 257,0.5650971817\H,0.0240690194,2.734726062,0.464017127\H,1.4933187969
 ,0.4512043107,-1.8345437747\H,2.0774551656,2.0649837713,-1.4117371735\
 H,3.9829447778,0.4290595983,-1.6760651091\H,3.9072142297,1.1231876534,
 -0.0617324813\H,2.9025477959,-1.6455407943,-0.8965976078\H,4.298347505
 9,-1.3040261626,0.127083211\H,2.2611174827,-2.0198751628,1.4289679116\
 H,2.8201771315,-0.4131164861,1.9007984823\H,-1.3595742848,-1.798198213
 9,-1.1816380146\\Version=ES64L-G16RevC.02\HF=-661.2962076\MP2=-663.331
 0855\RMSD=9.464e-09\RMSF=2.886e-03\Dipole=1.9533728,1.6561428,0.360271
 1\PG=C01 [X(C9H13N3O2)]\\@
 The archive entry for this job was punched.


 NATURE REVEALS EVERY SECRET ONCE.
                    - RALPH WALDO EMERSON
 Job cpu time:       0 days  1 hours  5 minutes  6.4 seconds.
 Elapsed time:       0 days  0 hours 19 minutes 33.3 seconds.
 File lengths (MBytes):  RWF=     36 Int=      0 D2E=      0 Chk=      7 Scr=      1
 Normal termination of Gaussian 16 at Sun Jul  2 15:20:42 2023.
