 Entering Gaussian System, Link 0=g16
 Initial command:
 /home/alexey/programs//g16/l1.exe "/home/alexey/tmp/Gau-1256537.inp" -scrdir="/home/alexey/tmp/"
 Entering Link 1 = /home/alexey/programs//g16/l1.exe PID=   1256539.
  
 Copyright (c) 1988-2021, Gaussian, Inc.  All Rights Reserved.
  
 This is part of the Gaussian(R) 16 program.  It is based on
 the Gaussian(R) 09 system (copyright 2009, Gaussian, Inc.),
 the Gaussian(R) 03 system (copyright 2003, Gaussian, Inc.),
 the Gaussian(R) 98 system (copyright 1998, Gaussian, Inc.),
 the Gaussian(R) 94 system (copyright 1995, Gaussian, Inc.),
 the Gaussian 92(TM) system (copyright 1992, Gaussian, Inc.),
 the Gaussian 90(TM) system (copyright 1990, Gaussian, Inc.),
 the Gaussian 88(TM) system (copyright 1988, Gaussian, Inc.),
 the Gaussian 86(TM) system (copyright 1986, Carnegie Mellon
 University), and the Gaussian 82(TM) system (copyright 1983,
 Carnegie Mellon University). Gaussian is a federally registered
 trademark of Gaussian, Inc.
  
 This software contains proprietary and confidential information,
 including trade secrets, belonging to Gaussian, Inc.
  
 This software is provided under written license and may be
 used, copied, transmitted, or stored only in accord with that
 written license.
  
 The following legend is applicable only to US Government
 contracts under FAR:
  
                    RESTRICTED RIGHTS LEGEND
  
 Use, reproduction and disclosure by the US Government is
 subject to restrictions as set forth in subparagraphs (a)
 and (c) of the Commercial Computer Software - Restricted
 Rights clause in FAR 52.227-19.
  
 Gaussian, Inc.
 340 Quinnipiac St., Bldg. 40, Wallingford CT 06492
  
  
 ---------------------------------------------------------------
 Warning -- This program may not be used in any manner that
 competes with the business of Gaussian, Inc. or will provide
 assistance to any competitor of Gaussian, Inc.  The licensee
 of this program is prohibited from giving any competitor of
 Gaussian, Inc. access to this program.  By using this program,
 the user acknowledges that Gaussian, Inc. is engaged in the
 business of creating and licensing software in the field of
 computational chemistry and represents and warrants to the
 licensee that it is not a competitor of Gaussian, Inc. and that
 it will not use this program in any manner prohibited above.
 ---------------------------------------------------------------
  

 Cite this work as:
 Gaussian 16, Revision C.02,
 M. J. Frisch, G. W. Trucks, H. B. Schlegel, G. E. Scuseria, 
 M. A. Robb, J. R. Cheeseman, G. Scalmani, V. Barone, 
 G. A. Petersson, H. Nakatsuji, X. Li, M. Caricato, A. V. Marenich, 
 J. Bloino, B. G. Janesko, R. Gomperts, B. Mennucci, H. P. Hratchian, 
 J. V. Ortiz, A. F. Izmaylov, J. L. Sonnenberg, D. Williams-Young, 
 F. Ding, F. Lipparini, F. Egidi, J. Goings, B. Peng, A. Petrone, 
 T. Henderson, D. Ranasinghe, V. G. Zakrzewski, J. Gao, N. Rega, 
 G. Zheng, W. Liang, M. Hada, M. Ehara, K. Toyota, R. Fukuda, 
 J. Hasegawa, M. Ishida, T. Nakajima, Y. Honda, O. Kitao, H. Nakai, 
 T. Vreven, K. Throssell, J. A. Montgomery, Jr., J. E. Peralta, 
 F. Ogliaro, M. J. Bearpark, J. J. Heyd, E. N. Brothers, K. N. Kudin, 
 V. N. Staroverov, T. A. Keith, R. Kobayashi, J. Normand, 
 K. Raghavachari, A. P. Rendell, J. C. Burant, S. S. Iyengar, 
 J. Tomasi, M. Cossi, J. M. Millam, M. Klene, C. Adamo, R. Cammi, 
 J. W. Ochterski, R. L. Martin, K. Morokuma, O. Farkas, 
 J. B. Foresman, and D. J. Fox, Gaussian, Inc., Wallingford CT, 2019.
 
 ******************************************
 Gaussian 16:  ES64L-G16RevC.02  7-Dec-2021
                 1-Jul-2023 
 ******************************************
 %mem=8GB
 %NPROCS=4
 Will use up to    4 processors via shared memory.
 %NoSave
 ---------------------------------------------------------
 #MP2/6-31G* SCF=Tight Opt=(ModRedun, MaxCycle=20 ) NoSymm
 ---------------------------------------------------------
 1/6=20,18=120,19=15,38=1/1,3;
 2/9=110,12=2,15=1,17=6,18=5,40=1/2;
 3/5=1,6=6,7=1,11=9,25=1,30=1,71=1/1,2,3;
 4//1;
 5/5=2,32=2,38=5/2;
 8/6=4,10=2/1;
 9/15=2,16=-3/6;
 10/5=1,31=1/2;
 6/7=2,8=2,9=2,10=2/1;
 7/12=2,30=1/1,2,3,16;
 1/6=20,18=20,19=15/3(2);
 2/9=110,15=1/2;
 99//99;
 2/9=110,15=1/2;
 3/5=1,6=6,7=1,11=9,25=1,30=1,71=1/1,2,3;
 4/5=5,16=3,69=1/1;
 5/5=2,32=2,38=5/2;
 8/6=4,10=2/1;
 9/15=2,16=-3/6;
 10/5=1,31=1/2;
 7/12=2,30=1/1,2,3,16;
 1/6=20,18=20,19=15/3(-8);
 2/9=110,15=1/2;
 6/7=2,8=2,9=2,10=2/1;
 99/9=10/99;
 --------
 MolName:
 --------
 Symbolic Z-matrix:
 Charge =  0 Multiplicity = 1
 8                    0    -3.60016  -1.2732   -0.70049 
 7                    0    -3.15571  -0.13624  -0.55244 
 8                    0    -3.79961   0.88241  -0.80801 
 6                    0    -1.71172   0.01004  -0.06121 
 6                    0    -1.32213   1.30895   0.28653 
 7                    0    -0.08383   1.68064   0.72806 
 6                    0     1.19961   0.95913   0.51468 
 1                    0     1.94644   1.47359   1.17455 
 6                    0     1.7776    1.03252  -0.92047 
 6                    0     3.21846   0.48789  -0.91929 
 6                    0     3.27382  -0.929    -0.32598 
 6                    0     2.60181  -0.98479   1.06324 
 6                    0     1.13033  -0.49011   1.00588 
 1                    0     0.71312  -0.53554   2.03946 
 7                    0     0.37354  -1.39748   0.14033 
 6                    0    -0.90526  -1.24535   0.01394 
 1                    0    -2.06149   2.12157   0.19292 
 1                    0     0.14573   2.6695    0.85352 
 1                    0     1.14909   0.4368   -1.61634 
 1                    0     1.78267   2.08434  -1.27727 
 1                    0     3.62095   0.47803  -1.95587 
 1                    0     3.86253   1.15858  -0.30789 
 1                    0     2.75008  -1.63041  -1.0142 
 1                    0     4.33072  -1.2647   -0.24643 
 1                    0     2.62267  -2.0315    1.43828 
 1                    0     3.17675  -0.35872   1.7773 
 1                    0    -1.47499  -2.14396  -0.2648 
 
 The following ModRedundant input section has been read:
 D       5       6       7       9 F                                           
 D       1       2       4      16 F                                           
 D       7      13      15      16 F                                           
 D       7       9      10      11 F                                           
 D       9      10      11      12 F                                           
 D       6       7      13      15 F                                           
 

 GradGradGradGradGradGradGradGradGradGradGradGradGradGradGradGradGradGrad
 Berny optimization.
 Initialization pass.
                           ----------------------------
                           !    Initial Parameters    !
                           ! (Angstroms and Degrees)  !
 --------------------------                            --------------------------
 ! Name  Definition              Value          Derivative Info.                !
 --------------------------------------------------------------------------------
 ! R1    R(1,2)                  1.2297         estimate D2E/DX2                !
 ! R2    R(2,3)                  1.2319         estimate D2E/DX2                !
 ! R3    R(2,4)                  1.5323         estimate D2E/DX2                !
 ! R4    R(4,5)                  1.4            estimate D2E/DX2                !
 ! R5    R(4,16)                 1.494          estimate D2E/DX2                !
 ! R6    R(5,6)                  1.3662         estimate D2E/DX2                !
 ! R7    R(5,17)                 1.1026         estimate D2E/DX2                !
 ! R8    R(6,7)                  1.4877         estimate D2E/DX2                !
 ! R9    R(6,18)                 1.0229         estimate D2E/DX2                !
 ! R10   R(7,8)                  1.1215         estimate D2E/DX2                !
 ! R11   R(7,9)                  1.5489         estimate D2E/DX2                !
 ! R12   R(7,13)                 1.5318         estimate D2E/DX2                !
 ! R13   R(9,10)                 1.5404         estimate D2E/DX2                !
 ! R14   R(9,19)                 1.1109         estimate D2E/DX2                !
 ! R15   R(9,20)                 1.1107         estimate D2E/DX2                !
 ! R16   R(10,11)                1.5371         estimate D2E/DX2                !
 ! R17   R(10,21)                1.112          estimate D2E/DX2                !
 ! R18   R(10,22)                1.1129         estimate D2E/DX2                !
 ! R19   R(11,12)                1.5442         estimate D2E/DX2                !
 ! R20   R(11,23)                1.1135         estimate D2E/DX2                !
 ! R21   R(11,24)                1.1118         estimate D2E/DX2                !
 ! R22   R(12,13)                1.5535         estimate D2E/DX2                !
 ! R23   R(12,25)                1.1121         estimate D2E/DX2                !
 ! R24   R(12,26)                1.1101         estimate D2E/DX2                !
 ! R25   R(13,14)                1.1155         estimate D2E/DX2                !
 ! R26   R(13,15)                1.4647         estimate D2E/DX2                !
 ! R27   R(15,16)                1.294          estimate D2E/DX2                !
 ! R28   R(16,27)                1.0999         estimate D2E/DX2                !
 ! A1    A(1,2,3)              123.4113         estimate D2E/DX2                !
 ! A2    A(1,2,4)              117.8708         estimate D2E/DX2                !
 ! A3    A(3,2,4)              118.6951         estimate D2E/DX2                !
 ! A4    A(2,4,5)              115.4972         estimate D2E/DX2                !
 ! A5    A(2,4,16)             116.3984         estimate D2E/DX2                !
 ! A6    A(5,4,16)             128.092          estimate D2E/DX2                !
 ! A7    A(4,5,6)              125.7986         estimate D2E/DX2                !
 ! A8    A(4,5,17)             118.4312         estimate D2E/DX2                !
 ! A9    A(6,5,17)             115.7666         estimate D2E/DX2                !
 ! A10   A(5,6,7)              127.1303         estimate D2E/DX2                !
 ! A11   A(5,6,18)             120.4024         estimate D2E/DX2                !
 ! A12   A(7,6,18)             107.0274         estimate D2E/DX2                !
 ! A13   A(6,7,8)              105.5221         estimate D2E/DX2                !
 ! A14   A(6,7,9)              115.584          estimate D2E/DX2                !
 ! A15   A(6,7,13)             111.952          estimate D2E/DX2                !
 ! A16   A(8,7,9)              105.9578         estimate D2E/DX2                !
 ! A17   A(8,7,13)             105.988          estimate D2E/DX2                !
 ! A18   A(9,7,13)             111.0281         estimate D2E/DX2                !
 ! A19   A(7,9,10)             109.3655         estimate D2E/DX2                !
 ! A20   A(7,9,19)             110.1123         estimate D2E/DX2                !
 ! A21   A(7,9,20)             110.1341         estimate D2E/DX2                !
 ! A22   A(10,9,19)            109.8825         estimate D2E/DX2                !
 ! A23   A(10,9,20)            109.3177         estimate D2E/DX2                !
 ! A24   A(19,9,20)            108.0095         estimate D2E/DX2                !
 ! A25   A(9,10,11)            111.0946         estimate D2E/DX2                !
 ! A26   A(9,10,21)            109.9369         estimate D2E/DX2                !
 ! A27   A(9,10,22)            109.1899         estimate D2E/DX2                !
 ! A28   A(11,10,21)           109.7915         estimate D2E/DX2                !
 ! A29   A(11,10,22)           108.8223         estimate D2E/DX2                !
 ! A30   A(21,10,22)           107.9382         estimate D2E/DX2                !
 ! A31   A(10,11,12)           111.4001         estimate D2E/DX2                !
 ! A32   A(10,11,23)           108.9738         estimate D2E/DX2                !
 ! A33   A(10,11,24)           109.8885         estimate D2E/DX2                !
 ! A34   A(12,11,23)           109.1825         estimate D2E/DX2                !
 ! A35   A(12,11,24)           109.7803         estimate D2E/DX2                !
 ! A36   A(23,11,24)           107.5269         estimate D2E/DX2                !
 ! A37   A(11,12,13)           111.5607         estimate D2E/DX2                !
 ! A38   A(11,12,25)           109.2224         estimate D2E/DX2                !
 ! A39   A(11,12,26)           109.4449         estimate D2E/DX2                !
 ! A40   A(13,12,25)           109.2653         estimate D2E/DX2                !
 ! A41   A(13,12,26)           109.5563         estimate D2E/DX2                !
 ! A42   A(25,12,26)           107.7086         estimate D2E/DX2                !
 ! A43   A(7,13,12)            105.6806         estimate D2E/DX2                !
 ! A44   A(7,13,14)            110.6439         estimate D2E/DX2                !
 ! A45   A(7,13,15)            114.834          estimate D2E/DX2                !
 ! A46   A(12,13,14)           107.8835         estimate D2E/DX2                !
 ! A47   A(12,13,15)           108.2991         estimate D2E/DX2                !
 ! A48   A(14,13,15)           109.2121         estimate D2E/DX2                !
 ! A49   A(13,15,16)           119.7039         estimate D2E/DX2                !
 ! A50   A(4,16,15)            129.5803         estimate D2E/DX2                !
 ! A51   A(4,16,27)            113.2132         estimate D2E/DX2                !
 ! A52   A(15,16,27)           116.1421         estimate D2E/DX2                !
 ! D1    D(1,2,4,5)           -170.5643         estimate D2E/DX2                !
 ! D2    D(1,2,4,16)             8.2583         Frozen                          !
 ! D3    D(3,2,4,5)             11.1123         estimate D2E/DX2                !
 ! D4    D(3,2,4,16)          -170.0651         estimate D2E/DX2                !
 ! D5    D(2,4,5,6)           -178.941          estimate D2E/DX2                !
 ! D6    D(2,4,5,17)             0.3474         estimate D2E/DX2                !
 ! D7    D(16,4,5,6)             2.399          estimate D2E/DX2                !
 ! D8    D(16,4,5,17)         -178.3126         estimate D2E/DX2                !
 ! D9    D(2,4,16,15)          165.4172         estimate D2E/DX2                !
 ! D10   D(2,4,16,27)           -2.1541         estimate D2E/DX2                !
 ! D11   D(5,4,16,15)          -15.9331         estimate D2E/DX2                !
 ! D12   D(5,4,16,27)          176.4956         estimate D2E/DX2                !
 ! D13   D(4,5,6,7)             22.2232         estimate D2E/DX2                !
 ! D14   D(4,5,6,18)           172.6929         estimate D2E/DX2                !
 ! D15   D(17,5,6,7)          -157.0819         estimate D2E/DX2                !
 ! D16   D(17,5,6,18)           -6.6122         estimate D2E/DX2                !
 ! D17   D(5,6,7,8)           -170.1956         estimate D2E/DX2                !
 ! D18   D(5,6,7,9)             73.1038         Frozen                          !
 ! D19   D(5,6,7,13)           -55.3514         estimate D2E/DX2                !
 ! D20   D(18,6,7,8)            36.2021         estimate D2E/DX2                !
 ! D21   D(18,6,7,9)           -80.4986         estimate D2E/DX2                !
 ! D22   D(18,6,7,13)          151.0462         estimate D2E/DX2                !
 ! D23   D(6,7,9,10)           168.9453         estimate D2E/DX2                !
 ! D24   D(6,7,9,19)           -70.2171         estimate D2E/DX2                !
 ! D25   D(6,7,9,20)            48.7912         estimate D2E/DX2                !
 ! D26   D(8,7,9,10)            52.4901         estimate D2E/DX2                !
 ! D27   D(8,7,9,19)           173.3276         estimate D2E/DX2                !
 ! D28   D(8,7,9,20)           -67.6641         estimate D2E/DX2                !
 ! D29   D(13,7,9,10)          -62.1452         estimate D2E/DX2                !
 ! D30   D(13,7,9,19)           58.6923         estimate D2E/DX2                !
 ! D31   D(13,7,9,20)          177.7007         estimate D2E/DX2                !
 ! D32   D(6,7,13,12)         -165.6866         estimate D2E/DX2                !
 ! D33   D(6,7,13,14)          -49.1608         estimate D2E/DX2                !
 ! D34   D(6,7,13,15)           75.0216         Frozen                          !
 ! D35   D(8,7,13,12)          -51.1281         estimate D2E/DX2                !
 ! D36   D(8,7,13,14)           65.3977         estimate D2E/DX2                !
 ! D37   D(8,7,13,15)         -170.4199         estimate D2E/DX2                !
 ! D38   D(9,7,13,12)           63.4883         estimate D2E/DX2                !
 ! D39   D(9,7,13,14)         -179.9859         estimate D2E/DX2                !
 ! D40   D(9,7,13,15)          -55.8035         estimate D2E/DX2                !
 ! D41   D(7,9,10,11)           54.812          Frozen                          !
 ! D42   D(7,9,10,21)          176.5463         estimate D2E/DX2                !
 ! D43   D(7,9,10,22)          -65.2152         estimate D2E/DX2                !
 ! D44   D(19,9,10,11)         -66.1652         estimate D2E/DX2                !
 ! D45   D(19,9,10,21)          55.569          estimate D2E/DX2                !
 ! D46   D(19,9,10,22)         173.8075         estimate D2E/DX2                !
 ! D47   D(20,9,10,11)         175.465          estimate D2E/DX2                !
 ! D48   D(20,9,10,21)         -62.8007         estimate D2E/DX2                !
 ! D49   D(20,9,10,22)          55.4378         estimate D2E/DX2                !
 ! D50   D(9,10,11,12)         -52.8221         Frozen                          !
 ! D51   D(9,10,11,23)          67.7036         estimate D2E/DX2                !
 ! D52   D(9,10,11,24)        -174.7131         estimate D2E/DX2                !
 ! D53   D(21,10,11,12)       -174.6412         estimate D2E/DX2                !
 ! D54   D(21,10,11,23)        -54.1154         estimate D2E/DX2                !
 ! D55   D(21,10,11,24)         63.4678         estimate D2E/DX2                !
 ! D56   D(22,10,11,12)         67.4232         estimate D2E/DX2                !
 ! D57   D(22,10,11,23)       -172.051          estimate D2E/DX2                !
 ! D58   D(22,10,11,24)        -54.4678         estimate D2E/DX2                !
 ! D59   D(10,11,12,13)         56.6536         estimate D2E/DX2                !
 ! D60   D(10,11,12,25)        177.5499         estimate D2E/DX2                !
 ! D61   D(10,11,12,26)        -64.7582         estimate D2E/DX2                !
 ! D62   D(23,11,12,13)        -63.7496         estimate D2E/DX2                !
 ! D63   D(23,11,12,25)         57.1468         estimate D2E/DX2                !
 ! D64   D(23,11,12,26)        174.8386         estimate D2E/DX2                !
 ! D65   D(24,11,12,13)        178.6072         estimate D2E/DX2                !
 ! D66   D(24,11,12,25)        -60.4965         estimate D2E/DX2                !
 ! D67   D(24,11,12,26)         57.1954         estimate D2E/DX2                !
 ! D68   D(11,12,13,7)         -60.4453         estimate D2E/DX2                !
 ! D69   D(11,12,13,14)       -178.828          estimate D2E/DX2                !
 ! D70   D(11,12,13,15)         63.0794         estimate D2E/DX2                !
 ! D71   D(25,12,13,7)         178.6835         estimate D2E/DX2                !
 ! D72   D(25,12,13,14)         60.3007         estimate D2E/DX2                !
 ! D73   D(25,12,13,15)        -57.7919         estimate D2E/DX2                !
 ! D74   D(26,12,13,7)          60.9018         estimate D2E/DX2                !
 ! D75   D(26,12,13,14)        -57.4809         estimate D2E/DX2                !
 ! D76   D(26,12,13,15)       -175.5735         estimate D2E/DX2                !
 ! D77   D(7,13,15,16)         -67.1608         Frozen                          !
 ! D78   D(12,13,15,16)        175.0175         estimate D2E/DX2                !
 ! D79   D(14,13,15,16)         57.7752         estimate D2E/DX2                !
 ! D80   D(13,15,16,4)          37.9846         estimate D2E/DX2                !
 ! D81   D(13,15,16,27)       -154.7444         estimate D2E/DX2                !
 --------------------------------------------------------------------------------
 Trust Radius=3.00D-01 FncErr=1.00D-07 GrdErr=1.00D-07 EigMax=2.50D+02 EigMin=1.00D-04
 Number of steps in this run=     20 maximum allowed number of steps=    162.
 GradGradGradGradGradGradGradGradGradGradGradGradGradGradGradGradGradGrad

                          Input orientation:                          
 ---------------------------------------------------------------------
 Center     Atomic      Atomic             Coordinates (Angstroms)
 Number     Number       Type             X           Y           Z
 ---------------------------------------------------------------------
      1          8           0       -3.600160   -1.273200   -0.700490
      2          7           0       -3.155710   -0.136240   -0.552440
      3          8           0       -3.799610    0.882410   -0.808010
      4          6           0       -1.711720    0.010040   -0.061210
      5          6           0       -1.322130    1.308950    0.286530
      6          7           0       -0.083830    1.680640    0.728060
      7          6           0        1.199610    0.959130    0.514680
      8          1           0        1.946440    1.473590    1.174550
      9          6           0        1.777600    1.032520   -0.920470
     10          6           0        3.218460    0.487890   -0.919290
     11          6           0        3.273820   -0.929000   -0.325980
     12          6           0        2.601810   -0.984790    1.063240
     13          6           0        1.130330   -0.490110    1.005880
     14          1           0        0.713120   -0.535540    2.039460
     15          7           0        0.373540   -1.397480    0.140330
     16          6           0       -0.905260   -1.245350    0.013940
     17          1           0       -2.061490    2.121570    0.192920
     18          1           0        0.145730    2.669500    0.853520
     19          1           0        1.149090    0.436800   -1.616340
     20          1           0        1.782670    2.084340   -1.277270
     21          1           0        3.620950    0.478030   -1.955870
     22          1           0        3.862530    1.158580   -0.307890
     23          1           0        2.750080   -1.630410   -1.014200
     24          1           0        4.330720   -1.264700   -0.246430
     25          1           0        2.622670   -2.031500    1.438280
     26          1           0        3.176750   -0.358720    1.777300
     27          1           0       -1.474990   -2.143960   -0.264800
 ---------------------------------------------------------------------
                    Distance matrix (angstroms):
                    1          2          3          4          5
     1  O    0.000000
     2  N    1.229688   0.000000
     3  O    2.167486   1.231897   0.000000
     4  C    2.370989   1.532257   2.382861   0.000000
     5  C    3.582056   2.480818   2.741872   1.399954   0.000000
     6  N    4.809418   3.791725   4.099232   2.462494   1.366195
     7  C    5.431181   4.615993   5.171808   3.115809   2.556091
     8  H    6.467256   5.621920   6.107138   4.129312   3.391052
     9  C    5.855343   5.083207   5.580363   3.736194   3.337902
    10  C    7.045771   6.415151   7.030031   5.027058   4.769182
    11  C    6.892774   6.482176   7.317580   5.080109   5.148431
    12  C    6.454328   6.039826   6.925763   4.567342   4.611055
    13  C    5.089446   4.574246   5.429394   3.076699   3.125483
    14  H    5.162931   4.673888   5.521177   3.254277   3.258397
    15  N    4.063584   3.811333   4.848962   2.523894   3.197098
    16  C    2.788131   2.572049   3.685136   1.493998   2.602409
    17  H    3.832773   2.617362   2.357634   2.155338   1.102618
    18  H    5.656105   4.555042   4.638974   3.370397   2.080189
    19  H    5.130132   4.471192   5.034044   3.284020   3.238594
    20  H    6.370291   5.462962   5.729458   4.241731   3.561809
    21  H    7.535729   6.947666   7.519695   5.678567   5.491159
    22  H    7.858717   7.140872   7.683409   5.696688   5.220790
    23  H    6.368011   6.109347   7.018206   4.848394   5.187931
    24  H    7.943872   7.577183   8.427794   6.178216   6.233974
    25  H    6.623667   6.398801   7.401511   5.020288   5.295902
    26  H    7.273392   6.751091   7.542800   5.235766   5.024285
    27  H    2.337605   2.634103   3.854588   2.176512   3.499988
                    6          7          8          9         10
     6  N    0.000000
     7  C    1.487725   0.000000
     8  H    2.089071   1.121540   0.000000
     9  C    2.569559   1.548907   2.147594   0.000000
    10  C    3.878342   2.520733   2.640796   1.540357   0.000000
    11  C    4.381214   2.928155   3.128253   2.537647   1.537094
    12  C    3.798621   2.458843   2.546671   2.946857   2.545480
    13  C    2.502703   1.531788   2.133214   2.539328   3.003839
    14  H    2.695617   2.189901   2.511125   3.514700   4.009780
    15  N    3.166929   2.525102   3.433172   3.000264   3.573651
    16  C    3.121880   3.088843   4.107535   3.641367   4.569475
    17  H    2.095694   3.477006   4.176958   4.142980   5.637712
    18  H    1.022879   2.037361   2.185364   2.913716   4.164606
    19  H    2.926336   2.194682   3.082169   1.110920   2.184212
    20  H    2.769141   2.194799   2.532046   1.110701   2.176763
    21  H    4.730237   3.492558   3.687093   2.185738   1.112022
    22  H    4.113332   2.794198   2.443002   2.176713   1.112862
    23  H    4.693567   3.383364   3.882175   2.836494   2.171539
    24  H    5.395638   3.915170   3.899001   3.499996   2.182071
    25  H    4.648606   3.438314   3.579455   3.958038   3.501489
    26  H    3.986386   2.690729   2.287866   3.342324   2.826674
    27  H    4.189112   4.170161   5.183105   4.593394   5.420652
                   11         12         13         14         15
    11  C    0.000000
    12  C    1.544229   0.000000
    13  C    2.561450   1.553464   0.000000
    14  H    3.508176   2.173012   1.115534   0.000000
    15  N    2.974650   2.446888   1.464660   2.113043   0.000000
    16  C    4.204799   3.669940   2.387040   2.688069   1.294004
    17  H    6.167720   5.670388   4.203509   4.262441   4.279702
    18  H    4.911758   4.407964   3.312972   3.464198   4.135319
    19  H    2.836356   3.363252   2.781286   3.807938   2.655551
    20  H    3.494095   3.945698   3.502301   4.359863   4.014761
    21  H    2.181003   3.506211   3.989041   5.044349   4.296192
    22  H    2.169077   2.839621   3.450955   4.277719   4.348263
    23  H    1.113520   2.180497   2.829240   3.830507   2.652384
    24  H    1.111782   2.186942   3.522892   4.340967   3.978252
    25  H    2.179935   1.112067   2.188591   2.499139   2.673058
    26  H    2.181382   1.110136   2.190933   2.483841   3.408325
    27  H    4.902149   4.441583   3.337295   3.561524   2.034312
                   16         17         18         19         20
    16  C    0.000000
    17  H    3.564415   0.000000
    18  H    4.139508   2.368214   0.000000
    19  H    3.115734   4.052122   3.477339   0.000000
    20  H    4.469790   4.115873   2.749955   1.797437   0.000000
    21  H    5.228457   6.293540   4.977185   2.495410   2.533773
    22  H    5.349231   6.022638   4.176883   3.097703   2.474378
    23  H    3.816655   6.219783   5.362858   2.683114   3.847656
    24  H    5.242485   7.247082   5.848244   3.859343   4.332581
    25  H    3.884980   6.382810   5.345706   4.194597   5.001995
    26  H    4.534132   6.008432   4.382986   4.032499   4.152397
    27  H    1.099904   4.329923   5.200651   3.920813   5.432860
                   21         22         23         24         25
    21  H    0.000000
    22  H    1.799263   0.000000
    23  H    2.467930   3.084621   0.000000
    24  H    2.542256   2.468859   1.794892   0.000000
    25  H    4.337575   3.842261   2.488326   2.518663   0.000000
    26  H    3.851496   2.668429   3.097049   2.499586   1.794473
    27  H    5.975212   6.276762   4.321637   5.871942   4.438913
                   26         27
    26  H    0.000000
    27  H    5.384788   0.000000
 Symmetry turned off by external request.
 Stoichiometry    C9H13N3O2
 Framework group  C1[X(C9H13N3O2)]
 Deg. of freedom    75
 Full point group                 C1      NOp   1
 Rotational constants (GHZ):           1.5618020           0.4086219           0.3681778
 Standard basis: 6-31G(d) (6D, 7F)
   236 basis functions,   444 primitive gaussians,   236 cartesian basis functions
    52 alpha electrons       52 beta electrons
       nuclear repulsion energy       918.8254314512 Hartrees.
 NAtoms=   27 NActive=   27 NUniq=   27 SFac= 1.00D+00 NAtFMM=   60 NAOKFM=F Big=F
 Integral buffers will be    131072 words long.
 Raffenetti 1 integral format.
 Two-electron integral symmetry is turned off.
 One-electron integrals computed using PRISM.
 NBasis=   236 RedAO= T EigKep=  1.30D-03  NBF=   236
 NBsUse=   236 1.00D-06 EigRej= -1.00D+00 NBFU=   236
 ExpMin= 1.61D-01 ExpMax= 5.48D+03 ExpMxC= 8.25D+02 IAcc=3 IRadAn=         5 AccDes= 0.00D+00
 Harris functional with IExCor=  205 and IRadAn=       5 diagonalized for initial guess.
 HarFok:  IExCor=  205 AccDes= 0.00D+00 IRadAn=         5 IDoV= 1 UseB2=F ITyADJ=14
 ICtDFT=  3500011 ScaDFX=  1.000000  1.000000  1.000000  1.000000
 FoFCou: FMM=F IPFlag=           0 FMFlag=      100000 FMFlg1=           0
         NFxFlg=           0 DoJE=T BraDBF=F KetDBF=T FulRan=T
         wScrn=  0.000000 ICntrl=       500 IOpCl=  0 I1Cent=   200000004 NGrid=           0
         NMat0=    1 NMatS0=      1 NMatT0=    0 NMatD0=    1 NMtDS0=    0 NMtDT0=    0
 Symmetry not used in FoFCou.
 Keep R1 ints in memory in canonical form, NReq=397720213.
 Requested convergence on RMS density matrix=1.00D-08 within 128 cycles.
 Requested convergence on MAX density matrix=1.00D-06.
 Requested convergence on             energy=1.00D-06.
 No special actions if energy rises.
 SCF Done:  E(RHF) =  -661.269076235     A.U. after   16 cycles
            NFock= 16  Conv=0.76D-08     -V/T= 2.0036
 ExpMin= 1.61D-01 ExpMax= 5.48D+03 ExpMxC= 8.25D+02 IAcc=3 IRadAn=         5 AccDes= 0.00D+00
 HarFok:  IExCor=  205 AccDes= 0.00D+00 IRadAn=         5 IDoV=-2 UseB2=F ITyADJ=14
 ICtDFT= 12500011 ScaDFX=  1.000000  1.000000  1.000000  1.000000
 Range of M.O.s used for correlation:    15   236
 NBasis=   236 NAE=    52 NBE=    52 NFC=    14 NFV=     0
 NROrb=    222 NOA=    38 NOB=    38 NVA=   184 NVB=   184
 Fully direct method using O(ONN) memory.
 JobTyp=1 Pass  1:  I=  15 to  52 NPSUse=  4 ParTrn=T ParDer=T DoDerP=T.
 Spin components of T(2) and E(2):
     alpha-alpha T2 =       0.9222733362D-01 E2=     -0.2720969362D+00
     alpha-beta  T2 =       0.5002851616D+00 E2=     -0.1494314419D+01
     beta-beta   T2 =       0.9222733362D-01 E2=     -0.2720969362D+00
 ANorm=    0.1297975281D+01
 E2 =    -0.2038508292D+01 EUMP2 =    -0.66330758452616D+03
          IDoAtm=111111111111111111111111111
          Differentiating once with respect to electric field.
                with respect to dipole field.
          Differentiating once with respect to nuclear coordinates.
 Keep R1 ints in memory in canonical form, NReq=397723379.
          There are     1 degrees of freedom in the 1st order CPHF.  IDoFFX=0 NUNeed=     1.
 LinEq1:  Iter=  0 NonCon=     1 RMS=4.69D-03 Max=1.34D-01 NDo=     1
 AX will form     1 AO Fock derivatives at one time.
 LinEq1:  Iter=  1 NonCon=     1 RMS=1.60D-03 Max=4.85D-02 NDo=     1
 LinEq1:  Iter=  2 NonCon=     1 RMS=6.64D-04 Max=2.19D-02 NDo=     1
 LinEq1:  Iter=  3 NonCon=     1 RMS=3.04D-04 Max=1.01D-02 NDo=     1
 LinEq1:  Iter=  4 NonCon=     1 RMS=9.78D-05 Max=2.84D-03 NDo=     1
 LinEq1:  Iter=  5 NonCon=     1 RMS=4.07D-05 Max=1.80D-03 NDo=     1
 LinEq1:  Iter=  6 NonCon=     1 RMS=1.67D-05 Max=5.11D-04 NDo=     1
 LinEq1:  Iter=  7 NonCon=     1 RMS=6.43D-06 Max=8.88D-05 NDo=     1
 LinEq1:  Iter=  8 NonCon=     1 RMS=2.55D-06 Max=5.61D-05 NDo=     1
 LinEq1:  Iter=  9 NonCon=     1 RMS=9.81D-07 Max=3.03D-05 NDo=     1
 LinEq1:  Iter= 10 NonCon=     1 RMS=4.57D-07 Max=1.24D-05 NDo=     1
 LinEq1:  Iter= 11 NonCon=     1 RMS=1.79D-07 Max=4.94D-06 NDo=     1
 LinEq1:  Iter= 12 NonCon=     1 RMS=6.50D-08 Max=1.28D-06 NDo=     1
 LinEq1:  Iter= 13 NonCon=     1 RMS=2.11D-08 Max=4.87D-07 NDo=     1
 LinEq1:  Iter= 14 NonCon=     1 RMS=6.91D-09 Max=1.86D-07 NDo=     1
 LinEq1:  Iter= 15 NonCon=     1 RMS=2.48D-09 Max=6.68D-08 NDo=     1
 LinEq1:  Iter= 16 NonCon=     1 RMS=8.47D-10 Max=1.34D-08 NDo=     1
 LinEq1:  Iter= 17 NonCon=     1 RMS=2.85D-10 Max=5.97D-09 NDo=     1
 LinEq1:  Iter= 18 NonCon=     1 RMS=9.87D-11 Max=1.35D-09 NDo=     1
 LinEq1:  Iter= 19 NonCon=     0 RMS=3.36D-11 Max=6.59D-10 NDo=     1
 Linear equations converged to 1.000D-10 1.000D-09 after    19 iterations.
 End of Minotr F.D. properties file   721 does not exist.
 End of Minotr F.D. properties file   722 does not exist.
 End of Minotr F.D. properties file   788 does not exist.

 **********************************************************************

            Population analysis using the SCF Density.

 **********************************************************************

 Alpha  occ. eigenvalues --  -20.59788 -20.59480 -15.85355 -15.63666 -15.55830
 Alpha  occ. eigenvalues --  -11.35929 -11.30635 -11.30244 -11.29871 -11.27499
 Alpha  occ. eigenvalues --  -11.24601 -11.23866 -11.23180 -11.22834  -1.58517
 Alpha  occ. eigenvalues --   -1.37988  -1.29063  -1.22325  -1.13220  -1.08410
 Alpha  occ. eigenvalues --   -1.01595  -1.00672  -0.93694  -0.88885  -0.84811
 Alpha  occ. eigenvalues --   -0.81497  -0.78001  -0.76935  -0.74309  -0.71271
 Alpha  occ. eigenvalues --   -0.70278  -0.69846  -0.67348  -0.63839  -0.63489
 Alpha  occ. eigenvalues --   -0.61933  -0.59630  -0.57380  -0.56420  -0.54754
 Alpha  occ. eigenvalues --   -0.54263  -0.50527  -0.49623  -0.48650  -0.47827
 Alpha  occ. eigenvalues --   -0.47791  -0.46506  -0.45101  -0.44076  -0.42283
 Alpha  occ. eigenvalues --   -0.38462  -0.33396
 Alpha virt. eigenvalues --    0.07060   0.11164   0.17174   0.21695   0.23774
 Alpha virt. eigenvalues --    0.24360   0.25975   0.27930   0.28569   0.28912
 Alpha virt. eigenvalues --    0.30589   0.31606   0.31829   0.32468   0.33122
 Alpha virt. eigenvalues --    0.34011   0.34723   0.35939   0.37598   0.39234
 Alpha virt. eigenvalues --    0.40212   0.41167   0.43892   0.45028   0.45336
 Alpha virt. eigenvalues --    0.47239   0.49859   0.53420   0.57598   0.59132
 Alpha virt. eigenvalues --    0.62959   0.68046   0.69644   0.72657   0.74007
 Alpha virt. eigenvalues --    0.74960   0.75688   0.76513   0.77901   0.78579
 Alpha virt. eigenvalues --    0.81178   0.81859   0.84215   0.84967   0.87783
 Alpha virt. eigenvalues --    0.88245   0.90838   0.92406   0.92854   0.93553
 Alpha virt. eigenvalues --    0.95341   0.97585   0.99029   1.01209   1.01942
 Alpha virt. eigenvalues --    1.03252   1.04986   1.05515   1.07039   1.08474
 Alpha virt. eigenvalues --    1.09920   1.10818   1.11725   1.12637   1.12856
 Alpha virt. eigenvalues --    1.13391   1.14620   1.14724   1.15652   1.16651
 Alpha virt. eigenvalues --    1.17544   1.19363   1.21225   1.22234   1.22718
 Alpha virt. eigenvalues --    1.23281   1.24545   1.26486   1.27206   1.29291
 Alpha virt. eigenvalues --    1.29534   1.31211   1.34681   1.36443   1.39065
 Alpha virt. eigenvalues --    1.41677   1.46667   1.51650   1.52785   1.52831
 Alpha virt. eigenvalues --    1.54812   1.59094   1.61245   1.63398   1.66198
 Alpha virt. eigenvalues --    1.66992   1.67889   1.71651   1.74217   1.75631
 Alpha virt. eigenvalues --    1.80499   1.82304   1.83596   1.86306   1.91540
 Alpha virt. eigenvalues --    1.93259   1.96005   1.98311   1.99681   2.01140
 Alpha virt. eigenvalues --    2.02008   2.03758   2.05367   2.09579   2.11307
 Alpha virt. eigenvalues --    2.11811   2.13053   2.16418   2.18170   2.19455
 Alpha virt. eigenvalues --    2.20631   2.22420   2.24535   2.24759   2.26379
 Alpha virt. eigenvalues --    2.28773   2.31879   2.32908   2.35163   2.37371
 Alpha virt. eigenvalues --    2.39375   2.42214   2.43001   2.44430   2.45862
 Alpha virt. eigenvalues --    2.48430   2.50947   2.52774   2.56320   2.58148
 Alpha virt. eigenvalues --    2.60362   2.62698   2.67727   2.67920   2.68518
 Alpha virt. eigenvalues --    2.69455   2.71301   2.73913   2.74848   2.81722
 Alpha virt. eigenvalues --    2.84218   2.85944   2.89587   2.91996   2.93536
 Alpha virt. eigenvalues --    2.97724   2.98049   3.02083   3.05400   3.07029
 Alpha virt. eigenvalues --    3.09076   3.14638   3.19221   3.22661   3.27311
 Alpha virt. eigenvalues --    3.30043   3.31331   3.37953   3.41798   3.59255
 Alpha virt. eigenvalues --    4.10197   4.22783   4.32301   4.35579   4.44143
 Alpha virt. eigenvalues --    4.51424   4.59472   4.59998   4.70272   4.78308
 Alpha virt. eigenvalues --    4.95481   4.99272   5.04916   5.08654
          Condensed to atoms (all electrons):
               1          2          3          4          5          6
     1  O    8.303973   0.307947  -0.090158  -0.075228   0.003490  -0.000011
     2  N    0.307947   5.678398   0.313002   0.264268  -0.048412   0.000724
     3  O   -0.090158   0.313002   8.326853  -0.087644   0.007907   0.000479
     4  C   -0.075228   0.264268  -0.087644   5.263752   0.561486  -0.054213
     5  C    0.003490  -0.048412   0.007907   0.561486   4.692102   0.318912
     6  N   -0.000011   0.000724   0.000479  -0.054213   0.318912   7.143767
     7  C    0.000001  -0.000108   0.000002   0.006981  -0.030563   0.209373
     8  H   -0.000000   0.000001  -0.000000  -0.000257   0.003063  -0.044292
     9  C    0.000000  -0.000008  -0.000000   0.000604   0.000021  -0.058183
    10  C   -0.000000   0.000000   0.000000  -0.000025  -0.000003   0.003310
    11  C   -0.000000   0.000000  -0.000000  -0.000015   0.000004  -0.000145
    12  C    0.000000   0.000001  -0.000000  -0.000297  -0.000091   0.003978
    13  C   -0.000006   0.000035  -0.000000  -0.007239  -0.001670  -0.055733
    14  H    0.000000  -0.000019   0.000000   0.001351   0.001904  -0.004543
    15  N    0.000392   0.001392  -0.000007  -0.067241  -0.005150   0.002090
    16  C   -0.000815  -0.020464   0.002077   0.306527  -0.043966   0.002303
    17  H    0.000156  -0.004455   0.012455  -0.024982   0.375360  -0.032231
    18  H    0.000000  -0.000032   0.000008   0.001956  -0.026801   0.333256
    19  H   -0.000000  -0.000008  -0.000000  -0.000894   0.001492  -0.000783
    20  H    0.000000   0.000000   0.000000  -0.000027  -0.000081  -0.000018
    21  H   -0.000000  -0.000000  -0.000000   0.000002   0.000001  -0.000064
    22  H   -0.000000   0.000000  -0.000000  -0.000001  -0.000001  -0.000087
    23  H    0.000000  -0.000000   0.000000   0.000025  -0.000001  -0.000024
    24  H    0.000000   0.000000   0.000000  -0.000000  -0.000000   0.000005
    25  H    0.000000  -0.000000   0.000000   0.000026  -0.000001  -0.000078
    26  H    0.000000  -0.000000   0.000000   0.000004  -0.000002  -0.000082
    27  H    0.007271  -0.000186   0.000086  -0.068826   0.002005  -0.000030
               7          8          9         10         11         12
     1  O    0.000001  -0.000000   0.000000  -0.000000  -0.000000   0.000000
     2  N   -0.000108   0.000001  -0.000008   0.000000   0.000000   0.000001
     3  O    0.000002  -0.000000  -0.000000   0.000000  -0.000000  -0.000000
     4  C    0.006981  -0.000257   0.000604  -0.000025  -0.000015  -0.000297
     5  C   -0.030563   0.003063   0.000021  -0.000003   0.000004  -0.000091
     6  N    0.209373  -0.044292  -0.058183   0.003310  -0.000145   0.003978
     7  C    5.069309   0.411537   0.343045  -0.048681  -0.008581  -0.064512
     8  H    0.411537   0.544428  -0.055422   0.000082  -0.000120  -0.003543
     9  C    0.343045  -0.055422   5.168678   0.321195  -0.054060  -0.005040
    10  C   -0.048681   0.000082   0.321195   5.125820   0.332334  -0.060888
    11  C   -0.008581  -0.000120  -0.054060   0.332334   5.125326   0.330320
    12  C   -0.064512  -0.003543  -0.005040  -0.060888   0.330320   5.145739
    13  C    0.304307  -0.037519  -0.056460  -0.000667  -0.046390   0.364375
    14  H   -0.043815  -0.000659   0.003721  -0.000384   0.003963  -0.041591
    15  N   -0.068192   0.004075  -0.010029   0.000999  -0.006556  -0.076274
    16  C    0.000325  -0.000266   0.000255  -0.000092  -0.000040   0.003253
    17  H    0.001531  -0.000063  -0.000005   0.000001  -0.000000   0.000002
    18  H   -0.030632  -0.004876   0.001315  -0.000108   0.000009  -0.000161
    19  H   -0.035503   0.003951   0.389960  -0.034136  -0.002069   0.000492
    20  H   -0.042074  -0.001831   0.397142  -0.036625   0.004124  -0.000396
    21  H    0.004103  -0.000058  -0.036098   0.400184  -0.035762   0.004255
    22  H   -0.004650   0.003571  -0.045428   0.395606  -0.045391  -0.001309
    23  H    0.000530   0.000037  -0.002077  -0.040447   0.396555  -0.037156
    24  H   -0.000152  -0.000109   0.004411  -0.038446   0.400515  -0.037493
    25  H    0.005332  -0.000027  -0.000408   0.004126  -0.033664   0.394430
    26  H   -0.004360   0.001449   0.001114  -0.002456  -0.042695   0.393382
    27  H   -0.000385   0.000008  -0.000035   0.000001   0.000007  -0.000024
              13         14         15         16         17         18
     1  O   -0.000006   0.000000   0.000392  -0.000815   0.000156   0.000000
     2  N    0.000035  -0.000019   0.001392  -0.020464  -0.004455  -0.000032
     3  O   -0.000000   0.000000  -0.000007   0.002077   0.012455   0.000008
     4  C   -0.007239   0.001351  -0.067241   0.306527  -0.024982   0.001956
     5  C   -0.001670   0.001904  -0.005150  -0.043966   0.375360  -0.026801
     6  N   -0.055733  -0.004543   0.002090   0.002303  -0.032231   0.333256
     7  C    0.304307  -0.043815  -0.068192   0.000325   0.001531  -0.030632
     8  H   -0.037519  -0.000659   0.004075  -0.000266  -0.000063  -0.004876
     9  C   -0.056460   0.003721  -0.010029   0.000255  -0.000005   0.001315
    10  C   -0.000667  -0.000384   0.000999  -0.000092   0.000001  -0.000108
    11  C   -0.046390   0.003963  -0.006556  -0.000040  -0.000000   0.000009
    12  C    0.364375  -0.041591  -0.076274   0.003253   0.000002  -0.000161
    13  C    5.018128   0.412992   0.259330  -0.064666  -0.000105   0.004121
    14  H    0.412992   0.516167  -0.032371  -0.010610  -0.000008  -0.000032
    15  N    0.259330  -0.032371   6.972589   0.567498  -0.000078  -0.000132
    16  C   -0.064666  -0.010610   0.567498   4.727558   0.001323  -0.000165
    17  H   -0.000105  -0.000008  -0.000078   0.001323   0.382879  -0.002766
    18  H    0.004121  -0.000032  -0.000132  -0.000165  -0.002766   0.325602
    19  H   -0.005556   0.000053   0.006200   0.001070  -0.000006  -0.000128
    20  H    0.003989  -0.000055   0.000084  -0.000051  -0.000029   0.001613
    21  H   -0.000428   0.000009  -0.000034   0.000003  -0.000000   0.000001
    22  H    0.000345  -0.000040   0.000012   0.000000  -0.000000   0.000001
    23  H   -0.005953  -0.000005   0.006559   0.000062   0.000000   0.000000
    24  H    0.004145  -0.000063  -0.000016   0.000005   0.000000  -0.000000
    25  H   -0.034417  -0.002847   0.001818  -0.000073  -0.000000   0.000003
    26  H   -0.045083  -0.000926   0.004220  -0.000036   0.000000  -0.000001
    27  H    0.004605  -0.000110  -0.041961   0.405094  -0.000065   0.000000
              19         20         21         22         23         24
     1  O   -0.000000   0.000000  -0.000000  -0.000000   0.000000   0.000000
     2  N   -0.000008   0.000000  -0.000000   0.000000  -0.000000   0.000000
     3  O   -0.000000   0.000000  -0.000000  -0.000000   0.000000   0.000000
     4  C   -0.000894  -0.000027   0.000002  -0.000001   0.000025  -0.000000
     5  C    0.001492  -0.000081   0.000001  -0.000001  -0.000001  -0.000000
     6  N   -0.000783  -0.000018  -0.000064  -0.000087  -0.000024   0.000005
     7  C   -0.035503  -0.042074   0.004103  -0.004650   0.000530  -0.000152
     8  H    0.003951  -0.001831  -0.000058   0.003571   0.000037  -0.000109
     9  C    0.389960   0.397142  -0.036098  -0.045428  -0.002077   0.004411
    10  C   -0.034136  -0.036625   0.400184   0.395606  -0.040447  -0.038446
    11  C   -0.002069   0.004124  -0.035762  -0.045391   0.396555   0.400515
    12  C    0.000492  -0.000396   0.004255  -0.001309  -0.037156  -0.037493
    13  C   -0.005556   0.003989  -0.000428   0.000345  -0.005953   0.004145
    14  H    0.000053  -0.000055   0.000009  -0.000040  -0.000005  -0.000063
    15  N    0.006200   0.000084  -0.000034   0.000012   0.006559  -0.000016
    16  C    0.001070  -0.000051   0.000003   0.000000   0.000062   0.000005
    17  H   -0.000006  -0.000029  -0.000000  -0.000000   0.000000   0.000000
    18  H   -0.000128   0.001613   0.000001   0.000001   0.000000  -0.000000
    19  H    0.505044  -0.023586  -0.002518   0.003772   0.001732  -0.000076
    20  H   -0.023586   0.544758  -0.002678  -0.002904  -0.000050  -0.000090
    21  H   -0.002518  -0.002678   0.525324  -0.024706  -0.002849  -0.002059
    22  H    0.003772  -0.002904  -0.024706   0.569547   0.004083  -0.003502
    23  H    0.001732  -0.000050  -0.002849   0.004083   0.512205  -0.024845
    24  H   -0.000076  -0.000090  -0.002059  -0.003502  -0.024845   0.539809
    25  H   -0.000028   0.000011  -0.000086  -0.000083  -0.002054  -0.002432
    26  H    0.000025  -0.000035  -0.000071   0.002452   0.003882  -0.002779
    27  H    0.000058   0.000000  -0.000000   0.000000  -0.000018  -0.000000
              25         26         27
     1  O    0.000000   0.000000   0.007271
     2  N   -0.000000  -0.000000  -0.000186
     3  O    0.000000   0.000000   0.000086
     4  C    0.000026   0.000004  -0.068826
     5  C   -0.000001  -0.000002   0.002005
     6  N   -0.000078  -0.000082  -0.000030
     7  C    0.005332  -0.004360  -0.000385
     8  H   -0.000027   0.001449   0.000008
     9  C   -0.000408   0.001114  -0.000035
    10  C    0.004126  -0.002456   0.000001
    11  C   -0.033664  -0.042695   0.000007
    12  C    0.394430   0.393382  -0.000024
    13  C   -0.034417  -0.045083   0.004605
    14  H   -0.002847  -0.000926  -0.000110
    15  N    0.001818   0.004220  -0.041961
    16  C   -0.000073  -0.000036   0.405094
    17  H   -0.000000   0.000000  -0.000065
    18  H    0.000003  -0.000001   0.000000
    19  H   -0.000028   0.000025   0.000058
    20  H    0.000011  -0.000035   0.000000
    21  H   -0.000086  -0.000071  -0.000000
    22  H   -0.000083   0.002452   0.000000
    23  H   -0.002054   0.003882  -0.000018
    24  H   -0.002432  -0.002779  -0.000000
    25  H    0.509946  -0.023306  -0.000020
    26  H   -0.023306   0.566883   0.000001
    27  H   -0.000020   0.000001   0.439113
 Mulliken charges:
               1
     1  O   -0.457012
     2  N    0.507924
     3  O   -0.485059
     4  C   -0.020092
     5  C    0.188995
     6  N   -0.767682
     7  C    0.025832
     8  H    0.176839
     9  C   -0.308208
    10  C   -0.320701
    11  C   -0.317669
    12  C   -0.311450
    13  C   -0.014478
    14  H    0.197916
    15  N   -0.519218
    16  C    0.123891
    17  H    0.291085
    18  H    0.397949
    19  H    0.191441
    20  H    0.158809
    21  H    0.173530
    22  H    0.148715
    23  H    0.189808
    24  H    0.163173
    25  H    0.183832
    26  H    0.148421
    27  H    0.253411
 Sum of Mulliken charges =  -0.00000
 Mulliken charges with hydrogens summed into heavy atoms:
               1
     1  O   -0.457012
     2  N    0.507924
     3  O   -0.485059
     4  C   -0.020092
     5  C    0.480080
     6  N   -0.369733
     7  C    0.202671
     9  C    0.042042
    10  C    0.001544
    11  C    0.035313
    12  C    0.020803
    13  C    0.183438
    15  N   -0.519218
    16  C    0.377302
 Electronic spatial extent (au):  <R**2>=           3073.0184
 Charge=             -0.0000 electrons
 Dipole moment (field-independent basis, Debye):
    X=              5.1392    Y=              4.3859    Z=              2.1829  Tot=              7.1002
 Quadrupole moment (field-independent basis, Debye-Ang):
   XX=           -103.2630   YY=            -79.7965   ZZ=            -83.7661
   XY=             -0.0863   XZ=             -5.4201   YZ=              1.6766
 Traceless Quadrupole moment (field-independent basis, Debye-Ang):
   XX=            -14.3211   YY=              9.1454   ZZ=              5.1758
   XY=             -0.0863   XZ=             -5.4201   YZ=              1.6766
 Octapole moment (field-independent basis, Debye-Ang**2):
  XXX=             83.0963  YYY=             31.7103  ZZZ=              6.9530  XYY=             -5.2619
  XXY=              5.5632  XXZ=             30.0769  XZZ=             -1.8599  YZZ=             -1.6193
  YYZ=             11.5784  XYZ=             -0.0727
 Hexadecapole moment (field-independent basis, Debye-Ang**3):
 XXXX=          -3338.9899 YYYY=           -617.3275 ZZZZ=           -368.0627 XXXY=              7.7371
 XXXZ=           -196.0580 YYYX=             23.6128 YYYZ=             32.1433 ZZZX=            -93.7257
 ZZZY=             12.2231 XXYY=           -629.6102 XXZZ=           -560.3653 YYZZ=           -175.7881
 XXYZ=             10.3450 YYXZ=            -35.7413 ZZXY=             12.5691
 N-N= 9.188254314512D+02 E-N=-3.383730453611D+03  KE= 6.588893405636D+02
 Calling FoFJK, ICntrl=  10002127 FMM=F ISym2X=0 I1Cent= 0 IOpClX= 0 NMat=1 NMatS=1 NMatT=0.
 -------------------------------------------------------------------
 Center     Atomic                   Forces (Hartrees/Bohr)
 Number     Number              X              Y              Z
 -------------------------------------------------------------------
      1        8          -0.000912239   -0.018731107    0.001062691
      2        7           0.037560659    0.006431751    0.013233861
      3        8          -0.002279505    0.017000640   -0.000091905
      4        6          -0.003514964    0.004496359    0.014956150
      5        6           0.000862361   -0.012956784   -0.009121375
      6        7           0.017870103   -0.000627102   -0.010715226
      7        6          -0.001982993    0.007108177    0.008229834
      8        1          -0.013029791   -0.002221580   -0.006124422
      9        6          -0.005113650    0.001434974   -0.002144254
     10        6           0.002650021   -0.001524170    0.000632304
     11        6          -0.001550627   -0.003956968   -0.001459212
     12        6           0.000859821   -0.009599566   -0.002641807
     13        6           0.017778850    0.002005743   -0.006673881
     14        1           0.000832679    0.002657934   -0.012769672
     15        7          -0.001033806   -0.011844952    0.034439295
     16        6          -0.021141754    0.015688937   -0.028445986
     17        1           0.005778143   -0.008832253    0.002499004
     18        1          -0.018424518   -0.002929438   -0.002006560
     19        1           0.003468017    0.005713065    0.006986980
     20        1          -0.002753168   -0.007982651    0.003141598
     21        1          -0.003146252    0.002351234    0.010048286
     22        1          -0.004827282   -0.004085227   -0.006743141
     23        1           0.004871288    0.005813064    0.008350672
     24        1          -0.009746685    0.002124721   -0.001041632
     25        1          -0.001500166    0.010575741   -0.002531184
     26        1          -0.005068293   -0.004660164   -0.003709212
     27        1           0.003493753    0.006549621   -0.007361207
 -------------------------------------------------------------------
 Cartesian Forces:  Max     0.037560659 RMS     0.010210280

 GradGradGradGradGradGradGradGradGradGradGradGradGradGradGradGradGradGrad
 Berny optimization.
 FormGI is forming the generalized inverse of G from B-inverse, IUseBI=4.
 Internal  Forces:  Max     0.037391781 RMS     0.007069976
 Search for a local minimum.
 Step number   1 out of a maximum of   20
 All quantities printed in internal units (Hartrees-Bohrs-Radians)
 Mixed Optimization -- RFO/linear search
 Second derivative matrix not updated -- first step.
 ITU=  0
     Eigenvalues ---    0.00233   0.00836   0.01054   0.01176   0.01384
     Eigenvalues ---    0.01442   0.01548   0.01907   0.02076   0.02114
     Eigenvalues ---    0.02685   0.03410   0.04415   0.04682   0.04823
     Eigenvalues ---    0.05029   0.05136   0.05315   0.05512   0.06235
     Eigenvalues ---    0.06852   0.07610   0.07690   0.07793   0.07979
     Eigenvalues ---    0.08044   0.08050   0.10430   0.10971   0.11819
     Eigenvalues ---    0.12426   0.14029   0.14755   0.15850   0.15999
     Eigenvalues ---    0.19462   0.22207   0.23109   0.24995   0.25000
     Eigenvalues ---    0.25000   0.25371   0.26478   0.26615   0.27970
     Eigenvalues ---    0.28101   0.28513   0.29216   0.31408   0.31968
     Eigenvalues ---    0.32021   0.32230   0.32299   0.32382   0.32387
     Eigenvalues ---    0.32412   0.32503   0.32526   0.32586   0.33233
     Eigenvalues ---    0.33394   0.33693   0.35499   0.43882   0.44360
     Eigenvalues ---    0.50568   0.66936   0.90300   0.912161000.00000
     Eigenvalues --- 1000.000001000.000001000.000001000.000001000.00000
     Eigenvalues --- 1000.000001000.000001000.000001000.000001000.00000
     Eigenvalues --- 1000.000001000.000001000.000001000.000001000.00000
     Eigenvalues --- 1000.000001000.000001000.000001000.000001000.00000
     Eigenvalues --- 1000.000001000.000001000.000001000.000001000.00000
     Eigenvalues --- 1000.000001000.000001000.000001000.000001000.00000
     Eigenvalues --- 1000.000001000.000001000.000001000.000001000.00000
     Eigenvalues --- 1000.000001000.000001000.000001000.000001000.00000
     Eigenvalues --- 1000.000001000.000001000.000001000.000001000.00000
     Eigenvalues --- 1000.000001000.000001000.000001000.000001000.00000
     Eigenvalues --- 1000.000001000.000001000.000001000.000001000.00000
     Eigenvalues --- 1000.000001000.000001000.000001000.000001000.00000
     Eigenvalues --- 1000.000001000.000001000.000001000.000001000.00000
     Eigenvalues --- 1000.000001000.000001000.000001000.000001000.00000
     Eigenvalues --- 1000.000001000.000001000.000001000.000001000.00000
     Eigenvalues --- 1000.000001000.000001000.000001000.000001000.00000
     Eigenvalues --- 1000.000001000.000001000.000001000.000001000.00000
     Eigenvalues --- 1000.000001000.000001000.000001000.000001000.00000
     Eigenvalues --- 1000.00000
 RFO step:  Lambda=-2.93977153D-02 EMin= 2.33049880D-03
 Linear search not attempted -- first point.
 Iteration  1 RMS(Cart)=  0.07222028 RMS(Int)=  0.00230035
 Iteration  2 RMS(Cart)=  0.00306854 RMS(Int)=  0.00070653
 Iteration  3 RMS(Cart)=  0.00000580 RMS(Int)=  0.00070652
 Iteration  4 RMS(Cart)=  0.00000001 RMS(Int)=  0.00070652
 Iteration  1 RMS(Cart)=  0.00007407 RMS(Int)=  0.00010932
 Iteration  2 RMS(Cart)=  0.00004945 RMS(Int)=  0.00011705
 Iteration  3 RMS(Cart)=  0.00003620 RMS(Int)=  0.00013214
 Iteration  4 RMS(Cart)=  0.00002866 RMS(Int)=  0.00014836
 Iteration  5 RMS(Cart)=  0.00002386 RMS(Int)=  0.00016362
 Iteration  6 RMS(Cart)=  0.00002039 RMS(Int)=  0.00017737
 Iteration  7 RMS(Cart)=  0.00001764 RMS(Int)=  0.00018953
 Iteration  8 RMS(Cart)=  0.00001535 RMS(Int)=  0.00020018
 Iteration  9 RMS(Cart)=  0.00001340 RMS(Int)=  0.00020947
 Iteration 10 RMS(Cart)=  0.00001172 RMS(Int)=  0.00021756
 Iteration 11 RMS(Cart)=  0.00001026 RMS(Int)=  0.00022458
 Iteration 12 RMS(Cart)=  0.00000901 RMS(Int)=  0.00023069
 Iteration 13 RMS(Cart)=  0.00000792 RMS(Int)=  0.00023599
 Iteration 14 RMS(Cart)=  0.00000697 RMS(Int)=  0.00024059
 Iteration 15 RMS(Cart)=  0.00000616 RMS(Int)=  0.00024459
 Iteration 16 RMS(Cart)=  0.00000545 RMS(Int)=  0.00024807
 Iteration 17 RMS(Cart)=  0.00000483 RMS(Int)=  0.00025109
 Iteration 18 RMS(Cart)=  0.00000429 RMS(Int)=  0.00025372
 Iteration 19 RMS(Cart)=  0.00000382 RMS(Int)=  0.00025601
 Iteration 20 RMS(Cart)=  0.00000340 RMS(Int)=  0.00025800
 Iteration 21 RMS(Cart)=  0.00000304 RMS(Int)=  0.00025974
 Iteration 22 RMS(Cart)=  0.00000271 RMS(Int)=  0.00026126
 Iteration 23 RMS(Cart)=  0.00000243 RMS(Int)=  0.00026259
 Iteration 24 RMS(Cart)=  0.00000217 RMS(Int)=  0.00026375
 Iteration 25 RMS(Cart)=  0.00000195 RMS(Int)=  0.00026476
 Iteration 26 RMS(Cart)=  0.00000175 RMS(Int)=  0.00026565
 Iteration 27 RMS(Cart)=  0.00000157 RMS(Int)=  0.00026643
 Iteration 28 RMS(Cart)=  0.00000141 RMS(Int)=  0.00026711
 Iteration 29 RMS(Cart)=  0.00000126 RMS(Int)=  0.00026771
 Iteration 30 RMS(Cart)=  0.00000113 RMS(Int)=  0.00026823
 Iteration 31 RMS(Cart)=  0.00000102 RMS(Int)=  0.00026869
 Iteration 32 RMS(Cart)=  0.00000091 RMS(Int)=  0.00026910
 Variable       Old X    -DE/DX   Delta X   Delta X   Delta X     New X
                                 (Linear)    (Quad)   (Total)
    R1        2.32377   0.01752   0.00000   0.01861   0.01861   2.34238
    R2        2.32795   0.01527   0.00000   0.01638   0.01638   2.34432
    R3        2.89555  -0.03739   0.00000  -0.11628  -0.11628   2.77926
    R4        2.64553  -0.03127   0.00000  -0.06685  -0.06672   2.57881
    R5        2.82325  -0.02545   0.00000  -0.07442  -0.07481   2.74844
    R6        2.58173  -0.02039   0.00000  -0.03739  -0.03681   2.54492
    R7        2.08365  -0.01060   0.00000  -0.02916  -0.02916   2.05448
    R8        2.81139  -0.01538   0.00000  -0.03759  -0.03712   2.77428
    R9        1.93296  -0.00721   0.00000  -0.01541  -0.01541   1.91756
   R10        2.11940  -0.01330   0.00000  -0.03872  -0.03872   2.08069
   R11        2.92701  -0.01325   0.00000  -0.04206  -0.04180   2.88521
   R12        2.89466  -0.00073   0.00000   0.00201   0.00207   2.89673
   R13        2.91085  -0.00402   0.00000  -0.01407  -0.01429   2.89657
   R14        2.09933  -0.00940   0.00000  -0.02653  -0.02653   2.07281
   R15        2.09892  -0.00858   0.00000  -0.02420  -0.02420   2.07473
   R16        2.90469  -0.00123   0.00000  -0.00713  -0.00703   2.89765
   R17        2.10142  -0.01053   0.00000  -0.02980  -0.02980   2.07162
   R18        2.10300  -0.00896   0.00000  -0.02543  -0.02543   2.07758
   R19        2.91817  -0.00948   0.00000  -0.03153  -0.03176   2.88641
   R20        2.10425  -0.01111   0.00000  -0.03160  -0.03160   2.07265
   R21        2.10096  -0.00998   0.00000  -0.02824  -0.02824   2.07273
   R22        2.93562  -0.01147   0.00000  -0.03658  -0.03633   2.89929
   R23        2.10150  -0.01084   0.00000  -0.03068  -0.03068   2.07082
   R24        2.09785  -0.00764   0.00000  -0.02150  -0.02150   2.07635
   R25        2.10805  -0.01225   0.00000  -0.03504  -0.03504   2.07301
   R26        2.76781  -0.00376   0.00000  -0.00627  -0.00672   2.76109
   R27        2.44531   0.00107   0.00000   0.00026  -0.00033   2.44498
   R28        2.07852  -0.00530   0.00000  -0.01445  -0.01445   2.06406
    A1        2.15393   0.01117   0.00000   0.04008   0.04003   2.19397
    A2        2.05723  -0.00430   0.00000  -0.01529  -0.01534   2.04190
    A3        2.07162  -0.00682   0.00000  -0.02430  -0.02435   2.04727
    A4        2.01581  -0.01010   0.00000  -0.03411  -0.03352   1.98229
    A5        2.03154  -0.00311   0.00000  -0.00890  -0.00833   2.02321
    A6        2.23563   0.01322   0.00000   0.04362   0.04202   2.27765
    A7        2.19560   0.00534   0.00000   0.02259   0.02207   2.21767
    A8        2.06702  -0.00377   0.00000  -0.01703  -0.01694   2.05007
    A9        2.02051  -0.00157   0.00000  -0.00524  -0.00523   2.01528
   A10        2.21884  -0.00641   0.00000   0.00172   0.00234   2.22119
   A11        2.10142  -0.01260   0.00000  -0.08099  -0.08276   2.01866
   A12        1.86798   0.01922   0.00000   0.09713   0.09764   1.96562
   A13        1.84171  -0.00215   0.00000  -0.00783  -0.00662   1.83509
   A14        2.01732  -0.00191   0.00000  -0.01921  -0.01965   1.99767
   A15        1.95393   0.00286   0.00000  -0.01813  -0.02105   1.93288
   A16        1.84931   0.00375   0.00000   0.03876   0.03884   1.88815
   A17        1.84984   0.00169   0.00000   0.03665   0.03644   1.88628
   A18        1.93781  -0.00370   0.00000  -0.01969  -0.01934   1.91847
   A19        1.90879   0.00018   0.00000  -0.00798  -0.00807   1.90071
   A20        1.92182  -0.00053   0.00000  -0.01332  -0.01328   1.90854
   A21        1.92220  -0.00201   0.00000  -0.00523  -0.00529   1.91691
   A22        1.91781  -0.00089   0.00000   0.00193   0.00148   1.91929
   A23        1.90795   0.00366   0.00000   0.02973   0.03005   1.93800
   A24        1.88512  -0.00040   0.00000  -0.00468  -0.00489   1.88023
   A25        1.93897  -0.00068   0.00000   0.00454   0.00411   1.94308
   A26        1.91876  -0.00091   0.00000  -0.00721  -0.00708   1.91168
   A27        1.90572   0.00035   0.00000  -0.00240  -0.00239   1.90333
   A28        1.91622   0.00046   0.00000   0.00623   0.00631   1.92253
   A29        1.89931   0.00197   0.00000   0.01164   0.01181   1.91112
   A30        1.88388  -0.00118   0.00000  -0.01318  -0.01331   1.87057
   A31        1.94430   0.00190   0.00000   0.01174   0.01219   1.95649
   A32        1.90195  -0.00016   0.00000   0.00358   0.00357   1.90553
   A33        1.91792   0.00050   0.00000   0.00453   0.00430   1.92222
   A34        1.90559  -0.00139   0.00000  -0.01534  -0.01552   1.89007
   A35        1.91603  -0.00093   0.00000  -0.00091  -0.00112   1.91491
   A36        1.87670   0.00001   0.00000  -0.00430  -0.00429   1.87241
   A37        1.94710  -0.00491   0.00000  -0.03002  -0.03010   1.91700
   A38        1.90629   0.00267   0.00000   0.01213   0.01193   1.91822
   A39        1.91017   0.00230   0.00000   0.02156   0.02149   1.93167
   A40        1.90704   0.00118   0.00000  -0.00177  -0.00174   1.90530
   A41        1.91212  -0.00006   0.00000   0.00052   0.00083   1.91295
   A42        1.87987  -0.00104   0.00000  -0.00147  -0.00170   1.87817
   A43        1.84448   0.00676   0.00000   0.02212   0.02179   1.86627
   A44        1.93110  -0.00507   0.00000  -0.01813  -0.01848   1.91262
   A45        2.00423  -0.00072   0.00000   0.00552   0.00577   2.01000
   A46        1.88292   0.00205   0.00000   0.02639   0.02644   1.90936
   A47        1.89018  -0.00368   0.00000  -0.03677  -0.03622   1.85395
   A48        1.90611   0.00103   0.00000   0.00256   0.00254   1.90865
   A49        2.08923  -0.00186   0.00000   0.02066   0.01958   2.10881
   A50        2.26160  -0.00580   0.00000  -0.03446  -0.03748   2.22412
   A51        1.97594   0.00195   0.00000   0.00909   0.01034   1.98629
   A52        2.02706   0.00434   0.00000   0.02457   0.02593   2.05299
    D1       -2.97691   0.00065   0.00000  -0.02946  -0.02923  -3.00614
    D2        0.14414   0.00161   0.00000   0.00000   0.00000   0.14414
    D3        0.19395  -0.00155   0.00000  -0.04842  -0.04831   0.14564
    D4       -2.96820  -0.00059   0.00000  -0.01896  -0.01907  -2.98727
    D5       -3.12311   0.00107   0.00000  -0.01738  -0.01866   3.14142
    D6        0.00606   0.00161   0.00000   0.01537   0.01407   0.02013
    D7        0.04187   0.00027   0.00000  -0.05001  -0.05232  -0.01044
    D8       -3.11214   0.00080   0.00000  -0.01727  -0.01959  -3.13173
    D9        2.88707   0.00706   0.00000   0.12144   0.11903   3.00611
   D10       -0.03760   0.00353   0.00000   0.12205   0.12164   0.08405
   D11       -0.27808   0.00779   0.00000   0.15404   0.15307  -0.12502
   D12        3.08043   0.00427   0.00000   0.15466   0.15568  -3.04708
   D13        0.38787  -0.00302   0.00000  -0.04237  -0.04315   0.34472
   D14        3.01406   0.00260   0.00000   0.02769   0.02518   3.03924
   D15       -2.74160  -0.00353   0.00000  -0.07426  -0.07523  -2.81683
   D16       -0.11541   0.00210   0.00000  -0.00420  -0.00691  -0.12231
   D17       -2.97047   0.00016   0.00000   0.03211   0.03264  -2.93783
   D18        1.27590  -0.00198   0.00000   0.00000   0.00001   1.27591
   D19       -0.96606   0.00234   0.00000   0.06213   0.06158  -0.90448
   D20        0.63185   0.00182   0.00000   0.00908   0.00776   0.63960
   D21       -1.40497  -0.00032   0.00000  -0.02303  -0.02488  -1.42984
   D22        2.63625   0.00400   0.00000   0.03910   0.03670   2.67295
   D23        2.94865   0.00302   0.00000   0.05980   0.06089   3.00954
   D24       -1.22552   0.00170   0.00000   0.04874   0.04953  -1.17599
   D25        0.85157  -0.00037   0.00000   0.03142   0.03225   0.88381
   D26        0.91612   0.00421   0.00000   0.05399   0.05422   0.97034
   D27        3.02514   0.00290   0.00000   0.04293   0.04286   3.06800
   D28       -1.18096   0.00083   0.00000   0.02561   0.02558  -1.15539
   D29       -1.08464   0.00196   0.00000  -0.00100  -0.00103  -1.08567
   D30        1.02437   0.00064   0.00000  -0.01206  -0.01239   1.01199
   D31        3.10146  -0.00143   0.00000  -0.02938  -0.02967   3.07179
   D32       -2.89178  -0.00142   0.00000  -0.02738  -0.02684  -2.91862
   D33       -0.85802   0.00225   0.00000   0.00709   0.00720  -0.85082
   D34        1.30937  -0.00107   0.00000   0.00000   0.00001   1.30938
   D35       -0.89235  -0.00158   0.00000  -0.02470  -0.02480  -0.91716
   D36        1.14140   0.00209   0.00000   0.00976   0.00923   1.15064
   D37       -2.97439  -0.00123   0.00000   0.00268   0.00204  -2.97234
   D38        1.10808   0.00196   0.00000   0.03161   0.03193   1.14001
   D39       -3.14135   0.00563   0.00000   0.06608   0.06597  -3.07537
   D40       -0.97396   0.00231   0.00000   0.05900   0.05878  -0.91517
   D41        0.95665   0.00122   0.00000   0.00000   0.00001   0.95666
   D42        3.08131   0.00073   0.00000   0.00599   0.00588   3.08720
   D43       -1.13822  -0.00102   0.00000  -0.01573  -0.01572  -1.15394
   D44       -1.15480   0.00232   0.00000   0.02029   0.02046  -1.13434
   D45        0.96986   0.00183   0.00000   0.02628   0.02633   0.99620
   D46        3.03351   0.00007   0.00000   0.00456   0.00473   3.03824
   D47        3.06244   0.00113   0.00000   0.00700   0.00709   3.06953
   D48       -1.09608   0.00064   0.00000   0.01299   0.01296  -1.08312
   D49        0.96757  -0.00111   0.00000  -0.00873  -0.00864   0.95893
   D50       -0.92192  -0.00100   0.00000   0.00000   0.00001  -0.92191
   D51        1.18165  -0.00163   0.00000  -0.00935  -0.00929   1.17236
   D52       -3.04932  -0.00143   0.00000  -0.00983  -0.00988  -3.05920
   D53       -3.04806   0.00029   0.00000   0.00186   0.00191  -3.04615
   D54       -0.94449  -0.00035   0.00000  -0.00749  -0.00739  -0.95188
   D55        1.10772  -0.00015   0.00000  -0.00798  -0.00798   1.09975
   D56        1.17676   0.00029   0.00000   0.00735   0.00737   1.18412
   D57       -3.00286  -0.00035   0.00000  -0.00199  -0.00193  -3.00479
   D58       -0.95064  -0.00015   0.00000  -0.00248  -0.00252  -0.95317
   D59        0.98879  -0.00168   0.00000  -0.00775  -0.00766   0.98113
   D60        3.09883  -0.00157   0.00000  -0.02114  -0.02121   3.07762
   D61       -1.13024   0.00006   0.00000  -0.00338  -0.00320  -1.13344
   D62       -1.11264  -0.00177   0.00000  -0.00954  -0.00949  -1.12213
   D63        0.99740  -0.00166   0.00000  -0.02293  -0.02304   0.97436
   D64        3.05151  -0.00003   0.00000  -0.00517  -0.00502   3.04649
   D65        3.11728  -0.00042   0.00000   0.00522   0.00529   3.12257
   D66       -1.05586  -0.00031   0.00000  -0.00817  -0.00827  -1.06413
   D67        0.99825   0.00132   0.00000   0.00959   0.00975   1.00800
   D68       -1.05497  -0.00017   0.00000  -0.01397  -0.01389  -1.06886
   D69       -3.12114   0.00120   0.00000  -0.01741  -0.01764  -3.13878
   D70        1.10094   0.00086   0.00000  -0.01494  -0.01487   1.08607
   D71        3.11861  -0.00115   0.00000  -0.00867  -0.00861   3.11001
   D72        1.05245   0.00022   0.00000  -0.01211  -0.01236   1.04009
   D73       -1.00866  -0.00011   0.00000  -0.00965  -0.00958  -1.01824
   D74        1.06294  -0.00055   0.00000  -0.00616  -0.00601   1.05692
   D75       -1.00323   0.00083   0.00000  -0.00960  -0.00976  -1.01300
   D76       -3.06434   0.00049   0.00000  -0.00713  -0.00699  -3.07133
   D77       -1.17218   0.01058   0.00000   0.00000   0.00001  -1.17217
   D78        3.05463   0.00505   0.00000  -0.00570  -0.00571   3.04892
   D79        1.00837   0.00411   0.00000  -0.01795  -0.01824   0.99012
   D80        0.66296  -0.01295   0.00000  -0.11408  -0.11154   0.55142
   D81       -2.70080  -0.00963   0.00000  -0.11656  -0.11620  -2.81700
         Item               Value     Threshold  Converged?
 Maximum Force            0.037392     0.000450     NO 
 RMS     Force            0.007004     0.000300     NO 
 Maximum Displacement     0.409830     0.001800     NO 
 RMS     Displacement     0.072791     0.001200     NO 
 Predicted change in Energy=-1.799128D-02
 GradGradGradGradGradGradGradGradGradGradGradGradGradGradGradGradGradGrad

                          Input orientation:                          
 ---------------------------------------------------------------------
 Center     Atomic      Atomic             Coordinates (Angstroms)
 Number     Number       Type             X           Y           Z
 ---------------------------------------------------------------------
      1          8           0       -3.478215   -1.282328   -0.655993
      2          7           0       -3.042424   -0.135130   -0.481436
      3          8           0       -3.683555    0.914923   -0.640608
      4          6           0       -1.638332   -0.011135   -0.061705
      5          6           0       -1.278711    1.262373    0.271636
      6          7           0       -0.069062    1.680989    0.690142
      7          6           0        1.218172    0.997505    0.513651
      8          1           0        1.921754    1.535982    1.167354
      9          6           0        1.765309    1.038097   -0.911157
     10          6           0        3.185432    0.461288   -0.914367
     11          6           0        3.218165   -0.943691   -0.301023
     12          6           0        2.571476   -0.982033    1.082214
     13          6           0        1.133383   -0.453908    0.999392
     14          1           0        0.676975   -0.481891    1.996536
     15          7           0        0.414368   -1.365078    0.111917
     16          6           0       -0.859438   -1.239308   -0.076730
     17          1           0       -2.045545    2.030963    0.214993
     18          1           0        0.033917    2.684140    0.803078
     19          1           0        1.117697    0.442649   -1.566283
     20          1           0        1.758544    2.070925   -1.283444
     21          1           0        3.567609    0.434009   -1.941484
     22          1           0        3.844817    1.127809   -0.340211
     23          1           0        2.673202   -1.635171   -0.955114
     24          1           0        4.252336   -1.303326   -0.236101
     25          1           0        2.555689   -2.011188    1.458298
     26          1           0        3.146219   -0.375996    1.796117
     27          1           0       -1.398762   -2.098477   -0.481672
 ---------------------------------------------------------------------
                    Distance matrix (angstroms):
                    1          2          3          4          5
     1  O    0.000000
     2  N    1.239535   0.000000
     3  O    2.206879   1.240563   0.000000
     4  C    2.313932   1.470723   2.318545   0.000000
     5  C    3.489100   2.372934   2.595416   1.364648   0.000000
     6  N    4.713348   3.675836   3.927125   2.427172   1.346714
     7  C    5.349930   4.519485   5.036473   3.083505   2.522528
     8  H    6.358234   5.491284   5.922325   4.071655   3.334689
     9  C    5.739689   4.967436   5.456967   3.661588   3.273432
    10  C    6.892833   6.271311   6.889391   4.921272   4.687953
    11  C    6.714327   6.315165   7.155663   4.951010   5.041483
    12  C    6.301611   5.888813   6.759584   4.469192   4.529717
    13  C    4.969247   4.442053   5.269363   3.000729   3.048516
    14  H    4.994218   4.482691   5.283923   3.133466   3.137267
    15  N    3.968468   3.716753   4.749492   2.465134   3.129781
    16  C    2.682422   2.479602   3.596430   1.454411   2.560382
    17  H    3.713362   2.484097   2.158859   2.100606   1.087186
    18  H    5.495164   4.366021   4.362792   3.287670   2.006700
    19  H    4.992653   4.337895   4.912427   3.172597   3.129323
    20  H    6.249932   5.344081   5.600538   4.167300   3.506700
    21  H    7.364912   6.793247   7.382610   5.552796   5.391743
    22  H    7.715911   7.003503   7.537370   5.607110   5.161686
    23  H    6.168785   5.928143   6.856403   4.693080   5.051563
    24  H    7.741974   7.391779   8.250007   6.033253   6.118258
    25  H    6.435018   6.214582   7.203866   4.888806   5.179478
    26  H    7.121616   6.598831   7.365454   5.145537   4.958659
    27  H    2.240672   2.560538   3.784986   2.142607   3.446331
                    6          7          8          9         10
     6  N    0.000000
     7  C    1.468083   0.000000
     8  H    2.052342   1.101051   0.000000
     9  C    2.518409   1.526789   2.143029   0.000000
    10  C    3.828034   2.489352   2.661843   1.532797   0.000000
    11  C    4.321714   2.903775   3.159998   2.531904   1.533372
    12  C    3.770656   2.464400   2.601881   2.950314   2.538986
    13  C    2.469675   1.532885   2.146952   2.505116   2.951434
    14  H    2.634632   2.163437   2.511739   3.456807   3.956678
    15  N    3.137925   2.527704   3.435449   2.940573   3.473855
    16  C    3.121045   3.109396   4.121288   3.573813   4.467061
    17  H    2.062701   3.436434   4.109923   4.095926   5.576957
    18  H    1.014727   2.081097   2.239396   2.940370   4.221698
    19  H    2.834313   2.155014   3.051992   1.096882   2.168149
    20  H    2.717947   2.161893   2.513805   1.097897   2.182466
    21  H    4.658946   3.444571   3.686198   2.162124   1.096254
    22  H    4.084860   2.765018   2.477403   2.158328   1.099406
    23  H    4.606929   3.347442   3.889184   2.823573   2.158514
    24  H    5.332779   3.880992   3.932298   3.481847   2.170758
    25  H    4.594730   3.425426   3.615098   3.941720   3.484143
    26  H    3.973965   2.692321   2.355911   3.352000   2.837129
    27  H    4.174400   4.174221   5.191764   4.475925   5.268250
                   11         12         13         14         15
    11  C    0.000000
    12  C    1.527423   0.000000
    13  C    2.505451   1.534238   0.000000
    14  H    3.456831   2.162235   1.096990   0.000000
    15  N    2.865199   2.396104   1.461103   2.097801   0.000000
    16  C    4.094453   3.630498   2.397129   2.689364   1.293827
    17  H    6.068071   5.580959   4.110408   4.111015   4.194627
    18  H    4.951730   4.467431   3.330872   3.444070   4.125362
    19  H    2.816876   3.340318   2.717858   3.707114   2.564938
    20  H    3.490495   3.946866   3.460774   4.294757   3.944612
    21  H    2.170549   3.484280   3.919516   4.970175   4.170863
    22  H    2.164565   2.845368   3.412952   4.252851   4.264608
    23  H    1.096797   2.141878   2.754364   3.745292   2.512735
    24  H    1.096841   2.160202   3.460610   4.294488   3.854209
    25  H    2.161859   1.095833   2.158395   2.481534   2.610642
    26  H    2.173809   1.098757   2.166184   2.479627   3.358246
    27  H    4.762582   4.410780   3.363022   3.614354   2.043934
                   16         17         18         19         20
    16  C    0.000000
    17  H    3.490935   0.000000
    18  H    4.118931   2.257576   0.000000
    19  H    2.992793   3.962548   3.436966   0.000000
    20  H    4.389491   4.088766   2.775599   1.772559   0.000000
    21  H    5.086850   6.221587   5.008262   2.478491   2.526900
    22  H    5.272825   5.985007   4.272263   3.067553   2.476225
    23  H    3.661668   6.089028   5.358499   2.666545   3.831390
    24  H    5.114658   7.140327   5.897019   3.826718   4.324523
    25  H    3.822983   6.249491   5.369799   4.151774   4.981590
    26  H    4.505347   5.936988   4.476269   4.011336   4.170943
    27  H    1.092255   4.237446   5.155248   3.737148   5.291062
                   21         22         23         24         25
    21  H    0.000000
    22  H    1.766997   0.000000
    23  H    2.460568   3.063469   0.000000
    24  H    2.528936   2.467251   1.766568   0.000000
    25  H    4.308305   3.840545   2.445354   2.500134   0.000000
    26  H    3.847511   2.704323   3.062439   2.492658   1.771073
    27  H    5.762758   6.158251   4.125493   5.712047   4.405540
                   26         27
    26  H    0.000000
    27  H    5.367692   0.000000
 Symmetry turned off by external request.
 Stoichiometry    C9H13N3O2
 Framework group  C1[X(C9H13N3O2)]
 Deg. of freedom    75
 Full point group                 C1      NOp   1
 Rotational constants (GHZ):           1.5932299           0.4291668           0.3838536
 Standard basis: 6-31G(d) (6D, 7F)
   236 basis functions,   444 primitive gaussians,   236 cartesian basis functions
    52 alpha electrons       52 beta electrons
       nuclear repulsion energy       933.1842972422 Hartrees.
 NAtoms=   27 NActive=   27 NUniq=   27 SFac= 1.00D+00 NAtFMM=   60 NAOKFM=F Big=F
 Integral buffers will be    131072 words long.
 Raffenetti 1 integral format.
 Two-electron integral symmetry is turned off.
 One-electron integrals computed using PRISM.
 NBasis=   236 RedAO= T EigKep=  1.04D-03  NBF=   236
 NBsUse=   236 1.00D-06 EigRej= -1.00D+00 NBFU=   236
 Initial guess from the checkpoint file:  "/home/alexey/tmp/Gau-1256539.chk"
 B after Tr=     0.054134    0.004634    0.022234
         Rot=    0.999993   -0.001132   -0.003423   -0.000103 Ang=  -0.41 deg.
 ExpMin= 1.61D-01 ExpMax= 5.48D+03 ExpMxC= 8.25D+02 IAcc=3 IRadAn=         5 AccDes= 0.00D+00
 Harris functional with IExCor=  205 and IRadAn=       5 diagonalized for initial guess.
 HarFok:  IExCor=  205 AccDes= 0.00D+00 IRadAn=         5 IDoV= 1 UseB2=F ITyADJ=14
 ICtDFT=  3500011 ScaDFX=  1.000000  1.000000  1.000000  1.000000
 FoFCou: FMM=F IPFlag=           0 FMFlag=      100000 FMFlg1=           0
         NFxFlg=           0 DoJE=T BraDBF=F KetDBF=T FulRan=T
         wScrn=  0.000000 ICntrl=       500 IOpCl=  0 I1Cent=   200000004 NGrid=           0
         NMat0=    1 NMatS0=      1 NMatT0=    0 NMatD0=    1 NMtDS0=    0 NMtDT0=    0
 Symmetry not used in FoFCou.
 Keep R1 ints in memory in canonical form, NReq=397720213.
 Requested convergence on RMS density matrix=1.00D-08 within 128 cycles.
 Requested convergence on MAX density matrix=1.00D-06.
 Requested convergence on             energy=1.00D-06.
 No special actions if energy rises.
 SCF Done:  E(RHF) =  -661.289944529     A.U. after   15 cycles
            NFock= 15  Conv=0.75D-08     -V/T= 2.0025
 ExpMin= 1.61D-01 ExpMax= 5.48D+03 ExpMxC= 8.25D+02 IAcc=3 IRadAn=         5 AccDes= 0.00D+00
 HarFok:  IExCor=  205 AccDes= 0.00D+00 IRadAn=         5 IDoV=-2 UseB2=F ITyADJ=14
 ICtDFT= 12500011 ScaDFX=  1.000000  1.000000  1.000000  1.000000
 Range of M.O.s used for correlation:    15   236
 NBasis=   236 NAE=    52 NBE=    52 NFC=    14 NFV=     0
 NROrb=    222 NOA=    38 NOB=    38 NVA=   184 NVB=   184
 Fully direct method using O(ONN) memory.
 JobTyp=1 Pass  1:  I=  15 to  52 NPSUse=  4 ParTrn=T ParDer=T DoDerP=T.
 Spin components of T(2) and E(2):
[...]
    27  H    4.609118   4.397312   3.376530   3.681685   2.025513
                   16         17         18         19         20
    16  C    0.000000
    17  H    3.463492   0.000000
    18  H    4.088059   2.214242   0.000000
    19  H    2.864833   3.984344   3.433968   0.000000
    20  H    4.324404   4.206703   2.871323   1.768505   0.000000
    21  H    4.967987   6.283735   5.078651   2.502308   2.516074
    22  H    5.199539   6.030418   4.354629   3.070962   2.459768
    23  H    3.569425   6.101666   5.396762   2.718838   3.851495
    24  H    5.057791   7.151902   5.949667   3.855378   4.314628
    25  H    3.852816   6.204393   5.376973   4.181918   4.992007
    26  H    4.528565   5.913765   4.508195   4.023425   4.167842
    27  H    1.089966   4.222893   5.104053   3.491118   5.116464
                   21         22         23         24         25
    21  H    0.000000
    22  H    1.758694   0.000000
    23  H    2.472196   3.062741   0.000000
    24  H    2.513222   2.453098   1.764123   0.000000
    25  H    4.310872   3.832756   2.445919   2.519718   0.000000
    26  H    3.841011   2.693641   3.062299   2.504316   1.770446
    27  H    5.501073   5.988686   3.924466   5.567840   4.441493
                   26         27
    26  H    0.000000
    27  H    5.377315   0.000000
 Symmetry turned off by external request.
 Stoichiometry    C9H13N3O2
 Framework group  C1[X(C9H13N3O2)]
 Deg. of freedom    75
 Full point group                 C1      NOp   1
 Rotational constants (GHZ):           1.6320483           0.4245413           0.3796713

 **********************************************************************

            Population analysis using the SCF Density.

 **********************************************************************

 Alpha  occ. eigenvalues --  -20.59353 -20.59016 -15.84823 -15.63956 -15.55818
 Alpha  occ. eigenvalues --  -11.34970 -11.29650 -11.29624 -11.28769 -11.27066
 Alpha  occ. eigenvalues --  -11.23863 -11.23211 -11.22544 -11.21879  -1.57233
 Alpha  occ. eigenvalues --   -1.36824  -1.30794  -1.22793  -1.14711  -1.09719
 Alpha  occ. eigenvalues --   -1.02705  -1.01248  -0.94449  -0.89743  -0.85500
 Alpha  occ. eigenvalues --   -0.82340  -0.78582  -0.77461  -0.74873  -0.71718
 Alpha  occ. eigenvalues --   -0.69803  -0.69501  -0.67912  -0.64752  -0.63949
 Alpha  occ. eigenvalues --   -0.62436  -0.60095  -0.57863  -0.56677  -0.55117
 Alpha  occ. eigenvalues --   -0.54369  -0.50799  -0.50439  -0.48819  -0.48216
 Alpha  occ. eigenvalues --   -0.47384  -0.46161  -0.45815  -0.43766  -0.41800
 Alpha  occ. eigenvalues --   -0.38951  -0.33762
 Alpha virt. eigenvalues --    0.07147   0.11451   0.17466   0.22048   0.24195
 Alpha virt. eigenvalues --    0.25855   0.27211   0.28686   0.29265   0.29604
 Alpha virt. eigenvalues --    0.30733   0.31972   0.32143   0.32874   0.33800
 Alpha virt. eigenvalues --    0.34434   0.36071   0.37615   0.38359   0.40310
 Alpha virt. eigenvalues --    0.41158   0.42309   0.44395   0.45746   0.46338
 Alpha virt. eigenvalues --    0.47753   0.48926   0.53755   0.57602   0.59504
 Alpha virt. eigenvalues --    0.63898   0.68812   0.69895   0.73405   0.73897
 Alpha virt. eigenvalues --    0.75336   0.75633   0.76477   0.78585   0.79394
 Alpha virt. eigenvalues --    0.81594   0.84106   0.85427   0.85566   0.88325
 Alpha virt. eigenvalues --    0.88376   0.91490   0.92270   0.93037   0.94494
 Alpha virt. eigenvalues --    0.95409   0.97752   0.99755   1.01620   1.02254
 Alpha virt. eigenvalues --    1.03089   1.05786   1.07040   1.07941   1.09036
 Alpha virt. eigenvalues --    1.10524   1.11929   1.12191   1.12704   1.13743
 Alpha virt. eigenvalues --    1.14660   1.15275   1.16064   1.17426   1.18579
 Alpha virt. eigenvalues --    1.18791   1.21939   1.23137   1.23881   1.24742
 Alpha virt. eigenvalues --    1.25197   1.25777   1.27200   1.28571   1.30128
 Alpha virt. eigenvalues --    1.30899   1.33017   1.35693   1.37319   1.39493
 Alpha virt. eigenvalues --    1.41047   1.47592   1.48582   1.52374   1.54763
 Alpha virt. eigenvalues --    1.57621   1.59703   1.61597   1.63786   1.65656
 Alpha virt. eigenvalues --    1.67719   1.69796   1.72014   1.75290   1.79351
 Alpha virt. eigenvalues --    1.81622   1.84156   1.86635   1.88778   1.92194
 Alpha virt. eigenvalues --    1.95313   1.96226   1.99750   2.01493   2.02587
 Alpha virt. eigenvalues --    2.04518   2.05988   2.09545   2.10030   2.11803
 Alpha virt. eigenvalues --    2.12460   2.15751   2.18645   2.20121   2.21214
 Alpha virt. eigenvalues --    2.22429   2.24339   2.24752   2.27296   2.29318
 Alpha virt. eigenvalues --    2.30766   2.34050   2.34670   2.36469   2.38114
 Alpha virt. eigenvalues --    2.40921   2.42374   2.44615   2.45127   2.48076
 Alpha virt. eigenvalues --    2.51304   2.52230   2.54123   2.55487   2.59653
 Alpha virt. eigenvalues --    2.63221   2.66807   2.67753   2.69246   2.70201
 Alpha virt. eigenvalues --    2.71377   2.72256   2.75754   2.78213   2.84109
 Alpha virt. eigenvalues --    2.86818   2.88291   2.92310   2.93396   2.95855
 Alpha virt. eigenvalues --    2.98562   3.01099   3.03646   3.06707   3.08893
 Alpha virt. eigenvalues --    3.10226   3.16007   3.20742   3.25146   3.26988
 Alpha virt. eigenvalues --    3.33434   3.36831   3.38455   3.51787   3.65915
 Alpha virt. eigenvalues --    4.13557   4.27958   4.33869   4.39481   4.47450
 Alpha virt. eigenvalues --    4.55449   4.62203   4.62421   4.73056   4.80987
 Alpha virt. eigenvalues --    4.98969   5.01231   5.06038   5.10646
          Condensed to atoms (all electrons):
               1          2          3          4          5          6
     1  O    8.315641   0.305318  -0.082601  -0.084170   0.004519  -0.000013
     2  N    0.305318   5.722172   0.302532   0.260492  -0.054816   0.000883
     3  O   -0.082601   0.302532   8.351348  -0.092073   0.002868   0.000772
     4  C   -0.084170   0.260492  -0.092073   5.234993   0.563254  -0.053613
     5  C    0.004519  -0.054816   0.002868   0.563254   4.719206   0.323569
     6  N   -0.000013   0.000883   0.000772  -0.053613   0.323569   7.164565
     7  C    0.000002  -0.000112   0.000001   0.005467  -0.029508   0.189899
     8  H   -0.000000   0.000002  -0.000000  -0.000270   0.003538  -0.044258
     9  C   -0.000000  -0.000010  -0.000000   0.000378   0.000034  -0.064625
    10  C   -0.000000   0.000000   0.000000  -0.000047  -0.000005   0.003854
    11  C   -0.000000   0.000000  -0.000000  -0.000023   0.000009  -0.000178
    12  C    0.000000   0.000001  -0.000000  -0.000291  -0.000126   0.003773
    13  C   -0.000014   0.000017  -0.000002  -0.006836  -0.001931  -0.062572
    14  H   -0.000000  -0.000061   0.000001   0.001716   0.003486  -0.005954
    15  N    0.000551   0.002243  -0.000015  -0.066334  -0.006431   0.001547
    16  C    0.000559  -0.024873   0.002597   0.319833  -0.051402   0.000037
    17  H    0.000222  -0.006862   0.017240  -0.023781   0.376038  -0.033415
    18  H    0.000001  -0.000055   0.000014   0.002272  -0.033677   0.338162
    19  H    0.000001  -0.000017   0.000000  -0.001589   0.002465  -0.001717
    20  H    0.000000  -0.000000   0.000000  -0.000036  -0.000096   0.000619
    21  H   -0.000000  -0.000000  -0.000000   0.000002   0.000000  -0.000084
    22  H   -0.000000   0.000000  -0.000000  -0.000001  -0.000001  -0.000088
    23  H    0.000000  -0.000000   0.000000   0.000058  -0.000001  -0.000029
    24  H    0.000000  -0.000000   0.000000   0.000000  -0.000000   0.000006
    25  H    0.000000  -0.000000   0.000000   0.000028  -0.000003  -0.000090
    26  H    0.000000  -0.000000   0.000000   0.000004  -0.000000  -0.000056
    27  H    0.006545  -0.000650   0.000030  -0.067704   0.002069  -0.000007
               7          8          9         10         11         12
     1  O    0.000002  -0.000000  -0.000000  -0.000000  -0.000000   0.000000
     2  N   -0.000112   0.000002  -0.000010   0.000000   0.000000   0.000001
     3  O    0.000001  -0.000000  -0.000000   0.000000  -0.000000  -0.000000
     4  C    0.005467  -0.000270   0.000378  -0.000047  -0.000023  -0.000291
     5  C   -0.029508   0.003538   0.000034  -0.000005   0.000009  -0.000126
     6  N    0.189899  -0.044258  -0.064625   0.003854  -0.000178   0.003773
     7  C    5.031007   0.411999   0.357050  -0.054983  -0.009489  -0.063263
     8  H    0.411999   0.519102  -0.047640   0.000504  -0.000024  -0.001466
     9  C    0.357050  -0.047640   5.163496   0.326512  -0.050565  -0.004701
    10  C   -0.054983   0.000504   0.326512   5.113821   0.338004  -0.062343
    11  C   -0.009489  -0.000024  -0.050565   0.338004   5.127456   0.335338
    12  C   -0.063263  -0.001466  -0.004701  -0.062343   0.335338   5.120952
    13  C    0.328171  -0.033877  -0.067375   0.000926  -0.050586   0.369939
    14  H   -0.044091  -0.000734   0.004306  -0.000373   0.004259  -0.036365
    15  N   -0.058108   0.003611  -0.018215   0.001479  -0.018838  -0.083577
    16  C   -0.000875  -0.000068  -0.001131  -0.000081   0.000012   0.002188
    17  H    0.001592  -0.000042  -0.000046   0.000001  -0.000000   0.000001
    18  H   -0.025003  -0.004307   0.001022  -0.000086   0.000006  -0.000125
    19  H   -0.035560   0.003841   0.392970  -0.032213  -0.001965   0.000799
    20  H   -0.043417  -0.002158   0.397022  -0.034216   0.003894  -0.000494
    21  H    0.004546  -0.000086  -0.036373   0.402228  -0.035032   0.004460
    22  H   -0.004326   0.003214  -0.047465   0.397935  -0.045289  -0.000895
    23  H    0.000903   0.000021  -0.002086  -0.038152   0.399367  -0.036930
    24  H   -0.000149  -0.000088   0.004445  -0.038815   0.402035  -0.038940
    25  H    0.005086  -0.000054  -0.000403   0.004232  -0.033497   0.397432
    26  H   -0.003393   0.001544   0.000958  -0.002265  -0.041251   0.397524
    27  H   -0.000395   0.000007  -0.000040   0.000006   0.000026  -0.000027
              13         14         15         16         17         18
     1  O   -0.000014  -0.000000   0.000551   0.000559   0.000222   0.000001
     2  N    0.000017  -0.000061   0.002243  -0.024873  -0.006862  -0.000055
     3  O   -0.000002   0.000001  -0.000015   0.002597   0.017240   0.000014
     4  C   -0.006836   0.001716  -0.066334   0.319833  -0.023781   0.002272
     5  C   -0.001931   0.003486  -0.006431  -0.051402   0.376038  -0.033677
     6  N   -0.062572  -0.005954   0.001547   0.000037  -0.033415   0.338162
     7  C    0.328171  -0.044091  -0.058108  -0.000875   0.001592  -0.025003
     8  H   -0.033877  -0.000734   0.003611  -0.000068  -0.000042  -0.004307
     9  C   -0.067375   0.004306  -0.018215  -0.001131  -0.000046   0.001022
    10  C    0.000926  -0.000373   0.001479  -0.000081   0.000001  -0.000086
    11  C   -0.050586   0.004259  -0.018838   0.000012  -0.000000   0.000006
    12  C    0.369939  -0.036365  -0.083577   0.002188   0.000001  -0.000125
    13  C    5.048703   0.406979   0.242805  -0.064801  -0.000111   0.004016
    14  H    0.406979   0.514062  -0.034864  -0.004575   0.000032  -0.000058
    15  N    0.242805  -0.034864   6.994875   0.585758  -0.000031  -0.000156
    16  C   -0.064801  -0.004575   0.585758   4.703919   0.001922  -0.000215
    17  H   -0.000111   0.000032  -0.000031   0.001922   0.376252  -0.003747
    18  H    0.004016  -0.000058  -0.000156  -0.000215  -0.003747   0.322332
    19  H   -0.008678   0.000091   0.007049   0.002799   0.000027  -0.000140
    20  H    0.004814  -0.000066   0.000231  -0.000059  -0.000017   0.001186
    21  H   -0.000481   0.000010  -0.000072   0.000007  -0.000000   0.000001
    22  H   -0.000297  -0.000051   0.000047  -0.000002   0.000000   0.000002
    23  H   -0.009103   0.000000   0.009605   0.000187   0.000000   0.000000
    24  H    0.004863  -0.000059   0.000236   0.000008   0.000000  -0.000000
    25  H   -0.034770  -0.002980   0.001062  -0.000090  -0.000000   0.000003
    26  H   -0.048372  -0.000685   0.004983  -0.000024   0.000000  -0.000001
    27  H    0.004663  -0.000161  -0.041804   0.407816  -0.000077   0.000001
              19         20         21         22         23         24
     1  O    0.000001   0.000000  -0.000000  -0.000000   0.000000   0.000000
     2  N   -0.000017  -0.000000  -0.000000   0.000000  -0.000000  -0.000000
     3  O    0.000000   0.000000  -0.000000  -0.000000   0.000000   0.000000
     4  C   -0.001589  -0.000036   0.000002  -0.000001   0.000058   0.000000
     5  C    0.002465  -0.000096   0.000000  -0.000001  -0.000001  -0.000000
     6  N   -0.001717   0.000619  -0.000084  -0.000088  -0.000029   0.000006
     7  C   -0.035560  -0.043417   0.004546  -0.004326   0.000903  -0.000149
     8  H    0.003841  -0.002158  -0.000086   0.003214   0.000021  -0.000088
     9  C    0.392970   0.397022  -0.036373  -0.047465  -0.002086   0.004445
    10  C   -0.032213  -0.034216   0.402228   0.397935  -0.038152  -0.038815
    11  C   -0.001965   0.003894  -0.035032  -0.045289   0.399367   0.402035
    12  C    0.000799  -0.000494   0.004460  -0.000895  -0.036930  -0.038940
    13  C   -0.008678   0.004814  -0.000481  -0.000297  -0.009103   0.004863
    14  H    0.000091  -0.000066   0.000010  -0.000051   0.000000  -0.000059
    15  N    0.007049   0.000231  -0.000072   0.000047   0.009605   0.000236
    16  C    0.002799  -0.000059   0.000007  -0.000002   0.000187   0.000008
    17  H    0.000027  -0.000017  -0.000000   0.000000   0.000000   0.000000
    18  H   -0.000140   0.001186   0.000001   0.000002   0.000000  -0.000000
    19  H    0.502322  -0.025528  -0.002761   0.003960   0.001396  -0.000070
    20  H   -0.025528   0.544787  -0.002809  -0.003074  -0.000043  -0.000084
    21  H   -0.002761  -0.002809   0.524712  -0.027497  -0.002837  -0.002311
    22  H    0.003960  -0.003074  -0.027497   0.571563   0.004082  -0.003747
    23  H    0.001396  -0.000043  -0.002837   0.004082   0.492611  -0.025421
    24  H   -0.000070  -0.000084  -0.002311  -0.003747  -0.025421   0.540071
    25  H   -0.000031   0.000013  -0.000087  -0.000086  -0.002125  -0.002364
    26  H    0.000022  -0.000031  -0.000079   0.002434   0.003989  -0.002834
    27  H    0.000073  -0.000000  -0.000000   0.000000  -0.000056  -0.000000
              25         26         27
     1  O    0.000000   0.000000   0.006545
     2  N   -0.000000  -0.000000  -0.000650
     3  O    0.000000   0.000000   0.000030
     4  C    0.000028   0.000004  -0.067704
     5  C   -0.000003  -0.000000   0.002069
     6  N   -0.000090  -0.000056  -0.000007
     7  C    0.005086  -0.003393  -0.000395
     8  H   -0.000054   0.001544   0.000007
     9  C   -0.000403   0.000958  -0.000040
    10  C    0.004232  -0.002265   0.000006
    11  C   -0.033497  -0.041251   0.000026
    12  C    0.397432   0.397524  -0.000027
    13  C   -0.034770  -0.048372   0.004663
    14  H   -0.002980  -0.000685  -0.000161
    15  N    0.001062   0.004983  -0.041804
    16  C   -0.000090  -0.000024   0.407816
    17  H   -0.000000   0.000000  -0.000077
    18  H    0.000003  -0.000001   0.000001
    19  H   -0.000031   0.000022   0.000073
    20  H    0.000013  -0.000031  -0.000000
    21  H   -0.000087  -0.000079  -0.000000
    22  H   -0.000086   0.002434   0.000000
    23  H   -0.002125   0.003989  -0.000056
    24  H   -0.002364  -0.002834  -0.000000
    25  H    0.507733  -0.024070  -0.000016
    26  H   -0.024070   0.561897   0.000001
    27  H   -0.000016   0.000001   0.438139
 Mulliken charges:
               1
     1  O   -0.466560
     2  N    0.493798
     3  O   -0.502714
     4  C    0.008271
     5  C    0.176943
     6  N   -0.760986
     7  C    0.036950
     8  H    0.187688
     9  C   -0.307516
    10  C   -0.325921
    11  C   -0.323668
    12  C   -0.302866
    13  C   -0.026088
    14  H    0.196135
    15  N   -0.527638
    16  C    0.120551
    17  H    0.294804
    18  H    0.398551
    19  H    0.192455
    20  H    0.159562
    21  H    0.174542
    22  H    0.149581
    23  H    0.204564
    24  H    0.163219
    25  H    0.185078
    26  H    0.149704
    27  H    0.251563
 Sum of Mulliken charges =  -0.00000
 Mulliken charges with hydrogens summed into heavy atoms:
               1
     1  O   -0.466560
     2  N    0.493798
     3  O   -0.502714
     4  C    0.008271
     5  C    0.471746
     6  N   -0.362435
     7  C    0.224637
     9  C    0.044501
    10  C   -0.001799
    11  C    0.044115
    12  C    0.031916
    13  C    0.170047
    15  N   -0.527638
    16  C    0.372114
 Electronic spatial extent (au):  <R**2>=           2972.4193
 Charge=              0.0000 electrons
 Dipole moment (field-independent basis, Debye):
    X=              5.3245    Y=              4.6028    Z=              1.5822  Tot=              7.2138
 Quadrupole moment (field-independent basis, Debye-Ang):
   XX=           -105.4049   YY=            -78.9541   ZZ=            -82.1199
   XY=             -0.9108   XZ=             -2.4949   YZ=              1.6532
 Traceless Quadrupole moment (field-independent basis, Debye-Ang):
   XX=            -16.5786   YY=              9.8722   ZZ=              6.7064
   XY=             -0.9108   XZ=             -2.4949   YZ=              1.6532
 Octapole moment (field-independent basis, Debye-Ang**2):
  XXX=             83.5362  YYY=             32.5513  ZZZ=              1.5723  XYY=             -5.8567
  XXY=              7.0311  XXZ=             18.0342  XZZ=             -7.9965  YZZ=             -0.8706
  YYZ=              8.9203  XYZ=              1.0933
 Hexadecapole moment (field-independent basis, Debye-Ang**3):
 XXXX=          -3280.5696 YYYY=           -597.8488 ZZZZ=           -335.4139 XXXY=              7.6404
 XXXZ=           -116.1151 YYYX=             11.1256 YYYZ=             21.3805 ZZZX=            -54.8176
 ZZZY=              0.7536 XXYY=           -614.6712 XXZZ=           -525.4000 YYZZ=           -163.2635
 XXYZ=             -2.3009 YYXZ=            -19.9082 ZZXY=              9.1893
 N-N= 9.328160953910D+02 E-N=-3.412369793142D+03  KE= 6.596222510577D+02
 Unable to Open any file for archive entry.
 1\1\GINC-LOTUS\FOpt\RMP2-FC\6-31G(d)\C9H13N3O2\ALEXEY\01-Jul-2023\0\\#
 MP2/6-31G* SCF=Tight Opt=(ModRedun, MaxCycle=20 ) NoSymm\\MolName:\\0,
 1\O,-3.4749052855,-1.3353237873,-0.6004273343\N,-3.0771693932,-0.18113
 64187,-0.3503270696\O,-3.8244149261,0.8160954683,-0.3378714514\C,-1.66
 27716347,-0.0173087297,-0.0470052694\C,-1.2717918803,1.2660615054,0.23
 60735276\N,-0.0604592654,1.6971220427,0.6311676621\C,1.2380566167,1.04
 43973514,0.4989380043\H,1.9166847858,1.5931711608,1.1640742141\C,1.800
 889563,1.0359845572,-0.9254255718\C,3.2018255798,0.4097529283,-0.90121
 15272\C,3.207785097,-0.9813117361,-0.2634967488\C,2.5550924542,-0.9730
 297103,1.117695041\C,1.1280649213,-0.4233744879,0.9829098426\H,0.60129
 37636,-0.4366092049,1.9472017318\N,0.4420525133,-1.294669479,0.0342090
 838\C,-0.815460729,-1.1760274555,-0.2436707126\H,-2.0545747444,2.01885
 02539,0.2594515116\H,-0.0119672406,2.7007171014,0.7748939879\H,1.12563
 09415,0.4627144916,-1.5680417575\H,1.8442142349,2.059473704,-1.3198355
 436\H,3.6008485197,0.3613969202,-1.9209990169\H,3.8714403914,1.0733452
 476,-0.3357815653\H,2.6569192273,-1.6815637278,-0.8977379975\H,4.23915
 37226,-1.3478043136,-0.1925648707\H,2.5098723195,-1.9886819983,1.52436
 32502\H,3.130196182,-0.3575191018,1.8226640836\H,-1.2554857346,-1.9817
 325821,-0.8312455041\\Version=ES64L-G16RevC.02\HF=-661.2939127\MP2=-66
 3.3298696\RMSD=6.085e-09\RMSF=3.888e-03\Dipole=1.9417735,1.619483,0.57
 75335\PG=C01 [X(C9H13N3O2)]\\@
 The archive entry for this job was punched.


 ABSOLUTISM, OBSOLETISM -- IF IT WORKS, IT'S OUT OF DATE

                          -- STAFFORD BEER
 Job cpu time:       0 days  1 hours 10 minutes 38.2 seconds.
 Elapsed time:       0 days  0 hours 21 minutes 10.7 seconds.
 File lengths (MBytes):  RWF=     36 Int=      0 D2E=      0 Chk=      7 Scr=      1
 Normal termination of Gaussian 16 at Sat Jul  1 03:18:34 2023.
