 Entering Gaussian System, Link 0=g16
 Initial command:
 /home/alexey/programs//g16/l1.exe "/home/alexey/tmp/Gau-2180937.inp" -scrdir="/home/alexey/tmp/"
 Entering Link 1 = /home/alexey/programs//g16/l1.exe PID=   2180939.
  
 Copyright (c) 1988-2021, Gaussian, Inc.  All Rights Reserved.
  
 This is part of the Gaussian(R) 16 program.  It is based on
 the Gaussian(R) 09 system (copyright 2009, Gaussian, Inc.),
 the Gaussian(R) 03 system (copyright 2003, Gaussian, Inc.),
 the Gaussian(R) 98 system (copyright 1998, Gaussian, Inc.),
 the Gaussian(R) 94 system (copyright 1995, Gaussian, Inc.),
 the Gaussian 92(TM) system (copyright 1992, Gaussian, Inc.),
 the Gaussian 90(TM) system (copyright 1990, Gaussian, Inc.),
 the Gaussian 88(TM) system (copyright 1988, Gaussian, Inc.),
 the Gaussian 86(TM) system (copyright 1986, Carnegie Mellon
 University), and the Gaussian 82(TM) system (copyright 1983,
 Carnegie Mellon University). Gaussian is a federally registered
 trademark of Gaussian, Inc.
  
 This software contains proprietary and confidential information,
 including trade secrets, belonging to Gaussian, Inc.
  
 This software is provided under written license and may be
 used, copied, transmitted, or stored only in accord with that
 written license.
  
 The following legend is applicable only to US Government
 contracts under FAR:
  
                    RESTRICTED RIGHTS LEGEND
  
 Use, reproduction and disclosure by the US Government is
 subject to restrictions as set forth in subparagraphs (a)
 and (c) of the Commercial Computer Software - Restricted
 Rights clause in FAR 52.227-19.
  
 Gaussian, Inc.
 340 Quinnipiac St., Bldg. 40, Wallingford CT 06492
  
  
 ---------------------------------------------------------------
 Warning -- This program may not be used in any manner that
 competes with the business of Gaussian, Inc. or will provide
 assistance to any competitor of Gaussian, Inc.  The licensee
 of this program is prohibited from giving any competitor of
 Gaussian, Inc. access to this program.  By using this program,
 the user acknowledges that Gaussian, Inc. is engaged in the
 business of creating and licensing software in the field of
 computational chemistry and represents and warrants to the
 licensee that it is not a competitor of Gaussian, Inc. and that
 it will not use this program in any manner prohibited above.
 ---------------------------------------------------------------
  

 Cite this work as:
 Gaussian 16, Revision C.02,
 M. J. Frisch, G. W. Trucks, H. B. Schlegel, G. E. Scuseria, 
 M. A. Robb, J. R. Cheeseman, G. Scalmani, V. Barone, 
 G. A. Petersson, H. Nakatsuji, X. Li, M. Caricato, A. V. Marenich, 
 J. Bloino, B. G. Janesko, R. Gomperts, B. Mennucci, H. P. Hratchian, 
 J. V. Ortiz, A. F. Izmaylov, J. L. Sonnenberg, D. Williams-Young, 
 F. Ding, F. Lipparini, F. Egidi, J. Goings, B. Peng, A. Petrone, 
 T. Henderson, D. Ranasinghe, V. G. Zakrzewski, J. Gao, N. Rega, 
 G. Zheng, W. Liang, M. Hada, M. Ehara, K. Toyota, R. Fukuda, 
 J. Hasegawa, M. Ishida, T. Nakajima, Y. Honda, O. Kitao, H. Nakai, 
 T. Vreven, K. Throssell, J. A. Montgomery, Jr., J. E. Peralta, 
 F. Ogliaro, M. J. Bearpark, J. J. Heyd, E. N. Brothers, K. N. Kudin, 
 V. N. Staroverov, T. A. Keith, R. Kobayashi, J. Normand, 
 K. Raghavachari, A. P. Rendell, J. C. Burant, S. S. Iyengar, 
 J. Tomasi, M. Cossi, J. M. Millam, M. Klene, C. Adamo, R. Cammi, 
 J. W. Ochterski, R. L. Martin, K. Morokuma, O. Farkas, 
 J. B. Foresman, and D. J. Fox, Gaussian, Inc., Wallingford CT, 2019.
 
 ******************************************
 Gaussian 16:  ES64L-G16RevC.02  7-Dec-2021
                 3-Jun-2023 
 ******************************************
 %NoSave
 %mem=8GB
 %nproc=8
 Will use up to    8 processors via shared memory.
 --------------------------
 # MP2/6-31G* Opt Scf=Tight
 --------------------------
 1/18=20,19=15,38=1/1,3;
 2/9=110,12=2,17=6,18=5,40=1/2;
 3/5=1,6=6,7=1,11=9,25=1,30=1,71=1/1,2,3;
 4//1;
 5/5=2,32=2,38=5/2;
 8/6=4,10=2/1;
 9/15=2,16=-3/6;
 10/5=1/2;
 6/7=2,8=2,9=2,10=2/1;
 7/12=2/1,2,3,16;
 1/18=20,19=15/3(2);
 2/9=110/2;
 99//99;
 2/9=110/2;
 3/5=1,6=6,7=1,11=9,25=1,30=1,71=1/1,2,3;
 4/5=5,16=3,69=1/1;
 5/5=2,32=2,38=5/2;
 8/6=4,10=2/1;
 9/15=2,16=-3/6;
 10/5=1/2;
 7/12=2/1,2,3,16;
 1/18=20,19=15/3(-8);
 2/9=110/2;
 6/7=2,8=2,9=2,10=2/1;
 99/9=10/99;
 -----
 Title
 -----
 Symbolic Z-matrix:
 Charge =  0 Multiplicity = 1
 O                     3.52623   0.70406  -0.78378 
 N                     3.0163   -0.06252   0.05671 
 O                     3.68254  -0.78173   0.8264 
 C                     1.565    -0.08547   0.1331 
 C                     1.04134  -0.9327    1.07513 
 N                    -0.24924  -1.19169   1.33456 
 C                    -1.43055  -0.54996   0.77297 
 H                    -2.15755  -0.51939   1.59856 
 C                    -2.07406  -1.31592  -0.38133 
 C                    -3.41017  -0.65064  -0.7314 
 C                    -3.24853   0.84158  -1.0333 
 C                    -2.51194   1.57354   0.09064 
 C                    -1.15624   0.90771   0.35245 
 H                    -0.62437   1.40942   1.17631 
 N                    -0.38424   1.02954  -0.88024 
 C                     0.85007   0.64025  -0.89843 
 H                     1.75254  -1.48003   1.68761 
 H                    -0.41621  -1.84859   2.08761 
 H                    -1.39543  -1.30432  -1.24083 
 H                    -2.22692  -2.36373  -0.09449 
 H                    -3.86664  -1.16297  -1.58597 
 H                    -4.09974  -0.78024   0.11485 
 H                    -2.6746    0.96767  -1.95661 
 H                    -4.23254   1.29689  -1.19621 
 H                    -2.34044   2.61897  -0.18599 
 H                    -3.11095   1.57131   1.01174 
 H                     1.41091   0.84858  -1.80911 
 

 GradGradGradGradGradGradGradGradGradGradGradGradGradGradGradGradGradGrad
 Berny optimization.
 Initialization pass.
                           ----------------------------
                           !    Initial Parameters    !
                           ! (Angstroms and Degrees)  !
 --------------------------                            --------------------------
 ! Name  Definition              Value          Derivative Info.                !
 --------------------------------------------------------------------------------
 ! R1    R(1,2)                  1.2466         estimate D2E/DX2                !
 ! R2    R(2,3)                  1.2464         estimate D2E/DX2                !
 ! R3    R(2,4)                  1.4535         estimate D2E/DX2                !
 ! R4    R(4,5)                  1.3709         estimate D2E/DX2                !
 ! R5    R(4,16)                 1.4498         estimate D2E/DX2                !
 ! R6    R(5,6)                  1.3416         estimate D2E/DX2                !
 ! R7    R(5,17)                 1.0865         estimate D2E/DX2                !
 ! R8    R(6,7)                  1.4569         estimate D2E/DX2                !
 ! R9    R(6,18)                 1.0132         estimate D2E/DX2                !
 ! R10   R(7,8)                  1.1005         estimate D2E/DX2                !
 ! R11   R(7,9)                  1.5275         estimate D2E/DX2                !
 ! R12   R(7,13)                 1.5417         estimate D2E/DX2                !
 ! R13   R(9,10)                 1.5331         estimate D2E/DX2                !
 ! R14   R(9,19)                 1.0952         estimate D2E/DX2                !
 ! R15   R(9,20)                 1.0971         estimate D2E/DX2                !
 ! R16   R(10,11)                1.531          estimate D2E/DX2                !
 ! R17   R(10,21)                1.096          estimate D2E/DX2                !
 ! R18   R(10,22)                1.0993         estimate D2E/DX2                !
 ! R19   R(11,12)                1.5302         estimate D2E/DX2                !
 ! R20   R(11,23)                1.0944         estimate D2E/DX2                !
 ! R21   R(11,24)                1.0964         estimate D2E/DX2                !
 ! R22   R(12,13)                1.5329         estimate D2E/DX2                !
 ! R23   R(12,25)                1.0949         estimate D2E/DX2                !
 ! R24   R(12,26)                1.0987         estimate D2E/DX2                !
 ! R25   R(13,14)                1.1015         estimate D2E/DX2                !
 ! R26   R(13,15)                1.4596         estimate D2E/DX2                !
 ! R27   R(15,16)                1.2944         estimate D2E/DX2                !
 ! R28   R(16,27)                1.0896         estimate D2E/DX2                !
 ! A1    A(1,2,3)              123.5395         estimate D2E/DX2                !
 ! A2    A(1,2,4)              116.9732         estimate D2E/DX2                !
 ! A3    A(3,2,4)              119.4822         estimate D2E/DX2                !
 ! A4    A(2,4,5)              115.2947         estimate D2E/DX2                !
 ! A5    A(2,4,16)             116.5571         estimate D2E/DX2                !
 ! A6    A(5,4,16)             127.5823         estimate D2E/DX2                !
 ! A7    A(4,5,6)              128.2882         estimate D2E/DX2                !
 ! A8    A(4,5,17)             116.6568         estimate D2E/DX2                !
 ! A9    A(6,5,17)             115.0497         estimate D2E/DX2                !
 ! A10   A(5,6,7)              128.3446         estimate D2E/DX2                !
 ! A11   A(5,6,18)             115.3038         estimate D2E/DX2                !
 ! A12   A(7,6,18)             116.0061         estimate D2E/DX2                !
 ! A13   A(6,7,8)              104.9927         estimate D2E/DX2                !
 ! A14   A(6,7,9)              114.3301         estimate D2E/DX2                !
 ! A15   A(6,7,13)             112.1681         estimate D2E/DX2                !
 ! A16   A(8,7,9)              107.6107         estimate D2E/DX2                !
 ! A17   A(8,7,13)             107.2116         estimate D2E/DX2                !
 ! A18   A(9,7,13)             110.0571         estimate D2E/DX2                !
 ! A19   A(7,9,10)             108.7905         estimate D2E/DX2                !
 ! A20   A(7,9,19)             109.069          estimate D2E/DX2                !
 ! A21   A(7,9,20)             109.8804         estimate D2E/DX2                !
 ! A22   A(10,9,19)            110.8692         estimate D2E/DX2                !
 ! A23   A(10,9,20)            110.6548         estimate D2E/DX2                !
 ! A24   A(19,9,20)            107.5569         estimate D2E/DX2                !
 ! A25   A(9,10,11)            112.0842         estimate D2E/DX2                !
 ! A26   A(9,10,21)            109.766          estimate D2E/DX2                !
 ! A27   A(9,10,22)            108.6473         estimate D2E/DX2                !
 ! A28   A(11,10,21)           110.233          estimate D2E/DX2                !
 ! A29   A(11,10,22)           109.4472         estimate D2E/DX2                !
 ! A30   A(21,10,22)           106.4924         estimate D2E/DX2                !
 ! A31   A(10,11,12)           111.8515         estimate D2E/DX2                !
 ! A32   A(10,11,23)           109.5127         estimate D2E/DX2                !
 ! A33   A(10,11,24)           109.8341         estimate D2E/DX2                !
 ! A34   A(12,11,23)           108.1862         estimate D2E/DX2                !
 ! A35   A(12,11,24)           110.0301         estimate D2E/DX2                !
 ! A36   A(23,11,24)           107.3043         estimate D2E/DX2                !
 ! A37   A(11,12,13)           110.0841         estimate D2E/DX2                !
 ! A38   A(11,12,25)           110.2757         estimate D2E/DX2                !
 ! A39   A(11,12,26)           110.6306         estimate D2E/DX2                !
 ! A40   A(13,12,25)           108.6236         estimate D2E/DX2                !
 ! A41   A(13,12,26)           109.7608         estimate D2E/DX2                !
 ! A42   A(25,12,26)           107.4052         estimate D2E/DX2                !
 ! A43   A(7,13,12)            107.4519         estimate D2E/DX2                !
 ! A44   A(7,13,14)            108.2133         estimate D2E/DX2                !
 ! A45   A(7,13,15)            113.7901         estimate D2E/DX2                !
 ! A46   A(12,13,14)           110.912          estimate D2E/DX2                !
 ! A47   A(12,13,15)           106.6951         estimate D2E/DX2                !
 ! A48   A(14,13,15)           109.7709         estimate D2E/DX2                !
 ! A49   A(13,15,16)           119.4161         estimate D2E/DX2                !
 ! A50   A(4,16,15)            127.6471         estimate D2E/DX2                !
 ! A51   A(4,16,27)            115.8839         estimate D2E/DX2                !
 ! A52   A(15,16,27)           116.4281         estimate D2E/DX2                !
 ! D1    D(1,2,4,5)           -179.5419         estimate D2E/DX2                !
 ! D2    D(1,2,4,16)             8.4211         estimate D2E/DX2                !
 ! D3    D(3,2,4,5)             -0.3336         estimate D2E/DX2                !
 ! D4    D(3,2,4,16)          -172.3706         estimate D2E/DX2                !
 ! D5    D(2,4,5,6)           -177.4778         estimate D2E/DX2                !
 ! D6    D(2,4,5,17)             1.6381         estimate D2E/DX2                !
 ! D7    D(16,4,5,6)            -6.4738         estimate D2E/DX2                !
 ! D8    D(16,4,5,17)          172.6421         estimate D2E/DX2                !
 ! D9    D(2,4,16,15)         -162.3942         estimate D2E/DX2                !
 ! D10   D(2,4,16,27)           20.0335         estimate D2E/DX2                !
 ! D11   D(5,4,16,15)           26.6996         estimate D2E/DX2                !
 ! D12   D(5,4,16,27)         -150.8728         estimate D2E/DX2                !
 ! D13   D(4,5,6,7)             -6.3932         estimate D2E/DX2                !
 ! D14   D(4,5,6,18)          -179.3101         estimate D2E/DX2                !
 ! D15   D(17,5,6,7)           174.479          estimate D2E/DX2                !
 ! D16   D(17,5,6,18)            1.5621         estimate D2E/DX2                !
 ! D17   D(5,6,7,8)           -144.23           estimate D2E/DX2                !
 ! D18   D(5,6,7,9)             98.0708         estimate D2E/DX2                !
 ! D19   D(5,6,7,13)           -28.1326         estimate D2E/DX2                !
 ! D20   D(18,6,7,8)            28.6448         estimate D2E/DX2                !
 ! D21   D(18,6,7,9)           -89.0544         estimate D2E/DX2                !
 ! D22   D(18,6,7,13)          144.7422         estimate D2E/DX2                !
 ! D23   D(6,7,9,10)           171.4727         estimate D2E/DX2                !
 ! D24   D(6,7,9,19)           -67.4796         estimate D2E/DX2                !
 ! D25   D(6,7,9,20)            50.1913         estimate D2E/DX2                !
 ! D26   D(8,7,9,10)            55.2799         estimate D2E/DX2                !
 ! D27   D(8,7,9,19)           176.3276         estimate D2E/DX2                !
 ! D28   D(8,7,9,20)           -66.0016         estimate D2E/DX2                !
 ! D29   D(13,7,9,10)          -61.2323         estimate D2E/DX2                !
 ! D30   D(13,7,9,19)           59.8154         estimate D2E/DX2                !
 ! D31   D(13,7,9,20)          177.4863         estimate D2E/DX2                !
 ! D32   D(6,7,13,12)         -167.0758         estimate D2E/DX2                !
 ! D33   D(6,7,13,14)          -47.2521         estimate D2E/DX2                !
 ! D34   D(6,7,13,15)           75.0393         estimate D2E/DX2                !
 ! D35   D(8,7,13,12)          -52.326          estimate D2E/DX2                !
 ! D36   D(8,7,13,14)           67.4977         estimate D2E/DX2                !
 ! D37   D(8,7,13,15)         -170.2109         estimate D2E/DX2                !
 ! D38   D(9,7,13,12)           64.4356         estimate D2E/DX2                !
 ! D39   D(9,7,13,14)         -175.7407         estimate D2E/DX2                !
 ! D40   D(9,7,13,15)          -53.4493         estimate D2E/DX2                !
 ! D41   D(7,9,10,11)           54.8284         estimate D2E/DX2                !
 ! D42   D(7,9,10,21)          177.6749         estimate D2E/DX2                !
 ! D43   D(7,9,10,22)          -66.2442         estimate D2E/DX2                !
 ! D44   D(19,9,10,11)         -65.1084         estimate D2E/DX2                !
 ! D45   D(19,9,10,21)          57.7381         estimate D2E/DX2                !
 ! D46   D(19,9,10,22)         173.819          estimate D2E/DX2                !
 ! D47   D(20,9,10,11)         175.6347         estimate D2E/DX2                !
 ! D48   D(20,9,10,21)         -61.5188         estimate D2E/DX2                !
 ! D49   D(20,9,10,22)          54.5621         estimate D2E/DX2                !
 ! D50   D(9,10,11,12)         -52.8324         estimate D2E/DX2                !
 ! D51   D(9,10,11,23)          67.0923         estimate D2E/DX2                !
 ! D52   D(9,10,11,24)        -175.3081         estimate D2E/DX2                !
 ! D53   D(21,10,11,12)       -175.4142         estimate D2E/DX2                !
 ! D54   D(21,10,11,23)        -55.4896         estimate D2E/DX2                !
 ! D55   D(21,10,11,24)         62.11           estimate D2E/DX2                !
 ! D56   D(22,10,11,12)         67.7777         estimate D2E/DX2                !
 ! D57   D(22,10,11,23)       -172.2976         estimate D2E/DX2                !
 ! D58   D(22,10,11,24)        -54.698          estimate D2E/DX2                !
 ! D59   D(10,11,12,13)         55.6807         estimate D2E/DX2                !
 ! D60   D(10,11,12,25)        175.5197         estimate D2E/DX2                !
 ! D61   D(10,11,12,26)        -65.8064         estimate D2E/DX2                !
 ! D62   D(23,11,12,13)        -65.0185         estimate D2E/DX2                !
 ! D63   D(23,11,12,25)         54.8205         estimate D2E/DX2                !
 ! D64   D(23,11,12,26)        173.4943         estimate D2E/DX2                !
 ! D65   D(24,11,12,13)        178.0446         estimate D2E/DX2                !
 ! D66   D(24,11,12,25)        -62.1164         estimate D2E/DX2                !
 ! D67   D(24,11,12,26)         56.5574         estimate D2E/DX2                !
 ! D68   D(11,12,13,7)         -60.5467         estimate D2E/DX2                !
 ! D69   D(11,12,13,14)       -178.6371         estimate D2E/DX2                !
 ! D70   D(11,12,13,15)         61.848          estimate D2E/DX2                !
 ! D71   D(25,12,13,7)         178.6174         estimate D2E/DX2                !
 ! D72   D(25,12,13,14)         60.527          estimate D2E/DX2                !
 ! D73   D(25,12,13,15)        -58.9879         estimate D2E/DX2                !
 ! D74   D(26,12,13,7)          61.4577         estimate D2E/DX2                !
 ! D75   D(26,12,13,14)        -56.6327         estimate D2E/DX2                !
 ! D76   D(26,12,13,15)       -176.1476         estimate D2E/DX2                !
 ! D77   D(7,13,15,16)         -67.1919         estimate D2E/DX2                !
 ! D78   D(12,13,15,16)        174.4879         estimate D2E/DX2                !
 ! D79   D(14,13,15,16)         54.2369         estimate D2E/DX2                !
 ! D80   D(13,15,16,4)           8.653          estimate D2E/DX2                !
 ! D81   D(13,15,16,27)       -173.7861         estimate D2E/DX2                !
 --------------------------------------------------------------------------------
 Trust Radius=3.00D-01 FncErr=1.00D-07 GrdErr=1.00D-07 EigMax=2.50D+02 EigMin=1.00D-04
 Number of steps in this run=    162 maximum allowed number of steps=    162.
 GradGradGradGradGradGradGradGradGradGradGradGradGradGradGradGradGradGrad

                          Input orientation:                          
 ---------------------------------------------------------------------
 Center     Atomic      Atomic             Coordinates (Angstroms)
 Number     Number       Type             X           Y           Z
 ---------------------------------------------------------------------
      1          8           0        3.526230    0.704059   -0.783780
      2          7           0        3.016299   -0.062522    0.056705
      3          8           0        3.682544   -0.781731    0.826399
      4          6           0        1.565001   -0.085466    0.133102
      5          6           0        1.041340   -0.932697    1.075126
      6          7           0       -0.249243   -1.191694    1.334559
      7          6           0       -1.430552   -0.549958    0.772968
      8          1           0       -2.157550   -0.519386    1.598565
      9          6           0       -2.074056   -1.315920   -0.381329
     10          6           0       -3.410173   -0.650638   -0.731401
     11          6           0       -3.248534    0.841578   -1.033300
     12          6           0       -2.511935    1.573538    0.090643
     13          6           0       -1.156239    0.907711    0.352453
     14          1           0       -0.624375    1.409424    1.176306
     15          7           0       -0.384237    1.029538   -0.880237
     16          6           0        0.850069    0.640250   -0.898434
     17          1           0        1.752537   -1.480034    1.687613
     18          1           0       -0.416207   -1.848592    2.087613
     19          1           0       -1.395430   -1.304319   -1.240828
     20          1           0       -2.226915   -2.363735   -0.094488
     21          1           0       -3.866640   -1.162966   -1.585974
     22          1           0       -4.099737   -0.780242    0.114854
     23          1           0       -2.674605    0.967671   -1.956607
     24          1           0       -4.232543    1.296889   -1.196211
     25          1           0       -2.340436    2.618970   -0.185990
     26          1           0       -3.110947    1.571313    1.011744
     27          1           0        1.410912    0.848585   -1.809108
 ---------------------------------------------------------------------
                    Distance matrix (angstroms):
                    1          2          3          4          5
     1  O    0.000000
     2  N    1.246632   0.000000
     3  O    2.196517   1.246425   0.000000
     4  C    2.304439   1.453488   2.334402   0.000000
     5  C    3.508444   2.386388   2.657182   1.370923   0.000000
     6  N    4.726038   3.683980   3.985630   2.441049   1.341637
     7  C    5.344690   4.530465   5.118626   3.098148   2.519532
     8  H    6.283131   5.418004   5.896759   4.024085   3.267677
     9  C    5.967033   5.260665   5.906133   3.875744   3.460320
    10  C    7.067647   6.501272   7.262959   5.081255   4.812387
    11  C    6.780752   6.422900   7.357545   5.038852   5.098680
    12  C    6.162795   5.765346   6.667849   4.401762   4.458272
    13  C    4.822656   4.294053   5.147102   2.905110   2.956131
    14  H    4.644028   4.083459   4.844909   2.848919   2.875826
    15  N    3.925175   3.692439   4.767811   2.463661   3.115459
    16  C    2.679375   2.469561   3.608323   1.449779   2.530946
    17  H    3.744867   2.503257   2.225813   2.096782   1.086517
    18  H    5.504883   4.369981   4.419119   3.294528   1.997108
    19  H    5.335280   4.763298   5.507481   3.483883   3.382247
    20  H    6.556307   5.727979   6.186476   4.429553   3.754645
    21  H    7.667061   7.161301   7.934423   5.798186   5.587732
    22  H    7.820873   7.152375   7.814742   5.707215   5.232211
    23  H    6.316278   6.123815   7.156737   4.842545   5.158590
    24  H    7.792311   7.480877   8.429723   6.106513   6.159860
    25  H    6.200161   5.995324   6.990421   4.761117   5.063711
    26  H    6.930234   6.412851   7.191849   5.037998   4.849286
    27  H    2.355155   2.624622   3.842414   2.160642   3.410036
                    6          7          8          9         10
     6  N    0.000000
     7  C    1.456949   0.000000
     8  H    2.040425   1.100487   0.000000
     9  C    2.507917   1.527481   2.135748   0.000000
    10  C    3.814763   2.488406   2.648591   1.533089   0.000000
    11  C    4.328591   2.916168   3.157401   2.541509   1.531006
    12  C    3.783334   2.478748   2.603795   2.960315   2.535655
    13  C    2.488910   1.541713   2.142901   2.515027   2.946763
    14  H    2.632790   2.156798   2.499847   3.457644   3.955234
    15  N    3.139653   2.514492   3.418810   2.933526   3.464308
    16  C    3.090431   3.067803   4.077442   3.555912   4.454656
    17  H    2.053024   3.440010   4.027351   4.353190   5.761346
    18  H    1.013155   2.107994   2.244601   3.021238   4.283197
    19  H    2.821179   2.150737   3.042877   1.095174   2.178533
    20  H    2.706851   2.162513   2.504568   1.097068   2.177259
    21  H    4.649291   3.446000   3.671032   2.165161   1.095964
    22  H    4.059960   2.758748   2.457953   2.153261   1.099292
    23  H    4.623528   3.361762   3.888178   2.838477   2.158961
    24  H    5.335216   3.890972   3.926223   3.485667   2.164532
    25  H    4.605032   3.433598   3.614881   3.948732   3.483123
    26  H    3.990961   2.716713   2.371570   3.369260   2.839922
    27  H    4.098962   4.086190   5.120302   4.343804   5.162555
                   11         12         13         14         15
    11  C    0.000000
    12  C    1.530226   0.000000
    13  C    2.510456   1.532900   0.000000
    14  H    3.477215   2.183686   1.101512   0.000000
    15  N    2.874535   2.401175   1.459573   2.105077   0.000000
    16  C    4.105761   3.626620   2.379396   2.658978   1.294368
    17  H    6.148493   5.482731   3.993113   3.776256   4.178231
    18  H    4.999920   4.482292   3.340005   3.389466   4.134343
    19  H    2.842875   3.361765   2.736574   3.715032   2.568935
    20  H    3.492722   3.951914   3.471089   4.291827   3.940452
    21  H    2.169263   3.483494   3.923198   4.975909   4.175197
    22  H    2.161737   2.839363   3.401444   4.242577   4.250935
    23  H    1.094436   2.141207   2.764198   3.770111   2.531439
    24  H    1.096413   2.166338   3.466046   4.319767   3.870501
    25  H    2.168340   1.094928   2.149571   2.502743   2.614380
    26  H    2.175695   1.098748   2.167006   2.497264   3.362746
    27  H    4.723596   4.418522   3.356501   3.656450   2.029311
                   16         17         18         19         20
    16  C    0.000000
    17  H    3.463768   0.000000
    18  H    4.088309   2.235908   0.000000
    19  H    2.990126   4.303061   3.511927   0.000000
    20  H    4.374710   4.448916   2.881945   1.768565   0.000000
    21  H    5.096239   6.510918   5.086336   2.499197   2.520927
    22  H    5.248346   6.100196   4.312951   3.070148   2.461449
    23  H    3.694626   6.234676   5.421016   2.703806   3.842678
    24  H    5.133498   7.200620   5.936495   3.849349   4.317001
    25  H    3.821287   6.088074   5.369455   4.171081   4.984838
    26  H    4.495032   5.781089   4.484960   4.035634   4.182088
    27  H    1.089621   4.215000   5.079130   3.582386   5.147106
                   21         22         23         24         25
    21  H    0.000000
    22  H    1.758872   0.000000
    23  H    2.469399   3.062214   0.000000
    24  H    2.517278   2.459879   1.764584   0.000000
    25  H    4.311879   3.839309   2.444083   2.519627   0.000000
    26  H    3.846491   2.704058   3.060374   2.491657   1.768005
    27  H    5.652316   6.059864   4.089912   5.694313   4.454366
                   26         27
    26  H    0.000000
    27  H    5.378359   0.000000
 Stoichiometry    C9H13N3O2
 Framework group  C1[X(C9H13N3O2)]
 Deg. of freedom    75
 Full point group                 C1      NOp   1
 Largest Abelian subgroup         C1      NOp   1
 Largest concise Abelian subgroup C1      NOp   1
                         Standard orientation:                         
 ---------------------------------------------------------------------
 Center     Atomic      Atomic             Coordinates (Angstroms)
 Number     Number       Type             X           Y           Z
 ---------------------------------------------------------------------
      1          8           0       -3.506305   -1.391933   -0.365475
      2          7           0       -3.120820   -0.232880   -0.116296
      3          8           0       -3.895311    0.728556    0.055107
      4          6           0       -1.686470   -0.024064   -0.008295
      5          6           0       -1.301322    1.260553    0.276048
      6          7           0       -0.057133    1.750235    0.386481
      7          6           0        1.205734    1.024215    0.358843
      8          1           0        1.853963    1.553250    1.073679
      9          6           0        1.908191    1.034852   -0.997490
     10          6           0        3.306770    0.428533   -0.834041
     11          6           0        3.259293   -0.967422   -0.207117
     12          6           0        2.465149   -0.977651    1.100866
     13          6           0        1.055223   -0.424245    0.864994
     14          1           0        0.479140   -0.402842    1.803609
     15          7           0        0.408554   -1.317767   -0.090931
     16          6           0       -0.839035   -1.138299   -0.385381
     17          1           0       -2.096157    1.987277    0.419673
     18          1           0        0.001757    2.735430    0.615403
     19          1           0        1.313589    0.456913   -1.712921
     20          1           0        1.973744    2.062605   -1.375621
     21          1           0        3.810131    0.390235   -1.806820
     22          1           0        3.906719    1.095068   -0.198246
     23          1           0        2.781207   -1.664363   -0.902456
     24          1           0        4.278561   -1.330748   -0.030453
     25          1           0        2.379987   -1.999413    1.485075
     26          1           0        2.975457   -0.379412    1.868293
     27          1           0       -1.300575   -1.892924   -1.021616
 ---------------------------------------------------------------------
 Rotational constants (GHZ):           1.6800708           0.4194158           0.3721789
 Standard basis: 6-31G(d) (6D, 7F)
 There are   236 symmetry adapted cartesian basis functions of A   symmetry.
 There are   236 symmetry adapted basis functions of A   symmetry.
   236 basis functions,   444 primitive gaussians,   236 cartesian basis functions
    52 alpha electrons       52 beta electrons
       nuclear repulsion energy       931.2716772853 Hartrees.
 NAtoms=   27 NActive=   27 NUniq=   27 SFac= 1.00D+00 NAtFMM=   60 NAOKFM=F Big=F
 Integral buffers will be    131072 words long.
 Raffenetti 1 integral format.
 Two-electron integral symmetry is turned on.
 One-electron integrals computed using PRISM.
 NBasis=   236 RedAO= T EigKep=  1.06D-03  NBF=   236
 NBsUse=   236 1.00D-06 EigRej= -1.00D+00 NBFU=   236
 ExpMin= 1.61D-01 ExpMax= 5.48D+03 ExpMxC= 8.25D+02 IAcc=3 IRadAn=         5 AccDes= 0.00D+00
 Harris functional with IExCor=  205 and IRadAn=       5 diagonalized for initial guess.
 HarFok:  IExCor=  205 AccDes= 0.00D+00 IRadAn=         5 IDoV= 1 UseB2=F ITyADJ=14
 ICtDFT=  3500011 ScaDFX=  1.000000  1.000000  1.000000  1.000000
 FoFCou: FMM=F IPFlag=           0 FMFlag=      100000 FMFlg1=           0
         NFxFlg=           0 DoJE=T BraDBF=F KetDBF=T FulRan=T
         wScrn=  0.000000 ICntrl=       500 IOpCl=  0 I1Cent=   200000004 NGrid=           0
         NMat0=    1 NMatS0=      1 NMatT0=    0 NMatD0=    1 NMtDS0=    0 NMtDT0=    0
 Petite list used in FoFCou.
 Requested convergence on RMS density matrix=1.00D-08 within 128 cycles.
 Requested convergence on MAX density matrix=1.00D-06.
 Requested convergence on             energy=1.00D-06.
 No special actions if energy rises.
 Integral accuracy reduced to 1.0D-05 until final iterations.
 Initial convergence to 1.0D-05 achieved.  Increase integral accuracy.
 SCF Done:  E(RHF) =  -661.300337681     A.U. after   16 cycles
            NFock= 16  Conv=0.97D-08     -V/T= 2.0025
 ExpMin= 1.61D-01 ExpMax= 5.48D+03 ExpMxC= 8.25D+02 IAcc=3 IRadAn=         5 AccDes= 0.00D+00
 HarFok:  IExCor=  205 AccDes= 0.00D+00 IRadAn=         5 IDoV=-2 UseB2=F ITyADJ=14
 ICtDFT= 12500011 ScaDFX=  1.000000  1.000000  1.000000  1.000000
 Range of M.O.s used for correlation:    15   236
 NBasis=   236 NAE=    52 NBE=    52 NFC=    14 NFV=     0
 NROrb=    222 NOA=    38 NOB=    38 NVA=   184 NVB=   184
 Disk-based method using ON**2 memory for 38 occupieds at a time.
 Estimated scratch disk usage=   975328540 words.
 Actual    scratch disk usage=   795315996 words.
 JobTyp=1 Pass  1:  I=  15 to  52 NPSUse=  8 ParTrn=T ParDer=T DoDerP=T.
 (rs|ai) integrals will be sorted in core.
 Spin components of T(2) and E(2):
     alpha-alpha T2 =       0.9155969075D-01 E2=     -0.2727087177D+00
     alpha-beta  T2 =       0.4921132595D+00 E2=     -0.1488894116D+01
     beta-beta   T2 =       0.9155969075D-01 E2=     -0.2727087177D+00
 ANorm=    0.1294307785D+01
 E2 =    -0.2034311552D+01 EUMP2 =    -0.66333464923254D+03
          IDoAtm=111111111111111111111111111
          Differentiating once with respect to electric field.
                with respect to dipole field.
          Differentiating once with respect to nuclear coordinates.
 Keep R1 ints in memory in canonical form, NReq=397723937.
          There are     1 degrees of freedom in the 1st order CPHF.  IDoFFX=0 NUNeed=     1.
 LinEq1:  Iter=  0 NonCon=     1 RMS=4.61D-03 Max=1.05D-01 NDo=     1
 AX will form     1 AO Fock derivatives at one time.
 LinEq1:  Iter=  1 NonCon=     1 RMS=1.56D-03 Max=3.22D-02 NDo=     1
 LinEq1:  Iter=  2 NonCon=     1 RMS=6.63D-04 Max=1.77D-02 NDo=     1
 LinEq1:  Iter=  3 NonCon=     1 RMS=2.91D-04 Max=9.19D-03 NDo=     1
 LinEq1:  Iter=  4 NonCon=     1 RMS=9.06D-05 Max=2.02D-03 NDo=     1
 LinEq1:  Iter=  5 NonCon=     1 RMS=3.84D-05 Max=1.88D-03 NDo=     1
 LinEq1:  Iter=  6 NonCon=     1 RMS=1.46D-05 Max=5.16D-04 NDo=     1
 LinEq1:  Iter=  7 NonCon=     1 RMS=5.54D-06 Max=8.74D-05 NDo=     1
 LinEq1:  Iter=  8 NonCon=     1 RMS=2.14D-06 Max=5.39D-05 NDo=     1
 LinEq1:  Iter=  9 NonCon=     1 RMS=7.12D-07 Max=2.10D-05 NDo=     1
 LinEq1:  Iter= 10 NonCon=     1 RMS=3.29D-07 Max=1.48D-05 NDo=     1
 LinEq1:  Iter= 11 NonCon=     1 RMS=1.41D-07 Max=5.18D-06 NDo=     1
 LinEq1:  Iter= 12 NonCon=     1 RMS=5.41D-08 Max=9.40D-07 NDo=     1
 LinEq1:  Iter= 13 NonCon=     1 RMS=1.75D-08 Max=3.18D-07 NDo=     1
 LinEq1:  Iter= 14 NonCon=     1 RMS=5.76D-09 Max=1.40D-07 NDo=     1
 LinEq1:  Iter= 15 NonCon=     1 RMS=2.19D-09 Max=5.94D-08 NDo=     1
 LinEq1:  Iter= 16 NonCon=     1 RMS=8.77D-10 Max=1.77D-08 NDo=     1
 LinEq1:  Iter= 17 NonCon=     1 RMS=2.99D-10 Max=5.66D-09 NDo=     1
 LinEq1:  Iter= 18 NonCon=     1 RMS=9.64D-11 Max=1.09D-09 NDo=     1
 LinEq1:  Iter= 19 NonCon=     0 RMS=3.04D-11 Max=4.49D-10 NDo=     1
 Linear equations converged to 1.000D-10 1.000D-09 after    19 iterations.
 End of Minotr F.D. properties file   721 does not exist.
 End of Minotr F.D. properties file   722 does not exist.
 End of Minotr F.D. properties file   788 does not exist.

 **********************************************************************

            Population analysis using the SCF Density.

 **********************************************************************

 Orbital symmetries:
       Occupied  (A) (A) (A) (A) (A) (A) (A) (A) (A) (A) (A) (A)
                 (A) (A) (A) (A) (A) (A) (A) (A) (A) (A) (A) (A)
                 (A) (A) (A) (A) (A) (A) (A) (A) (A) (A) (A) (A)
                 (A) (A) (A) (A) (A) (A) (A) (A) (A) (A) (A) (A)
                 (A) (A) (A) (A)
       Virtual   (A) (A) (A) (A) (A) (A) (A) (A) (A) (A) (A) (A)
                 (A) (A) (A) (A) (A) (A) (A) (A) (A) (A) (A) (A)
                 (A) (A) (A) (A) (A) (A) (A) (A) (A) (A) (A) (A)
                 (A) (A) (A) (A) (A) (A) (A) (A) (A) (A) (A) (A)
                 (A) (A) (A) (A) (A) (A) (A) (A) (A) (A) (A) (A)
                 (A) (A) (A) (A) (A) (A) (A) (A) (A) (A) (A) (A)
                 (A) (A) (A) (A) (A) (A) (A) (A) (A) (A) (A) (A)
                 (A) (A) (A) (A) (A) (A) (A) (A) (A) (A) (A) (A)
                 (A) (A) (A) (A) (A) (A) (A) (A) (A) (A) (A) (A)
                 (A) (A) (A) (A) (A) (A) (A) (A) (A) (A) (A) (A)
                 (A) (A) (A) (A) (A) (A) (A) (A) (A) (A) (A) (A)
                 (A) (A) (A) (A) (A) (A) (A) (A) (A) (A) (A) (A)
                 (A) (A) (A) (A) (A) (A) (A) (A) (A) (A) (A) (A)
                 (A) (A) (A) (A) (A) (A) (A) (A) (A) (A) (A) (A)
                 (A) (A) (A) (A) (A) (A) (A) (A) (A) (A) (A) (A)
                 (A) (A) (A) (A)
 The electronic state is 1-A.
 Alpha  occ. eigenvalues --  -20.59236 -20.58906 -15.84721 -15.64137 -15.56111
 Alpha  occ. eigenvalues --  -11.35018 -11.29621 -11.29559 -11.28626 -11.27131
 Alpha  occ. eigenvalues --  -11.23726 -11.23206 -11.22690 -11.22087  -1.57107
 Alpha  occ. eigenvalues --   -1.36703  -1.30981  -1.23068  -1.14706  -1.09821
 Alpha  occ. eigenvalues --   -1.02806  -1.01309  -0.94484  -0.89686  -0.85566
 Alpha  occ. eigenvalues --   -0.82450  -0.78611  -0.77413  -0.75204  -0.72020
 Alpha  occ. eigenvalues --   -0.69771  -0.69432  -0.67820  -0.64896  -0.63779
 Alpha  occ. eigenvalues --   -0.62370  -0.60282  -0.57701  -0.57003  -0.55079
 Alpha  occ. eigenvalues --   -0.54581  -0.50761  -0.50112  -0.48656  -0.48103
 Alpha  occ. eigenvalues --   -0.47373  -0.46145  -0.46044  -0.43676  -0.41696
 Alpha  occ. eigenvalues --   -0.39850  -0.33830
 Alpha virt. eigenvalues --    0.07462   0.11799   0.17308   0.21849   0.24113
 Alpha virt. eigenvalues --    0.25663   0.27135   0.28698   0.29045   0.29637
 Alpha virt. eigenvalues --    0.30682   0.31800   0.32037   0.32768   0.33952
 Alpha virt. eigenvalues --    0.34389   0.35851   0.37315   0.38580   0.40293
 Alpha virt. eigenvalues --    0.41389   0.42442   0.45023   0.46115   0.46732
 Alpha virt. eigenvalues --    0.47079   0.48993   0.53995   0.57575   0.59405
 Alpha virt. eigenvalues --    0.63910   0.69544   0.69908   0.72865   0.74243
 Alpha virt. eigenvalues --    0.74868   0.75782   0.76681   0.78663   0.79440
 Alpha virt. eigenvalues --    0.81391   0.84695   0.85720   0.85807   0.88531
 Alpha virt. eigenvalues --    0.89420   0.91052   0.92112   0.92855   0.94528
 Alpha virt. eigenvalues --    0.95641   0.98039   0.99635   1.01678   1.02470
 Alpha virt. eigenvalues --    1.03156   1.05877   1.06969   1.07902   1.09013
 Alpha virt. eigenvalues --    1.10290   1.11419   1.11859   1.12444   1.13919
 Alpha virt. eigenvalues --    1.14768   1.14994   1.15835   1.16904   1.18728
 Alpha virt. eigenvalues --    1.19141   1.21339   1.22577   1.23914   1.24536
 Alpha virt. eigenvalues --    1.24820   1.26039   1.26927   1.27490   1.29561
 Alpha virt. eigenvalues --    1.30013   1.33132   1.36071   1.37185   1.40869
 Alpha virt. eigenvalues --    1.41845   1.46474   1.48725   1.51694   1.54283
 Alpha virt. eigenvalues --    1.56368   1.58773   1.59566   1.63482   1.65633
 Alpha virt. eigenvalues --    1.68023   1.68632   1.72996   1.75235   1.77384
 Alpha virt. eigenvalues --    1.81590   1.84597   1.87682   1.90649   1.93482
 Alpha virt. eigenvalues --    1.95812   1.96951   1.99707   2.01583   2.02519
 Alpha virt. eigenvalues --    2.05106   2.05624   2.08502   2.09557   2.12408
 Alpha virt. eigenvalues --    2.13273   2.15303   2.18832   2.20020   2.22444
 Alpha virt. eigenvalues --    2.22643   2.24498   2.25496   2.28222   2.29560
 Alpha virt. eigenvalues --    2.32004   2.33730   2.34697   2.36412   2.38463
 Alpha virt. eigenvalues --    2.40483   2.41925   2.43866   2.45127   2.47376
 Alpha virt. eigenvalues --    2.50728   2.51962   2.53125   2.55577   2.61513
 Alpha virt. eigenvalues --    2.62320   2.65203   2.67625   2.70325   2.70499
 Alpha virt. eigenvalues --    2.72277   2.72657   2.76988   2.78449   2.83789
 Alpha virt. eigenvalues --    2.88570   2.88954   2.92939   2.93153   2.96066
 Alpha virt. eigenvalues --    2.99442   3.01343   3.04312   3.05727   3.07677
 Alpha virt. eigenvalues --    3.09419   3.15056   3.21202   3.25215   3.27457
 Alpha virt. eigenvalues --    3.33451   3.37771   3.38785   3.52171   3.65801
 Alpha virt. eigenvalues --    4.13663   4.28066   4.34698   4.38907   4.46304
 Alpha virt. eigenvalues --    4.56313   4.61880   4.62359   4.73471   4.79745
 Alpha virt. eigenvalues --    4.99420   5.00905   5.05031   5.11173
          Condensed to atoms (all electrons):
               1          2          3          4          5          6
     1  O    8.316104   0.306887  -0.082477  -0.085482   0.004641  -0.000016
     2  N    0.306887   5.722728   0.301183   0.264121  -0.053664   0.000970
     3  O   -0.082477   0.301183   8.353604  -0.092637   0.003642   0.000784
     4  C   -0.085482   0.264121  -0.092637   5.225647   0.560370  -0.047277
     5  C    0.004641  -0.053664   0.003642   0.560370   4.709888   0.317439
     6  N   -0.000016   0.000970   0.000784  -0.047277   0.317439   7.195566
     7  C    0.000004  -0.000140   0.000002   0.004634  -0.030206   0.169253
     8  H   -0.000000   0.000002  -0.000000  -0.000261   0.003096  -0.050651
     9  C   -0.000000  -0.000004  -0.000000   0.000855   0.000627  -0.061676
    10  C    0.000000   0.000000   0.000000  -0.000038  -0.000052   0.003750
    11  C   -0.000000  -0.000000  -0.000000  -0.000028   0.000025  -0.000190
    12  C   -0.000000   0.000002  -0.000000  -0.000127  -0.000176   0.003875
    13  C   -0.000025  -0.000039  -0.000004  -0.011567  -0.000588  -0.047714
    14  H   -0.000004  -0.000105   0.000001   0.002644   0.006073  -0.006960
    15  N    0.000381   0.002366  -0.000016  -0.063535  -0.006392   0.001597
    16  C    0.000846  -0.027253   0.002543   0.328468  -0.050311  -0.001854
    17  H    0.000220  -0.007232   0.017394  -0.023150   0.374510  -0.034174
    18  H    0.000001  -0.000050   0.000012   0.001507  -0.031444   0.338679
    19  H    0.000001  -0.000004   0.000000  -0.001227   0.001233  -0.000352
    20  H    0.000000  -0.000000   0.000000  -0.000079   0.000153  -0.000429
    21  H   -0.000000   0.000000   0.000000   0.000001   0.000001  -0.000077
    22  H   -0.000000   0.000000  -0.000000  -0.000000  -0.000003  -0.000117
    23  H    0.000000  -0.000000   0.000000   0.000041  -0.000000  -0.000031
    24  H    0.000000   0.000000   0.000000   0.000000  -0.000000   0.000006
    25  H    0.000000  -0.000000   0.000000   0.000024   0.000000  -0.000091
    26  H    0.000000  -0.000000   0.000000   0.000006  -0.000002  -0.000060
    27  H    0.006112  -0.000877   0.000018  -0.063448   0.002215   0.000017
               7          8          9         10         11         12
     1  O    0.000004  -0.000000  -0.000000   0.000000  -0.000000  -0.000000
     2  N   -0.000140   0.000002  -0.000004   0.000000  -0.000000   0.000002
     3  O    0.000002  -0.000000  -0.000000   0.000000  -0.000000  -0.000000
     4  C    0.004634  -0.000261   0.000855  -0.000038  -0.000028  -0.000127
     5  C   -0.030206   0.003096   0.000627  -0.000052   0.000025  -0.000176
     6  N    0.169253  -0.050651  -0.061676   0.003750  -0.000190   0.003875
     7  C    5.017644   0.418414   0.350561  -0.054693  -0.009034  -0.061085
     8  H    0.418414   0.538021  -0.055028   0.000775  -0.000325  -0.002232
     9  C    0.350561  -0.055028   5.158283   0.324785  -0.050421  -0.005346
    10  C   -0.054693   0.000775   0.324785   5.119318   0.337017  -0.061009
    11  C   -0.009034  -0.000325  -0.050421   0.337017   5.119931   0.335998
    12  C   -0.061085  -0.002232  -0.005346  -0.061009   0.335998   5.118611
    13  C    0.338595  -0.037940  -0.060267  -0.000282  -0.050686   0.371998
    14  H   -0.046601  -0.000743   0.004423  -0.000405   0.004195  -0.036309
    15  N   -0.057957   0.003901  -0.014651   0.001564  -0.013085  -0.082067
    16  C   -0.001782   0.000010  -0.001276  -0.000029   0.000029   0.002612
    17  H    0.001616  -0.000045  -0.000070   0.000001   0.000000   0.000000
    18  H   -0.021213  -0.004471   0.001327  -0.000083   0.000004  -0.000114
    19  H   -0.036854   0.004360   0.390235  -0.032068  -0.002214   0.000690
    20  H   -0.042426  -0.002074   0.399489  -0.035302   0.003932  -0.000416
    21  H    0.004601  -0.000076  -0.036363   0.402437  -0.034900   0.004350
    22  H   -0.004851   0.003560  -0.046962   0.397761  -0.045404  -0.001021
    23  H    0.000578   0.000035  -0.001960  -0.039015   0.399182  -0.037856
    24  H   -0.000130  -0.000102   0.004390  -0.038441   0.402346  -0.038700
    25  H    0.005154  -0.000024  -0.000423   0.004191  -0.033402   0.398276
    26  H   -0.003909   0.001686   0.000969  -0.002233  -0.041483   0.396742
    27  H   -0.000408   0.000009  -0.000058   0.000007   0.000012  -0.000036
              13         14         15         16         17         18
     1  O   -0.000025  -0.000004   0.000381   0.000846   0.000220   0.000001
     2  N   -0.000039  -0.000105   0.002366  -0.027253  -0.007232  -0.000050
     3  O   -0.000004   0.000001  -0.000016   0.002543   0.017394   0.000012
     4  C   -0.011567   0.002644  -0.063535   0.328468  -0.023150   0.001507
     5  C   -0.000588   0.006073  -0.006392  -0.050311   0.374510  -0.031444
     6  N   -0.047714  -0.006960   0.001597  -0.001854  -0.034174   0.338679
     7  C    0.338595  -0.046601  -0.057957  -0.001782   0.001616  -0.021213
     8  H   -0.037940  -0.000743   0.003901   0.000010  -0.000045  -0.004471
     9  C   -0.060267   0.004423  -0.014651  -0.001276  -0.000070   0.001327
    10  C   -0.000282  -0.000405   0.001564  -0.000029   0.000001  -0.000083
    11  C   -0.050686   0.004195  -0.013085   0.000029   0.000000   0.000004
    12  C    0.371998  -0.036309  -0.082067   0.002612   0.000000  -0.000114
    13  C    5.040406   0.403088   0.244789  -0.071110  -0.000009   0.002972
    14  H    0.403088   0.526734  -0.037358  -0.004539   0.000093  -0.000108
    15  N    0.244789  -0.037358   6.965141   0.585209  -0.000080  -0.000132
    16  C   -0.071110  -0.004539   0.585209   4.709808   0.002015  -0.000197
    17  H   -0.000009   0.000093  -0.000080   0.002015   0.376488  -0.002817
    18  H    0.002972  -0.000108  -0.000132  -0.000197  -0.002817   0.310594
    19  H   -0.007556   0.000106   0.007703   0.003003   0.000016  -0.000149
    20  H    0.004342  -0.000066   0.000127  -0.000037   0.000002   0.000807
    21  H   -0.000433   0.000010  -0.000041   0.000004  -0.000000   0.000001
    22  H    0.000045  -0.000055   0.000019  -0.000002   0.000000   0.000001
    23  H   -0.007526   0.000003   0.008591   0.000105   0.000000   0.000000
    24  H    0.004701  -0.000057   0.000136   0.000007   0.000000  -0.000000
    25  H   -0.035573  -0.002819   0.000411  -0.000022  -0.000000   0.000002
    26  H   -0.047419  -0.001045   0.004900  -0.000061   0.000000  -0.000000
    27  H    0.005065  -0.000174  -0.040313   0.403698  -0.000079   0.000001
              19         20         21         22         23         24
     1  O    0.000001   0.000000  -0.000000  -0.000000   0.000000   0.000000
     2  N   -0.000004  -0.000000   0.000000   0.000000  -0.000000   0.000000
     3  O    0.000000   0.000000   0.000000  -0.000000   0.000000   0.000000
     4  C   -0.001227  -0.000079   0.000001  -0.000000   0.000041   0.000000
     5  C    0.001233   0.000153   0.000001  -0.000003  -0.000000  -0.000000
     6  N   -0.000352  -0.000429  -0.000077  -0.000117  -0.000031   0.000006
     7  C   -0.036854  -0.042426   0.004601  -0.004851   0.000578  -0.000130
     8  H    0.004360  -0.002074  -0.000076   0.003560   0.000035  -0.000102
     9  C    0.390235   0.399489  -0.036363  -0.046962  -0.001960   0.004390
    10  C   -0.032068  -0.035302   0.402437   0.397761  -0.039015  -0.038441
    11  C   -0.002214   0.003932  -0.034900  -0.045404   0.399182   0.402346
    12  C    0.000690  -0.000416   0.004350  -0.001021  -0.037856  -0.038700
    13  C   -0.007556   0.004342  -0.000433   0.000045  -0.007526   0.004701
    14  H    0.000106  -0.000066   0.000010  -0.000055   0.000003  -0.000057
    15  N    0.007703   0.000127  -0.000041   0.000019   0.008591   0.000136
    16  C    0.003003  -0.000037   0.000004  -0.000002   0.000105   0.000007
    17  H    0.000016   0.000002  -0.000000   0.000000   0.000000   0.000000
    18  H   -0.000149   0.000807   0.000001   0.000001   0.000000  -0.000000
    19  H    0.504884  -0.024724  -0.002785   0.003959   0.001514  -0.000066
    20  H   -0.024724   0.541143  -0.002695  -0.002988  -0.000045  -0.000083
    21  H   -0.002785  -0.002695   0.524017  -0.027392  -0.002897  -0.002244
    22  H    0.003959  -0.002988  -0.027392   0.571306   0.004137  -0.003655
    23  H    0.001514  -0.000045  -0.002897   0.004137   0.498901  -0.025442
    24  H   -0.000066  -0.000083  -0.002244  -0.003655  -0.025442   0.538121
    25  H   -0.000029   0.000012  -0.000087  -0.000080  -0.002316  -0.002293
    26  H    0.000019  -0.000030  -0.000081   0.002380   0.004067  -0.003034
    27  H    0.000083   0.000000  -0.000000   0.000000  -0.000035  -0.000000
              25         26         27
     1  O    0.000000   0.000000   0.006112
     2  N   -0.000000  -0.000000  -0.000877
     3  O    0.000000   0.000000   0.000018
     4  C    0.000024   0.000006  -0.063448
     5  C    0.000000  -0.000002   0.002215
     6  N   -0.000091  -0.000060   0.000017
     7  C    0.005154  -0.003909  -0.000408
     8  H   -0.000024   0.001686   0.000009
     9  C   -0.000423   0.000969  -0.000058
    10  C    0.004191  -0.002233   0.000007
    11  C   -0.033402  -0.041483   0.000012
    12  C    0.398276   0.396742  -0.000036
    13  C   -0.035573  -0.047419   0.005065
    14  H   -0.002819  -0.001045  -0.000174
    15  N    0.000411   0.004900  -0.040313
    16  C   -0.000022  -0.000061   0.403698
    17  H   -0.000000   0.000000  -0.000079
    18  H    0.000002  -0.000000   0.000001
    19  H   -0.000029   0.000019   0.000083
    20  H    0.000012  -0.000030   0.000000
    21  H   -0.000087  -0.000081  -0.000000
    22  H   -0.000080   0.002380   0.000000
    23  H   -0.002316   0.004067  -0.000035
    24  H   -0.002293  -0.003034  -0.000000
    25  H    0.506112  -0.024068  -0.000013
    26  H   -0.024068   0.562303   0.000001
    27  H   -0.000013   0.000001   0.439392
 Mulliken charges:
               1
     1  O   -0.467192
     2  N    0.491110
     3  O   -0.504048
     4  C    0.000539
     5  C    0.188924
     6  N   -0.780269
     7  C    0.060234
     8  H    0.180105
     9  C   -0.301437
    10  C   -0.327956
    11  C   -0.321499
    12  C   -0.306659
    13  C   -0.037261
    14  H    0.189976
    15  N   -0.511206
    16  C    0.120117
    17  H    0.295301
    18  H    0.404872
    19  H    0.190221
    20  H    0.161387
    21  H    0.174649
    22  H    0.149363
    23  H    0.199969
    24  H    0.164540
    25  H    0.187057
    26  H    0.150352
    27  H    0.248812
 Sum of Mulliken charges =  -0.00000
 Mulliken charges with hydrogens summed into heavy atoms:
               1
     1  O   -0.467192
     2  N    0.491110
     3  O   -0.504048
     4  C    0.000539
     5  C    0.484225
     6  N   -0.375397
     7  C    0.240339
     9  C    0.050171
    10  C   -0.003944
    11  C    0.043011
    12  C    0.030749
    13  C    0.152715
    15  N   -0.511206
    16  C    0.368928
 Electronic spatial extent (au):  <R**2>=           3004.9946
 Charge=              0.0000 electrons
 Dipole moment (field-independent basis, Debye):
    X=              5.4158    Y=              4.7980    Z=              1.2776  Tot=              7.3474
 Quadrupole moment (field-independent basis, Debye-Ang):
   XX=           -106.1401   YY=            -79.2305   ZZ=            -81.4948
   XY=             -1.7711   XZ=             -0.1188   YZ=              1.8708
 Traceless Quadrupole moment (field-independent basis, Debye-Ang):
   XX=            -17.1850   YY=              9.7246   ZZ=              7.4604
   XY=             -1.7711   XZ=             -0.1188   YZ=              1.8708
 Octapole moment (field-independent basis, Debye-Ang**2):
  XXX=             92.3718  YYY=             36.3134  ZZZ=             -1.5594  XYY=             -4.5536
  XXY=              9.5651  XXZ=              4.8488  XZZ=             -9.7876  YZZ=             -0.3955
  YYZ=              7.9576  XYZ=              0.2021
 Hexadecapole moment (field-independent basis, Debye-Ang**3):
 XXXX=          -3381.5627 YYYY=           -601.1073 ZZZZ=           -303.7392 XXXY=            -21.1210
 XXXZ=            -12.5756 YYYX=             -9.1556 YYYZ=             25.1344 ZZZX=              2.5324
 ZZZY=              7.1980 XXYY=           -627.7842 XXZZ=           -523.6381 YYZZ=           -157.3144
 XXYZ=             -4.0555 YYXZ=              1.9540 ZZXY=              4.6710
 N-N= 9.312716772853D+02 E-N=-3.409261063241D+03  KE= 6.596303826021D+02
 Calling FoFJK, ICntrl=  10002127 FMM=F ISym2X=0 I1Cent= 0 IOpClX= 0 NMat=1 NMatS=1 NMatT=0.
 ***** Axes restored to original set *****
 -------------------------------------------------------------------
 Center     Atomic                   Forces (Hartrees/Bohr)
 Number     Number              X              Y              Z
 -------------------------------------------------------------------
      1        8          -0.000034977   -0.000085731    0.000078780
      2        7           0.000110772    0.000032471   -0.000029855
      3        8          -0.000050151    0.000064368   -0.000057906
      4        6           0.000011040   -0.000012076    0.000011891
      5        6          -0.000012223    0.000025987   -0.000024821
      6        7          -0.000009846   -0.000012319    0.000011672
      7        6           0.000054053   -0.000001742   -0.000037495
      8        1          -0.000016887   -0.000007984    0.000025727
      9        6          -0.000042583    0.000029298    0.000027192
     10        6           0.000035293    0.000014556   -0.000016571
     11        6          -0.000000749   -0.000016246    0.000047439
     12        6           0.000029064   -0.000023847   -0.000029327
     13        6          -0.000070411   -0.000003524    0.000006168
     14        1           0.000025854    0.000023305    0.000024624
     15        7           0.000019523    0.000023155   -0.000007446
     16        6          -0.000022472   -0.000023785   -0.000008660
     17        1           0.000026310   -0.000028470    0.000036238
     18        1          -0.000007465   -0.000017094    0.000019007
     19        1           0.000017749   -0.000013902   -0.000019475
     20        1          -0.000001596   -0.000037979   -0.000002259
     21        1          -0.000023745   -0.000017293   -0.000020081
     22        1          -0.000024680   -0.000007904    0.000017013
     23        1           0.000008656    0.000007885   -0.000028403
     24        1          -0.000026774    0.000013690   -0.000014173
     25        1          -0.000004827    0.000036118   -0.000002384
     26        1          -0.000020085    0.000012118    0.000025861
     27        1           0.000031158    0.000026946   -0.000032758
 -------------------------------------------------------------------
 Cartesian Forces:  Max     0.000110772 RMS     0.000031607

 GradGradGradGradGradGradGradGradGradGradGradGradGradGradGradGradGradGrad
 Berny optimization.
 FormGI is forming the generalized inverse of G from B-inverse, IUseBI=4.
 Internal  Forces:  Max     0.000120139 RMS     0.000018878
 Search for a local minimum.
 Step number   1 out of a maximum of  162
 All quantities printed in internal units (Hartrees-Bohrs-Radians)
 Mixed Optimization -- En-DIIS/RFO-DIIS
 Second derivative matrix not updated -- first step.
 ITU=  0
     Eigenvalues ---    0.00562   0.00577   0.00935   0.00984   0.00986
     Eigenvalues ---    0.01430   0.01595   0.01749   0.01868   0.01968
     Eigenvalues ---    0.02082   0.02245   0.02439   0.02469   0.03974
     Eigenvalues ---    0.04033   0.04186   0.04579   0.04829   0.04850
     Eigenvalues ---    0.05014   0.05231   0.05596   0.05673   0.06235
     Eigenvalues ---    0.06739   0.07685   0.07698   0.07891   0.08114
     Eigenvalues ---    0.08183   0.08245   0.09159   0.12062   0.12352
     Eigenvalues ---    0.13305   0.15910   0.15993   0.15999   0.16808
     Eigenvalues ---    0.18127   0.20598   0.22217   0.23184   0.24776
     Eigenvalues ---    0.25000   0.25000   0.25834   0.27536   0.28004
     Eigenvalues ---    0.28849   0.29149   0.29533   0.33515   0.33628
     Eigenvalues ---    0.33760   0.33821   0.34008   0.34082   0.34132
     Eigenvalues ---    0.34222   0.34249   0.34305   0.34857   0.35218
     Eigenvalues ---    0.35480   0.36074   0.37792   0.37863   0.45448
     Eigenvalues ---    0.49137   0.55264   0.66816   0.84494   0.84572
 RFO step:  Lambda=-2.61496520D-07 EMin= 5.62166940D-03
 Linear search not attempted -- first point.
 Iteration  1 RMS(Cart)=  0.00039982 RMS(Int)=  0.00000010
 Iteration  2 RMS(Cart)=  0.00000012 RMS(Int)=  0.00000002
 Variable       Old X    -DE/DX   Delta X   Delta X   Delta X     New X
                                 (Linear)    (Quad)   (Total)
    R1        2.35579  -0.00012   0.00000  -0.00014  -0.00014   2.35565
    R2        2.35540  -0.00010   0.00000  -0.00012  -0.00012   2.35528
    R3        2.74669   0.00003   0.00000   0.00007   0.00007   2.74676
    R4        2.59067   0.00003   0.00000   0.00006   0.00006   2.59073
    R5        2.73969   0.00004   0.00000   0.00009   0.00009   2.73978
    R6        2.53533   0.00004   0.00000   0.00006   0.00006   2.53538
    R7        2.05322   0.00005   0.00000   0.00015   0.00015   2.05337
    R8        2.75324   0.00002   0.00000   0.00007   0.00007   2.75330
    R9        1.91459   0.00003   0.00000   0.00006   0.00006   1.91464
   R10        2.07962   0.00003   0.00000   0.00009   0.00009   2.07971
   R11        2.88652   0.00003   0.00000   0.00011   0.00011   2.88663
   R12        2.91342   0.00003   0.00000   0.00014   0.00014   2.91356
   R13        2.89712   0.00002   0.00000   0.00005   0.00005   2.89717
   R14        2.06958   0.00003   0.00000   0.00008   0.00008   2.06966
   R15        2.07316   0.00004   0.00000   0.00011   0.00011   2.07326
   R16        2.89318   0.00002   0.00000   0.00004   0.00004   2.89322
   R17        2.07107   0.00003   0.00000   0.00010   0.00010   2.07117
   R18        2.07736   0.00003   0.00000   0.00009   0.00009   2.07745
   R19        2.89171   0.00002   0.00000   0.00005   0.00005   2.89176
   R20        2.06818   0.00003   0.00000   0.00009   0.00009   2.06827
   R21        2.07192   0.00003   0.00000   0.00009   0.00009   2.07201
   R22        2.89676   0.00002   0.00000   0.00007   0.00007   2.89684
   R23        2.06911   0.00003   0.00000   0.00010   0.00010   2.06921
   R24        2.07633   0.00003   0.00000   0.00010   0.00010   2.07643
   R25        2.08156   0.00004   0.00000   0.00012   0.00012   2.08168
   R26        2.75819   0.00004   0.00000   0.00013   0.00013   2.75833
   R27        2.44600   0.00003   0.00000   0.00005   0.00005   2.44605
   R28        2.05908   0.00005   0.00000   0.00014   0.00014   2.05922
    A1        2.15617  -0.00002   0.00000  -0.00006  -0.00006   2.15611
    A2        2.04157   0.00002   0.00000   0.00009   0.00009   2.04166
    A3        2.08536  -0.00001   0.00000  -0.00003  -0.00003   2.08533
    A4        2.01227   0.00001   0.00000   0.00003   0.00003   2.01230
    A5        2.03430  -0.00000   0.00000   0.00001   0.00001   2.03431
    A6        2.22673  -0.00000   0.00000  -0.00001  -0.00001   2.22672
    A7        2.23905   0.00001   0.00000   0.00003   0.00003   2.23908
    A8        2.03605   0.00001   0.00000   0.00005   0.00005   2.03610
    A9        2.00800  -0.00001   0.00000  -0.00008  -0.00008   2.00792
   A10        2.24004  -0.00000   0.00000   0.00001   0.00001   2.24004
   A11        2.01243   0.00000   0.00000   0.00000   0.00000   2.01244
   A12        2.02469  -0.00000   0.00000  -0.00003  -0.00003   2.02466
   A13        1.83247  -0.00001   0.00000  -0.00020  -0.00020   1.83227
   A14        1.99544   0.00001   0.00000   0.00012   0.00012   1.99556
   A15        1.95770   0.00000   0.00000   0.00010   0.00010   1.95780
   A16        1.87816  -0.00001   0.00000  -0.00018  -0.00018   1.87798
   A17        1.87120   0.00000   0.00000  -0.00006  -0.00006   1.87113
   A18        1.92086  -0.00000   0.00000   0.00016   0.00016   1.92102
   A19        1.89875   0.00000   0.00000   0.00010   0.00010   1.89885
   A20        1.90361  -0.00000   0.00000   0.00000   0.00000   1.90361
   A21        1.91777   0.00001   0.00000   0.00005   0.00005   1.91782
   A22        1.93503   0.00000   0.00000   0.00001   0.00001   1.93505
   A23        1.93129  -0.00000   0.00000  -0.00002  -0.00002   1.93127
   A24        1.87722  -0.00001   0.00000  -0.00015  -0.00015   1.87708
   A25        1.95624   0.00000   0.00000   0.00005   0.00005   1.95629
   A26        1.91578   0.00000   0.00000   0.00005   0.00005   1.91582
   A27        1.89625   0.00000   0.00000  -0.00000  -0.00000   1.89625
   A28        1.92393   0.00000   0.00000   0.00003   0.00003   1.92396
   A29        1.91021  -0.00000   0.00000  -0.00001  -0.00001   1.91020
   A30        1.85864  -0.00001   0.00000  -0.00012  -0.00012   1.85853
   A31        1.95218   0.00001   0.00000   0.00009   0.00009   1.95227
   A32        1.91136  -0.00000   0.00000  -0.00001  -0.00001   1.91135
   A33        1.91697  -0.00000   0.00000   0.00000   0.00000   1.91697
   A34        1.88820  -0.00000   0.00000  -0.00001  -0.00001   1.88819
   A35        1.92039   0.00000   0.00000   0.00003   0.00003   1.92042
   A36        1.87281  -0.00000   0.00000  -0.00011  -0.00011   1.87271
   A37        1.92133   0.00000   0.00000   0.00011   0.00011   1.92144
   A38        1.92467   0.00000   0.00000  -0.00000  -0.00000   1.92467
   A39        1.93087  -0.00000   0.00000  -0.00004  -0.00004   1.93083
   A40        1.89584   0.00000   0.00000   0.00006   0.00006   1.89590
   A41        1.91569   0.00000   0.00000   0.00000   0.00000   1.91569
   A42        1.87457  -0.00001   0.00000  -0.00014  -0.00014   1.87444
   A43        1.87539   0.00000   0.00000   0.00014   0.00014   1.87553
   A44        1.88868   0.00000   0.00000  -0.00003  -0.00003   1.88865
   A45        1.98601  -0.00000   0.00000   0.00007   0.00007   1.98608
   A46        1.93578  -0.00000   0.00000  -0.00005  -0.00005   1.93573
   A47        1.86218   0.00001   0.00000   0.00006   0.00006   1.86224
   A48        1.91586  -0.00001   0.00000  -0.00019  -0.00019   1.91568
   A49        2.08420   0.00001   0.00000   0.00013   0.00013   2.08434
   A50        2.22786  -0.00001   0.00000  -0.00001  -0.00001   2.22786
   A51        2.02256   0.00001   0.00000   0.00002   0.00002   2.02257
   A52        2.03205   0.00001   0.00000   0.00002   0.00002   2.03207
    D1       -3.13360  -0.00001   0.00000  -0.00097  -0.00097  -3.13457
    D2        0.14698  -0.00001   0.00000  -0.00115  -0.00115   0.14583
    D3       -0.00582  -0.00001   0.00000  -0.00069  -0.00069  -0.00651
    D4       -3.00843  -0.00001   0.00000  -0.00087  -0.00087  -3.00931
    D5       -3.09757  -0.00000   0.00000  -0.00015  -0.00015  -3.09772
    D6        0.02859  -0.00000   0.00000  -0.00008  -0.00008   0.02851
    D7       -0.11299   0.00000   0.00000   0.00006   0.00006  -0.11293
    D8        3.01317   0.00000   0.00000   0.00013   0.00013   3.01330
    D9       -2.83431   0.00001   0.00000   0.00035   0.00035  -2.83397
   D10        0.34965  -0.00001   0.00000  -0.00055  -0.00055   0.34910
   D11        0.46600   0.00000   0.00000   0.00013   0.00013   0.46613
   D12       -2.63323  -0.00002   0.00000  -0.00076  -0.00076  -2.63399
   D13       -0.11158  -0.00000   0.00000  -0.00013  -0.00013  -0.11171
   D14       -3.12955  -0.00000   0.00000   0.00007   0.00007  -3.12948
   D15        3.04523  -0.00000   0.00000  -0.00019  -0.00019   3.04504
   D16        0.02726  -0.00000   0.00000   0.00001   0.00001   0.02728
   D17       -2.51729  -0.00000   0.00000   0.00027   0.00027  -2.51702
   D18        1.71166   0.00001   0.00000   0.00055   0.00055   1.71220
   D19       -0.49101  -0.00000   0.00000   0.00013   0.00013  -0.49088
   D20        0.49995  -0.00000   0.00000   0.00007   0.00007   0.50001
   D21       -1.55429   0.00001   0.00000   0.00034   0.00034  -1.55395
   D22        2.52623  -0.00000   0.00000  -0.00007  -0.00007   2.52615
   D23        2.99276  -0.00000   0.00000  -0.00004  -0.00004   2.99273
   D24       -1.17774  -0.00000   0.00000   0.00004   0.00004  -1.17770
   D25        0.87600  -0.00001   0.00000  -0.00011  -0.00011   0.87589
   D26        0.96482   0.00000   0.00000   0.00025   0.00025   0.96506
   D27        3.07750   0.00001   0.00000   0.00033   0.00033   3.07782
   D28       -1.15194  -0.00000   0.00000   0.00018   0.00018  -1.15177
   D29       -1.06870   0.00001   0.00000   0.00033   0.00033  -1.06837
   D30        1.04398   0.00001   0.00000   0.00041   0.00041   1.04439
   D31        3.09772   0.00000   0.00000   0.00026   0.00026   3.09798
   D32       -2.91602   0.00001   0.00000  -0.00007  -0.00007  -2.91609
   D33       -0.82470   0.00001   0.00000  -0.00006  -0.00006  -0.82476
   D34        1.30968  -0.00000   0.00000  -0.00028  -0.00028   1.30941
   D35       -0.91326   0.00000   0.00000  -0.00029  -0.00029  -0.91355
   D36        1.17806   0.00000   0.00000  -0.00028  -0.00028   1.17778
   D37       -2.97074  -0.00001   0.00000  -0.00050  -0.00050  -2.97124
   D38        1.12461  -0.00001   0.00000  -0.00044  -0.00044   1.12417
   D39       -3.06725  -0.00001   0.00000  -0.00044  -0.00044  -3.06769
   D40       -0.93287  -0.00002   0.00000  -0.00065  -0.00065  -0.93352
   D41        0.95694  -0.00000   0.00000  -0.00017  -0.00017   0.95677
   D42        3.10101  -0.00000   0.00000  -0.00007  -0.00007   3.10094
   D43       -1.15618  -0.00000   0.00000  -0.00018  -0.00018  -1.15636
   D44       -1.13636  -0.00001   0.00000  -0.00024  -0.00024  -1.13660
   D45        1.00772  -0.00000   0.00000  -0.00014  -0.00014   1.00758
   D46        3.03371  -0.00001   0.00000  -0.00026  -0.00026   3.03346
   D47        3.06540   0.00000   0.00000  -0.00006  -0.00006   3.06535
   D48       -1.07370   0.00001   0.00000   0.00004   0.00004  -1.07366
   D49        0.95229   0.00000   0.00000  -0.00007  -0.00007   0.95222
   D50       -0.92210   0.00000   0.00000   0.00009   0.00009  -0.92201
   D51        1.17098   0.00000   0.00000   0.00012   0.00012   1.17110
   D52       -3.05970  -0.00000   0.00000  -0.00002  -0.00002  -3.05972
   D53       -3.06156  -0.00000   0.00000  -0.00003  -0.00003  -3.06158
   D54       -0.96848  -0.00000   0.00000   0.00001   0.00001  -0.96847
   D55        1.08402  -0.00001   0.00000  -0.00013  -0.00013   1.08390
   D56        1.18294   0.00000   0.00000   0.00011   0.00011   1.18305
   D57       -3.00716   0.00001   0.00000   0.00014   0.00014  -3.00702
   D58       -0.95466  -0.00000   0.00000   0.00001   0.00001  -0.95465
   D59        0.97181  -0.00000   0.00000  -0.00018  -0.00018   0.97163
   D60        3.06340   0.00000   0.00000  -0.00003  -0.00003   3.06337
   D61       -1.14854  -0.00000   0.00000  -0.00023  -0.00023  -1.14877
   D62       -1.13479  -0.00001   0.00000  -0.00022  -0.00022  -1.13500
   D63        0.95680   0.00000   0.00000  -0.00007  -0.00007   0.95673
   D64        3.02805  -0.00001   0.00000  -0.00027  -0.00027   3.02778
   D65        3.10746  -0.00000   0.00000  -0.00009  -0.00009   3.10737
   D66       -1.08414   0.00001   0.00000   0.00005   0.00005  -1.08408
   D67        0.98711  -0.00000   0.00000  -0.00015  -0.00015   0.98697
   D68       -1.05674   0.00001   0.00000   0.00037   0.00037  -1.05637
   D69       -3.11781   0.00000   0.00000   0.00035   0.00035  -3.11746
   D70        1.07945   0.00001   0.00000   0.00056   0.00056   1.08002
   D71        3.11746   0.00000   0.00000   0.00027   0.00027   3.11773
   D72        1.05639  -0.00000   0.00000   0.00024   0.00024   1.05664
   D73       -1.02953   0.00000   0.00000   0.00046   0.00046  -1.02907
   D74        1.07264   0.00000   0.00000   0.00040   0.00040   1.07304
   D75       -0.98843  -0.00000   0.00000   0.00037   0.00037  -0.98806
   D76       -3.07436   0.00001   0.00000   0.00059   0.00059  -3.07377
   D77       -1.17272   0.00001   0.00000   0.00038   0.00038  -1.17234
   D78        3.04539  -0.00000   0.00000   0.00012   0.00012   3.04551
   D79        0.94661   0.00000   0.00000   0.00025   0.00025   0.94686
   D80        0.15102  -0.00001   0.00000  -0.00029  -0.00029   0.15073
   D81       -3.03314   0.00001   0.00000   0.00060   0.00060  -3.03254
         Item               Value     Threshold  Converged?
 Maximum Force            0.000120     0.000450     YES
 RMS     Force            0.000019     0.000300     YES
 Maximum Displacement     0.001694     0.001800     YES
 RMS     Displacement     0.000400     0.001200     YES
 Predicted change in Energy=-1.307557D-07
 Optimization completed.
    -- Stationary point found.
                           ----------------------------
                           !   Optimized Parameters   !
                           ! (Angstroms and Degrees)  !
 --------------------------                            --------------------------
 ! Name  Definition              Value          Derivative Info.                !
 --------------------------------------------------------------------------------
 ! R1    R(1,2)                  1.2466         -DE/DX =   -0.0001              !
 ! R2    R(2,3)                  1.2464         -DE/DX =   -0.0001              !
 ! R3    R(2,4)                  1.4535         -DE/DX =    0.0                 !
 ! R4    R(4,5)                  1.3709         -DE/DX =    0.0                 !
 ! R5    R(4,16)                 1.4498         -DE/DX =    0.0                 !
 ! R6    R(5,6)                  1.3416         -DE/DX =    0.0                 !
 ! R7    R(5,17)                 1.0865         -DE/DX =    0.0001              !
 ! R8    R(6,7)                  1.4569         -DE/DX =    0.0                 !
 ! R9    R(6,18)                 1.0132         -DE/DX =    0.0                 !
 ! R10   R(7,8)                  1.1005         -DE/DX =    0.0                 !
 ! R11   R(7,9)                  1.5275         -DE/DX =    0.0                 !
 ! R12   R(7,13)                 1.5417         -DE/DX =    0.0                 !
 ! R13   R(9,10)                 1.5331         -DE/DX =    0.0                 !
 ! R14   R(9,19)                 1.0952         -DE/DX =    0.0                 !
 ! R15   R(9,20)                 1.0971         -DE/DX =    0.0                 !
 ! R16   R(10,11)                1.531          -DE/DX =    0.0                 !
 ! R17   R(10,21)                1.096          -DE/DX =    0.0                 !
 ! R18   R(10,22)                1.0993         -DE/DX =    0.0                 !
 ! R19   R(11,12)                1.5302         -DE/DX =    0.0                 !
 ! R20   R(11,23)                1.0944         -DE/DX =    0.0                 !
 ! R21   R(11,24)                1.0964         -DE/DX =    0.0                 !
 ! R22   R(12,13)                1.5329         -DE/DX =    0.0                 !
 ! R23   R(12,25)                1.0949         -DE/DX =    0.0                 !
 ! R24   R(12,26)                1.0987         -DE/DX =    0.0                 !
 ! R25   R(13,14)                1.1015         -DE/DX =    0.0                 !
 ! R26   R(13,15)                1.4596         -DE/DX =    0.0                 !
 ! R27   R(15,16)                1.2944         -DE/DX =    0.0                 !
 ! R28   R(16,27)                1.0896         -DE/DX =    0.0                 !
 ! A1    A(1,2,3)              123.5395         -DE/DX =    0.0                 !
 ! A2    A(1,2,4)              116.9732         -DE/DX =    0.0                 !
 ! A3    A(3,2,4)              119.4822         -DE/DX =    0.0                 !
 ! A4    A(2,4,5)              115.2947         -DE/DX =    0.0                 !
 ! A5    A(2,4,16)             116.5571         -DE/DX =    0.0                 !
 ! A6    A(5,4,16)             127.5823         -DE/DX =    0.0                 !
 ! A7    A(4,5,6)              128.2882         -DE/DX =    0.0                 !
 ! A8    A(4,5,17)             116.6568         -DE/DX =    0.0                 !
 ! A9    A(6,5,17)             115.0497         -DE/DX =    0.0                 !
 ! A10   A(5,6,7)              128.3446         -DE/DX =    0.0                 !
 ! A11   A(5,6,18)             115.3038         -DE/DX =    0.0                 !
 ! A12   A(7,6,18)             116.0061         -DE/DX =    0.0                 !
 ! A13   A(6,7,8)              104.9927         -DE/DX =    0.0                 !
 ! A14   A(6,7,9)              114.3301         -DE/DX =    0.0                 !
 ! A15   A(6,7,13)             112.1681         -DE/DX =    0.0                 !
 ! A16   A(8,7,9)              107.6107         -DE/DX =    0.0                 !
 ! A17   A(8,7,13)             107.2116         -DE/DX =    0.0                 !
 ! A18   A(9,7,13)             110.0571         -DE/DX =    0.0                 !
 ! A19   A(7,9,10)             108.7905         -DE/DX =    0.0                 !
 ! A20   A(7,9,19)             109.069          -DE/DX =    0.0                 !
 ! A21   A(7,9,20)             109.8804         -DE/DX =    0.0                 !
 ! A22   A(10,9,19)            110.8692         -DE/DX =    0.0                 !
 ! A23   A(10,9,20)            110.6548         -DE/DX =    0.0                 !
 ! A24   A(19,9,20)            107.5569         -DE/DX =    0.0                 !
 ! A25   A(9,10,11)            112.0842         -DE/DX =    0.0                 !
 ! A26   A(9,10,21)            109.766          -DE/DX =    0.0                 !
 ! A27   A(9,10,22)            108.6473         -DE/DX =    0.0                 !
 ! A28   A(11,10,21)           110.233          -DE/DX =    0.0                 !
 ! A29   A(11,10,22)           109.4472         -DE/DX =    0.0                 !
 ! A30   A(21,10,22)           106.4924         -DE/DX =    0.0                 !
 ! A31   A(10,11,12)           111.8515         -DE/DX =    0.0                 !
 ! A32   A(10,11,23)           109.5127         -DE/DX =    0.0                 !
 ! A33   A(10,11,24)           109.8341         -DE/DX =    0.0                 !
 ! A34   A(12,11,23)           108.1862         -DE/DX =    0.0                 !
 ! A35   A(12,11,24)           110.0301         -DE/DX =    0.0                 !
 ! A36   A(23,11,24)           107.3043         -DE/DX =    0.0                 !
 ! A37   A(11,12,13)           110.0841         -DE/DX =    0.0                 !
 ! A38   A(11,12,25)           110.2757         -DE/DX =    0.0                 !
 ! A39   A(11,12,26)           110.6306         -DE/DX =    0.0                 !
 ! A40   A(13,12,25)           108.6236         -DE/DX =    0.0                 !
 ! A41   A(13,12,26)           109.7608         -DE/DX =    0.0                 !
 ! A42   A(25,12,26)           107.4052         -DE/DX =    0.0                 !
 ! A43   A(7,13,12)            107.4519         -DE/DX =    0.0                 !
 ! A44   A(7,13,14)            108.2133         -DE/DX =    0.0                 !
 ! A45   A(7,13,15)            113.7901         -DE/DX =    0.0                 !
 ! A46   A(12,13,14)           110.912          -DE/DX =    0.0                 !
 ! A47   A(12,13,15)           106.6951         -DE/DX =    0.0                 !
 ! A48   A(14,13,15)           109.7709         -DE/DX =    0.0                 !
 ! A49   A(13,15,16)           119.4161         -DE/DX =    0.0                 !
 ! A50   A(4,16,15)            127.6471         -DE/DX =    0.0                 !
 ! A51   A(4,16,27)            115.8839         -DE/DX =    0.0                 !
 ! A52   A(15,16,27)           116.4281         -DE/DX =    0.0                 !
 ! D1    D(1,2,4,5)           -179.5419         -DE/DX =    0.0                 !
 ! D2    D(1,2,4,16)             8.4211         -DE/DX =    0.0                 !
 ! D3    D(3,2,4,5)             -0.3336         -DE/DX =    0.0                 !
 ! D4    D(3,2,4,16)          -172.3706         -DE/DX =    0.0                 !
 ! D5    D(2,4,5,6)           -177.4778         -DE/DX =    0.0                 !
 ! D6    D(2,4,5,17)             1.6381         -DE/DX =    0.0                 !
 ! D7    D(16,4,5,6)            -6.4738         -DE/DX =    0.0                 !
 ! D8    D(16,4,5,17)          172.6421         -DE/DX =    0.0                 !
 ! D9    D(2,4,16,15)         -162.3942         -DE/DX =    0.0                 !
 ! D10   D(2,4,16,27)           20.0335         -DE/DX =    0.0                 !
 ! D11   D(5,4,16,15)           26.6996         -DE/DX =    0.0                 !
 ! D12   D(5,4,16,27)         -150.8728         -DE/DX =    0.0                 !
 ! D13   D(4,5,6,7)             -6.3932         -DE/DX =    0.0                 !
 ! D14   D(4,5,6,18)          -179.3101         -DE/DX =    0.0                 !
 ! D15   D(17,5,6,7)           174.479          -DE/DX =    0.0                 !
 ! D16   D(17,5,6,18)            1.5621         -DE/DX =    0.0                 !
 ! D17   D(5,6,7,8)           -144.23           -DE/DX =    0.0                 !
 ! D18   D(5,6,7,9)             98.0708         -DE/DX =    0.0                 !
 ! D19   D(5,6,7,13)           -28.1326         -DE/DX =    0.0                 !
 ! D20   D(18,6,7,8)            28.6448         -DE/DX =    0.0                 !
 ! D21   D(18,6,7,9)           -89.0544         -DE/DX =    0.0                 !
 ! D22   D(18,6,7,13)          144.7422         -DE/DX =    0.0                 !
 ! D23   D(6,7,9,10)           171.4727         -DE/DX =    0.0                 !
 ! D24   D(6,7,9,19)           -67.4796         -DE/DX =    0.0                 !
 ! D25   D(6,7,9,20)            50.1913         -DE/DX =    0.0                 !
 ! D26   D(8,7,9,10)            55.2799         -DE/DX =    0.0                 !
 ! D27   D(8,7,9,19)           176.3276         -DE/DX =    0.0                 !
 ! D28   D(8,7,9,20)           -66.0016         -DE/DX =    0.0                 !
 ! D29   D(13,7,9,10)          -61.2323         -DE/DX =    0.0                 !
 ! D30   D(13,7,9,19)           59.8154         -DE/DX =    0.0                 !
 ! D31   D(13,7,9,20)          177.4863         -DE/DX =    0.0                 !
 ! D32   D(6,7,13,12)         -167.0758         -DE/DX =    0.0                 !
 ! D33   D(6,7,13,14)          -47.2521         -DE/DX =    0.0                 !
 ! D34   D(6,7,13,15)           75.0393         -DE/DX =    0.0                 !
 ! D35   D(8,7,13,12)          -52.326          -DE/DX =    0.0                 !
 ! D36   D(8,7,13,14)           67.4977         -DE/DX =    0.0                 !
 ! D37   D(8,7,13,15)         -170.2109         -DE/DX =    0.0                 !
 ! D38   D(9,7,13,12)           64.4356         -DE/DX =    0.0                 !
 ! D39   D(9,7,13,14)         -175.7407         -DE/DX =    0.0                 !
 ! D40   D(9,7,13,15)          -53.4493         -DE/DX =    0.0                 !
 ! D41   D(7,9,10,11)           54.8284         -DE/DX =    0.0                 !
 ! D42   D(7,9,10,21)          177.6749         -DE/DX =    0.0                 !
 ! D43   D(7,9,10,22)          -66.2442         -DE/DX =    0.0                 !
 ! D44   D(19,9,10,11)         -65.1084         -DE/DX =    0.0                 !
 ! D45   D(19,9,10,21)          57.7381         -DE/DX =    0.0                 !
 ! D46   D(19,9,10,22)         173.819          -DE/DX =    0.0                 !
 ! D47   D(20,9,10,11)         175.6347         -DE/DX =    0.0                 !
 ! D48   D(20,9,10,21)         -61.5188         -DE/DX =    0.0                 !
 ! D49   D(20,9,10,22)          54.5621         -DE/DX =    0.0                 !
 ! D50   D(9,10,11,12)         -52.8324         -DE/DX =    0.0                 !
 ! D51   D(9,10,11,23)          67.0923         -DE/DX =    0.0                 !
 ! D52   D(9,10,11,24)        -175.3081         -DE/DX =    0.0                 !
 ! D53   D(21,10,11,12)       -175.4142         -DE/DX =    0.0                 !
 ! D54   D(21,10,11,23)        -55.4896         -DE/DX =    0.0                 !
 ! D55   D(21,10,11,24)         62.11           -DE/DX =    0.0                 !
 ! D56   D(22,10,11,12)         67.7777         -DE/DX =    0.0                 !
 ! D57   D(22,10,11,23)       -172.2976         -DE/DX =    0.0                 !
 ! D58   D(22,10,11,24)        -54.698          -DE/DX =    0.0                 !
 ! D59   D(10,11,12,13)         55.6807         -DE/DX =    0.0                 !
 ! D60   D(10,11,12,25)        175.5197         -DE/DX =    0.0                 !
 ! D61   D(10,11,12,26)        -65.8064         -DE/DX =    0.0                 !
 ! D62   D(23,11,12,13)        -65.0185         -DE/DX =    0.0                 !
 ! D63   D(23,11,12,25)         54.8205         -DE/DX =    0.0                 !
 ! D64   D(23,11,12,26)        173.4943         -DE/DX =    0.0                 !
 ! D65   D(24,11,12,13)        178.0446         -DE/DX =    0.0                 !
 ! D66   D(24,11,12,25)        -62.1164         -DE/DX =    0.0                 !
 ! D67   D(24,11,12,26)         56.5574         -DE/DX =    0.0                 !
 ! D68   D(11,12,13,7)         -60.5467         -DE/DX =    0.0                 !
 ! D69   D(11,12,13,14)       -178.6371         -DE/DX =    0.0                 !
 ! D70   D(11,12,13,15)         61.848          -DE/DX =    0.0                 !
 ! D71   D(25,12,13,7)         178.6174         -DE/DX =    0.0                 !
 ! D72   D(25,12,13,14)         60.527          -DE/DX =    0.0                 !
 ! D73   D(25,12,13,15)        -58.9879         -DE/DX =    0.0                 !
 ! D74   D(26,12,13,7)          61.4577         -DE/DX =    0.0                 !
 ! D75   D(26,12,13,14)        -56.6327         -DE/DX =    0.0                 !
 ! D76   D(26,12,13,15)       -176.1476         -DE/DX =    0.0                 !
 ! D77   D(7,13,15,16)         -67.1919         -DE/DX =    0.0                 !
 ! D78   D(12,13,15,16)        174.4879         -DE/DX =    0.0                 !
 ! D79   D(14,13,15,16)         54.2369         -DE/DX =    0.0                 !
 ! D80   D(13,15,16,4)           8.653          -DE/DX =    0.0                 !
 ! D81   D(13,15,16,27)       -173.7861         -DE/DX =    0.0                 !
 --------------------------------------------------------------------------------
 GradGradGradGradGradGradGradGradGradGradGradGradGradGradGradGradGradGrad

                          Input orientation:                          
 ---------------------------------------------------------------------
 Center     Atomic      Atomic             Coordinates (Angstroms)
 Number     Number       Type             X           Y           Z
 ---------------------------------------------------------------------
      1          8           0        3.526230    0.704059   -0.783780
      2          7           0        3.016299   -0.062522    0.056705
      3          8           0        3.682544   -0.781731    0.826399
      4          6           0        1.565002   -0.085466    0.133102
      5          6           0        1.041340   -0.932697    1.075126
      6          7           0       -0.249243   -1.191694    1.334559
      7          6           0       -1.430552   -0.549958    0.772968
      8          1           0       -2.157550   -0.519386    1.598565
      9          6           0       -2.074056   -1.315920   -0.381329
     10          6           0       -3.410173   -0.650638   -0.731401
     11          6           0       -3.248534    0.841578   -1.033300
     12          6           0       -2.511935    1.573538    0.090643
     13          6           0       -1.156239    0.907711    0.352453
     14          1           0       -0.624375    1.409424    1.176306
     15          7           0       -0.384237    1.029539   -0.880237
     16          6           0        0.850069    0.640250   -0.898434
     17          1           0        1.752537   -1.480034    1.687613
     18          1           0       -0.416207   -1.848592    2.087613
     19          1           0       -1.395430   -1.304319   -1.240828
     20          1           0       -2.226915   -2.363735   -0.094488
     21          1           0       -3.866640   -1.162966   -1.585974
     22          1           0       -4.099737   -0.780242    0.114854
     23          1           0       -2.674605    0.967671   -1.956607
     24          1           0       -4.232543    1.296889   -1.196211
     25          1           0       -2.340436    2.618970   -0.185990
     26          1           0       -3.110947    1.571313    1.011744
     27          1           0        1.410912    0.848585   -1.809108
 ---------------------------------------------------------------------
                    Distance matrix (angstroms):
                    1          2          3          4          5
     1  O    0.000000
     2  N    1.246632   0.000000
     3  O    2.196517   1.246425   0.000000
     4  C    2.304439   1.453488   2.334402   0.000000
     5  C    3.508444   2.386388   2.657182   1.370923   0.000000
     6  N    4.726038   3.683980   3.985630   2.441049   1.341637
     7  C    5.344690   4.530465   5.118626   3.098148   2.519532
     8  H    6.283131   5.418004   5.896759   4.024085   3.267677
     9  C    5.967033   5.260665   5.906133   3.875744   3.460320
    10  C    7.067647   6.501272   7.262959   5.081255   4.812387
    11  C    6.780752   6.422900   7.357545   5.038852   5.098680
    12  C    6.162795   5.765346   6.667849   4.401762   4.458272
    13  C    4.822656   4.294053   5.147102   2.905110   2.956131
    14  H    4.644028   4.083459   4.844909   2.848919   2.875826
    15  N    3.925175   3.692439   4.767811   2.463661   3.115459
    16  C    2.679375   2.469561   3.608323   1.449779   2.530946
    17  H    3.744867   2.503257   2.225813   2.096782   1.086517
    18  H    5.504883   4.369981   4.419119   3.294528   1.997108
    19  H    5.335280   4.763298   5.507481   3.483883   3.382247
    20  H    6.556307   5.727979   6.186476   4.429553   3.754645
    21  H    7.667061   7.161301   7.934423   5.798186   5.587732
    22  H    7.820873   7.152375   7.814742   5.707215   5.232211
    23  H    6.316278   6.123815   7.156737   4.842545   5.158590
    24  H    7.792311   7.480877   8.429723   6.106513   6.159860
    25  H    6.200161   5.995324   6.990421   4.761117   5.063711
    26  H    6.930234   6.412851   7.191849   5.037998   4.849286
    27  H    2.355155   2.624622   3.842414   2.160642   3.410036
                    6          7          8          9         10
     6  N    0.000000
     7  C    1.456949   0.000000
     8  H    2.040425   1.100487   0.000000
     9  C    2.507917   1.527481   2.135748   0.000000
    10  C    3.814763   2.488406   2.648591   1.533089   0.000000
    11  C    4.328591   2.916168   3.157401   2.541509   1.531006
    12  C    3.783334   2.478748   2.603795   2.960315   2.535655
    13  C    2.488910   1.541713   2.142901   2.515027   2.946763
    14  H    2.632790   2.156798   2.499847   3.457644   3.955234
    15  N    3.139653   2.514492   3.418810   2.933526   3.464308
    16  C    3.090431   3.067803   4.077442   3.555912   4.454656
    17  H    2.053024   3.440010   4.027351   4.353190   5.761346
    18  H    1.013155   2.107994   2.244601   3.021238   4.283197
    19  H    2.821179   2.150737   3.042877   1.095174   2.178533
    20  H    2.706851   2.162513   2.504568   1.097068   2.177259
    21  H    4.649291   3.446000   3.671032   2.165161   1.095964
    22  H    4.059960   2.758748   2.457953   2.153261   1.099292
    23  H    4.623528   3.361762   3.888178   2.838477   2.158961
    24  H    5.335216   3.890972   3.926223   3.485667   2.164532
    25  H    4.605032   3.433598   3.614881   3.948732   3.483123
    26  H    3.990961   2.716713   2.371570   3.369260   2.839922
    27  H    4.098962   4.086190   5.120302   4.343804   5.162555
                   11         12         13         14         15
    11  C    0.000000
    12  C    1.530226   0.000000
    13  C    2.510456   1.532900   0.000000
    14  H    3.477215   2.183686   1.101512   0.000000
    15  N    2.874535   2.401175   1.459573   2.105077   0.000000
    16  C    4.105761   3.626620   2.379396   2.658978   1.294368
    17  H    6.148493   5.482731   3.993113   3.776256   4.178231
    18  H    4.999920   4.482292   3.340005   3.389466   4.134343
    19  H    2.842875   3.361765   2.736574   3.715032   2.568935
    20  H    3.492722   3.951914   3.471089   4.291827   3.940452
    21  H    2.169263   3.483494   3.923198   4.975909   4.175197
    22  H    2.161737   2.839363   3.401444   4.242577   4.250935
    23  H    1.094436   2.141207   2.764198   3.770111   2.531439
    24  H    1.096413   2.166338   3.466046   4.319767   3.870501
    25  H    2.168340   1.094928   2.149571   2.502743   2.614380
    26  H    2.175695   1.098748   2.167006   2.497264   3.362746
    27  H    4.723596   4.418522   3.356501   3.656450   2.029311
                   16         17         18         19         20
    16  C    0.000000
    17  H    3.463768   0.000000
    18  H    4.088309   2.235908   0.000000
    19  H    2.990126   4.303061   3.511927   0.000000
    20  H    4.374710   4.448916   2.881945   1.768565   0.000000
    21  H    5.096239   6.510918   5.086336   2.499197   2.520927
    22  H    5.248346   6.100196   4.312951   3.070148   2.461449
    23  H    3.694626   6.234676   5.421016   2.703806   3.842678
    24  H    5.133498   7.200620   5.936495   3.849349   4.317001
    25  H    3.821287   6.088074   5.369455   4.171081   4.984838
    26  H    4.495032   5.781089   4.484960   4.035634   4.182088
    27  H    1.089621   4.215000   5.079130   3.582386   5.147106
                   21         22         23         24         25
    21  H    0.000000
    22  H    1.758872   0.000000
    23  H    2.469399   3.062214   0.000000
    24  H    2.517278   2.459879   1.764584   0.000000
    25  H    4.311879   3.839309   2.444083   2.519627   0.000000
    26  H    3.846491   2.704058   3.060374   2.491657   1.768005
    27  H    5.652316   6.059864   4.089912   5.694313   4.454366
                   26         27
    26  H    0.000000
    27  H    5.378359   0.000000
 Stoichiometry    C9H13N3O2
 Framework group  C1[X(C9H13N3O2)]
 Deg. of freedom    75
 Full point group                 C1      NOp   1
 Largest Abelian subgroup         C1      NOp   1
 Largest concise Abelian subgroup C1      NOp   1
                         Standard orientation:                         
 ---------------------------------------------------------------------
 Center     Atomic      Atomic             Coordinates (Angstroms)
 Number     Number       Type             X           Y           Z
 ---------------------------------------------------------------------
      1          8           0       -3.506305   -1.391933   -0.365475
      2          7           0       -3.120820   -0.232880   -0.116296
      3          8           0       -3.895311    0.728556    0.055107
      4          6           0       -1.686470   -0.024064   -0.008295
      5          6           0       -1.301322    1.260553    0.276048
      6          7           0       -0.057133    1.750235    0.386481
      7          6           0        1.205734    1.024215    0.358843
      8          1           0        1.853963    1.553250    1.073679
      9          6           0        1.908191    1.034852   -0.997490
     10          6           0        3.306770    0.428533   -0.834041
     11          6           0        3.259293   -0.967422   -0.207117
     12          6           0        2.465149   -0.977651    1.100866
     13          6           0        1.055223   -0.424245    0.864994
     14          1           0        0.479140   -0.402842    1.803609
     15          7           0        0.408554   -1.317767   -0.090931
     16          6           0       -0.839035   -1.138299   -0.385381
     17          1           0       -2.096157    1.987277    0.419673
     18          1           0        0.001757    2.735430    0.615403
     19          1           0        1.313589    0.456913   -1.712921
     20          1           0        1.973744    2.062605   -1.375621
     21          1           0        3.810131    0.390235   -1.806820
     22          1           0        3.906719    1.095068   -0.198246
     23          1           0        2.781207   -1.664363   -0.902456
     24          1           0        4.278561   -1.330748   -0.030453
     25          1           0        2.379987   -1.999413    1.485075
     26          1           0        2.975457   -0.379412    1.868293
     27          1           0       -1.300575   -1.892924   -1.021616
 ---------------------------------------------------------------------
 Rotational constants (GHZ):           1.6800708           0.4194158           0.3721789
 Unable to Open any file for archive entry.
 1\1\GINC-ISS\FOpt\RMP2-FC\6-31G(d)\C9H13N3O2\ALEXEY\03-Jun-2023\0\\# M
 P2/6-31G* Opt Scf=Tight\\Title\\0,1\O,3.5262299,0.7040594,-0.7837797\N
 ,3.0162992,-0.0625215,0.0567052\O,3.6825444,-0.7817313,0.8263994\C,1.5
 650015,-0.0854659,0.1331022\C,1.0413403,-0.9326972,1.0751257\N,-0.2492
 427,-1.191694,1.3345592\C,-1.4305519,-0.5499578,0.7729681\H,-2.1575501
 ,-0.5193859,1.5985647\C,-2.0740557,-1.3159204,-0.3813292\C,-3.4101731,
 -0.6506375,-0.7314013\C,-3.2485343,0.8415784,-1.0332998\C,-2.511935,1.
 5735383,0.0906429\C,-1.1562385,0.9077109,0.3524534\H,-0.6243747,1.4094
 237,1.1763064\N,-0.3842374,1.0295385,-0.8802373\C,0.8500694,0.6402502,
 -0.8984341\H,1.7525371,-1.4800339,1.6876128\H,-0.4162069,-1.8485922,2.
 0876134\H,-1.3954299,-1.3043192,-1.2408281\H,-2.2269153,-2.3637346,-0.
 0944883\H,-3.86664,-1.1629663,-1.5859744\H,-4.0997367,-0.7802421,0.114
 8543\H,-2.6746049,0.967671,-1.9566071\H,-4.2325434,1.2968885,-1.196211
 4\H,-2.3404355,2.6189704,-0.1859904\H,-3.1109468,1.5713127,1.0117443\H
 ,1.4109115,0.8485846,-1.8091075\\Version=ES64L-G16RevC.02\State=1-A\HF
 =-661.3003377\MP2=-663.3346492\RMSD=9.749e-09\RMSF=3.161e-05\Dipole=-2
 .1569295,-0.9760683,1.1821928\PG=C01 [X(C9H13N3O2)]\\@
 The archive entry for this job was punched.


 SCIENCE AT ITS BEST PROVIDES US WITH BETTER QUESTIONS, 
 NOT ABSOLUTE ANSWERS

                                    -- NORMAN COUSINS, 1976
 Job cpu time:       0 days  0 hours  7 minutes 33.6 seconds.
 Elapsed time:       0 days  0 hours  1 minutes 49.7 seconds.
 File lengths (MBytes):  RWF=   6105 Int=      0 D2E=      0 Chk=      7 Scr=      1
 Normal termination of Gaussian 16 at Sat Jun  3 15:23:27 2023.
