 Entering Gaussian System, Link 0=g16
 Initial command:
 /home/alexey/programs//g16/l1.exe "/home/alexey/tmp/Gau-2181325.inp" -scrdir="/home/alexey/tmp/"
 Entering Link 1 = /home/alexey/programs//g16/l1.exe PID=   2181327.
  
 Copyright (c) 1988-2021, Gaussian, Inc.  All Rights Reserved.
  
 This is part of the Gaussian(R) 16 program.  It is based on
 the Gaussian(R) 09 system (copyright 2009, Gaussian, Inc.),
 the Gaussian(R) 03 system (copyright 2003, Gaussian, Inc.),
 the Gaussian(R) 98 system (copyright 1998, Gaussian, Inc.),
 the Gaussian(R) 94 system (copyright 1995, Gaussian, Inc.),
 the Gaussian 92(TM) system (copyright 1992, Gaussian, Inc.),
 the Gaussian 90(TM) system (copyright 1990, Gaussian, Inc.),
 the Gaussian 88(TM) system (copyright 1988, Gaussian, Inc.),
 the Gaussian 86(TM) system (copyright 1986, Carnegie Mellon
 University), and the Gaussian 82(TM) system (copyright 1983,
 Carnegie Mellon University). Gaussian is a federally registered
 trademark of Gaussian, Inc.
  
 This software contains proprietary and confidential information,
 including trade secrets, belonging to Gaussian, Inc.
  
 This software is provided under written license and may be
 used, copied, transmitted, or stored only in accord with that
 written license.
  
 The following legend is applicable only to US Government
 contracts under FAR:
  
                    RESTRICTED RIGHTS LEGEND
  
 Use, reproduction and disclosure by the US Government is
 subject to restrictions as set forth in subparagraphs (a)
 and (c) of the Commercial Computer Software - Restricted
 Rights clause in FAR 52.227-19.
  
 Gaussian, Inc.
 340 Quinnipiac St., Bldg. 40, Wallingford CT 06492
  
  
 ---------------------------------------------------------------
 Warning -- This program may not be used in any manner that
 competes with the business of Gaussian, Inc. or will provide
 assistance to any competitor of Gaussian, Inc.  The licensee
 of this program is prohibited from giving any competitor of
 Gaussian, Inc. access to this program.  By using this program,
 the user acknowledges that Gaussian, Inc. is engaged in the
 business of creating and licensing software in the field of
 computational chemistry and represents and warrants to the
 licensee that it is not a competitor of Gaussian, Inc. and that
 it will not use this program in any manner prohibited above.
 ---------------------------------------------------------------
  

 Cite this work as:
 Gaussian 16, Revision C.02,
 M. J. Frisch, G. W. Trucks, H. B. Schlegel, G. E. Scuseria, 
 M. A. Robb, J. R. Cheeseman, G. Scalmani, V. Barone, 
 G. A. Petersson, H. Nakatsuji, X. Li, M. Caricato, A. V. Marenich, 
 J. Bloino, B. G. Janesko, R. Gomperts, B. Mennucci, H. P. Hratchian, 
 J. V. Ortiz, A. F. Izmaylov, J. L. Sonnenberg, D. Williams-Young, 
 F. Ding, F. Lipparini, F. Egidi, J. Goings, B. Peng, A. Petrone, 
 T. Henderson, D. Ranasinghe, V. G. Zakrzewski, J. Gao, N. Rega, 
 G. Zheng, W. Liang, M. Hada, M. Ehara, K. Toyota, R. Fukuda, 
 J. Hasegawa, M. Ishida, T. Nakajima, Y. Honda, O. Kitao, H. Nakai, 
 T. Vreven, K. Throssell, J. A. Montgomery, Jr., J. E. Peralta, 
 F. Ogliaro, M. J. Bearpark, J. J. Heyd, E. N. Brothers, K. N. Kudin, 
 V. N. Staroverov, T. A. Keith, R. Kobayashi, J. Normand, 
 K. Raghavachari, A. P. Rendell, J. C. Burant, S. S. Iyengar, 
 J. Tomasi, M. Cossi, J. M. Millam, M. Klene, C. Adamo, R. Cammi, 
 J. W. Ochterski, R. L. Martin, K. Morokuma, O. Farkas, 
 J. B. Foresman, and D. J. Fox, Gaussian, Inc., Wallingford CT, 2019.
 
 ******************************************
 Gaussian 16:  ES64L-G16RevC.02  7-Dec-2021
                 3-Jun-2023 
 ******************************************
 %NoSave
 %mem=8GB
 %nproc=8
 Will use up to    8 processors via shared memory.
 --------------------------
 # MP2/6-31G* Opt Scf=Tight
 --------------------------
 1/18=20,19=15,38=1/1,3;
 2/9=110,12=2,17=6,18=5,40=1/2;
 3/5=1,6=6,7=1,11=9,25=1,30=1,71=1/1,2,3;
 4//1;
 5/5=2,32=2,38=5/2;
 8/6=4,10=2/1;
 9/15=2,16=-3/6;
 10/5=1/2;
 6/7=2,8=2,9=2,10=2/1;
 7/12=2/1,2,3,16;
 1/18=20,19=15/3(2);
 2/9=110/2;
 99//99;
 2/9=110/2;
 3/5=1,6=6,7=1,11=9,25=1,30=1,71=1/1,2,3;
 4/5=5,16=3,69=1/1;
 5/5=2,32=2,38=5/2;
 8/6=4,10=2/1;
 9/15=2,16=-3/6;
 10/5=1/2;
 7/12=2/1,2,3,16;
 1/18=20,19=15/3(-8);
 2/9=110/2;
 6/7=2,8=2,9=2,10=2/1;
 99/9=10/99;
 -----
 Title
 -----
 Symbolic Z-matrix:
 Charge =  0 Multiplicity = 1
 O                     3.30938  -1.33864  -0.60701 
 N                     2.88132  -0.19601  -0.35167 
 O                     3.57108   0.83554  -0.46596 
 C                     1.50196  -0.03483   0.09012 
 C                     0.76227  -1.18526   0.08954 
 N                    -0.51604  -1.33585   0.4688 
 C                    -1.38536  -0.35624   1.10589 
 H                    -1.1291   -0.28155   2.17167 
 C                    -2.82619  -0.84813   0.93207 
 C                    -3.22845  -0.8791   -0.54591 
 C                    -3.00624   0.47653  -1.2201 
 C                    -1.58406   1.00274  -1.01052 
 C                    -1.26147   1.05242   0.48446 
 H                    -2.06405   1.63026   0.96636 
 N                    -0.04686   1.79347   0.77226 
 C                     1.12478   1.29651   0.54039 
 H                     1.24829  -2.08765  -0.27018 
 H                    -0.88515  -2.27753   0.39958 
 H                    -2.94074  -1.84013   1.39068 
 H                    -3.48814  -0.17399   1.4881 
 H                    -2.64763  -1.64475  -1.07485 
 H                    -4.28016  -1.17591  -0.63202 
 H                    -3.22763   0.40217  -2.29102 
 H                    -3.71555   1.2043   -0.8037 
 H                    -0.85239   0.37007  -1.52554 
 H                    -1.48243   2.01268  -1.42219 
 H                     1.96422   1.96495   0.72653 
 

 GradGradGradGradGradGradGradGradGradGradGradGradGradGradGradGradGradGrad
 Berny optimization.
 Initialization pass.
                           ----------------------------
                           !    Initial Parameters    !
                           ! (Angstroms and Degrees)  !
 --------------------------                            --------------------------
 ! Name  Definition              Value          Derivative Info.                !
 --------------------------------------------------------------------------------
 ! R1    R(1,2)                  1.2466         estimate D2E/DX2                !
 ! R2    R(2,3)                  1.2462         estimate D2E/DX2                !
 ! R3    R(2,4)                  1.4573         estimate D2E/DX2                !
 ! R4    R(4,5)                  1.3677         estimate D2E/DX2                !
 ! R5    R(4,16)                 1.4552         estimate D2E/DX2                !
 ! R6    R(5,6)                  1.3419         estimate D2E/DX2                !
 ! R7    R(5,17)                 1.0862         estimate D2E/DX2                !
 ! R8    R(6,7)                  1.4565         estimate D2E/DX2                !
 ! R9    R(6,18)                 1.0138         estimate D2E/DX2                !
 ! R10   R(7,8)                  1.0987         estimate D2E/DX2                !
 ! R11   R(7,9)                  1.5324         estimate D2E/DX2                !
 ! R12   R(7,13)                 1.5446         estimate D2E/DX2                !
 ! R13   R(9,10)                 1.5321         estimate D2E/DX2                !
 ! R14   R(9,19)                 1.0989         estimate D2E/DX2                !
 ! R15   R(9,20)                 1.0963         estimate D2E/DX2                !
 ! R16   R(10,11)                1.5302         estimate D2E/DX2                !
 ! R17   R(10,21)                1.097          estimate D2E/DX2                !
 ! R18   R(10,22)                1.0962         estimate D2E/DX2                !
 ! R19   R(11,12)                1.5308         estimate D2E/DX2                !
 ! R20   R(11,23)                1.0961         estimate D2E/DX2                !
 ! R21   R(11,24)                1.0983         estimate D2E/DX2                !
 ! R22   R(12,13)                1.5302         estimate D2E/DX2                !
 ! R23   R(12,25)                1.0958         estimate D2E/DX2                !
 ! R24   R(12,26)                1.0953         estimate D2E/DX2                !
 ! R25   R(13,14)                1.1001         estimate D2E/DX2                !
 ! R26   R(13,15)                1.4516         estimate D2E/DX2                !
 ! R27   R(15,16)                1.2936         estimate D2E/DX2                !
 ! R28   R(16,27)                1.0891         estimate D2E/DX2                !
 ! A1    A(1,2,3)              123.3595         estimate D2E/DX2                !
 ! A2    A(1,2,4)              119.2404         estimate D2E/DX2                !
 ! A3    A(3,2,4)              117.3964         estimate D2E/DX2                !
 ! A4    A(2,4,5)              114.755          estimate D2E/DX2                !
 ! A5    A(2,4,16)             116.1249         estimate D2E/DX2                !
 ! A6    A(5,4,16)             129.0139         estimate D2E/DX2                !
 ! A7    A(4,5,6)              127.5531         estimate D2E/DX2                !
 ! A8    A(4,5,17)             117.1883         estimate D2E/DX2                !
 ! A9    A(6,5,17)             115.2525         estimate D2E/DX2                !
 ! A10   A(5,6,7)              128.0793         estimate D2E/DX2                !
 ! A11   A(5,6,18)             115.5818         estimate D2E/DX2                !
 ! A12   A(7,6,18)             115.9318         estimate D2E/DX2                !
 ! A13   A(6,7,8)              109.319          estimate D2E/DX2                !
 ! A14   A(6,7,9)              107.1992         estimate D2E/DX2                !
 ! A15   A(6,7,13)             112.9262         estimate D2E/DX2                !
 ! A16   A(8,7,9)              110.5585         estimate D2E/DX2                !
 ! A17   A(8,7,13)             108.0327         estimate D2E/DX2                !
 ! A18   A(9,7,13)             108.8158         estimate D2E/DX2                !
 ! A19   A(7,9,10)             111.2722         estimate D2E/DX2                !
 ! A20   A(7,9,19)             109.9047         estimate D2E/DX2                !
 ! A21   A(7,9,20)             108.2291         estimate D2E/DX2                !
 ! A22   A(10,9,19)            110.9161         estimate D2E/DX2                !
 ! A23   A(10,9,20)            110.0714         estimate D2E/DX2                !
 ! A24   A(19,9,20)            106.2903         estimate D2E/DX2                !
 ! A25   A(9,10,11)            111.6529         estimate D2E/DX2                !
 ! A26   A(9,10,21)            109.8917         estimate D2E/DX2                !
 ! A27   A(9,10,22)            109.4613         estimate D2E/DX2                !
 ! A28   A(11,10,21)           109.208          estimate D2E/DX2                !
 ! A29   A(11,10,22)           110.1568         estimate D2E/DX2                !
 ! A30   A(21,10,22)           106.3282         estimate D2E/DX2                !
 ! A31   A(10,11,12)           112.2788         estimate D2E/DX2                !
 ! A32   A(10,11,23)           109.9394         estimate D2E/DX2                !
 ! A33   A(10,11,24)           109.0398         estimate D2E/DX2                !
 ! A34   A(12,11,23)           110.1653         estimate D2E/DX2                !
 ! A35   A(12,11,24)           108.6823         estimate D2E/DX2                !
 ! A36   A(23,11,24)           106.5554         estimate D2E/DX2                !
 ! A37   A(11,12,13)           109.924          estimate D2E/DX2                !
 ! A38   A(11,12,25)           110.9465         estimate D2E/DX2                !
 ! A39   A(11,12,26)           110.5904         estimate D2E/DX2                !
 ! A40   A(13,12,25)           109.7035         estimate D2E/DX2                !
 ! A41   A(13,12,26)           108.5235         estimate D2E/DX2                !
 ! A42   A(25,12,26)           107.0816         estimate D2E/DX2                !
 ! A43   A(7,13,12)            110.2757         estimate D2E/DX2                !
 ! A44   A(7,13,14)            104.1385         estimate D2E/DX2                !
 ! A45   A(7,13,15)            116.93           estimate D2E/DX2                !
 ! A46   A(12,13,14)           106.9311         estimate D2E/DX2                !
 ! A47   A(12,13,15)           112.7474         estimate D2E/DX2                !
 ! A48   A(14,13,15)           104.7994         estimate D2E/DX2                !
 ! A49   A(13,15,16)           121.7465         estimate D2E/DX2                !
 ! A50   A(4,16,15)            129.9189         estimate D2E/DX2                !
 ! A51   A(4,16,27)            114.4965         estimate D2E/DX2                !
 ! A52   A(15,16,27)           115.5731         estimate D2E/DX2                !
 ! D1    D(1,2,4,5)             -4.5502         estimate D2E/DX2                !
 ! D2    D(1,2,4,16)           172.0462         estimate D2E/DX2                !
 ! D3    D(3,2,4,5)            174.7745         estimate D2E/DX2                !
 ! D4    D(3,2,4,16)            -8.6291         estimate D2E/DX2                !
 ! D5    D(2,4,5,6)            178.6073         estimate D2E/DX2                !
 ! D6    D(2,4,5,17)            -2.3309         estimate D2E/DX2                !
 ! D7    D(16,4,5,6)             2.541          estimate D2E/DX2                !
 ! D8    D(16,4,5,17)         -178.3972         estimate D2E/DX2                !
 ! D9    D(2,4,16,15)          167.2093         estimate D2E/DX2                !
 ! D10   D(2,4,16,27)          -14.0962         estimate D2E/DX2                !
 ! D11   D(5,4,16,15)          -16.7695         estimate D2E/DX2                !
 ! D12   D(5,4,16,27)          161.925          estimate D2E/DX2                !
 ! D13   D(4,5,6,7)             -7.2676         estimate D2E/DX2                !
 ! D14   D(4,5,6,18)          -179.5821         estimate D2E/DX2                !
 ! D15   D(17,5,6,7)           173.6551         estimate D2E/DX2                !
 ! D16   D(17,5,6,18)            1.3406         estimate D2E/DX2                !
 ! D17   D(5,6,7,8)            -77.5858         estimate D2E/DX2                !
 ! D18   D(5,6,7,9)            162.5432         estimate D2E/DX2                !
 ! D19   D(5,6,7,13)            42.7084         estimate D2E/DX2                !
 ! D20   D(18,6,7,8)            94.7059         estimate D2E/DX2                !
 ! D21   D(18,6,7,9)           -25.1651         estimate D2E/DX2                !
 ! D22   D(18,6,7,13)         -145.0            estimate D2E/DX2                !
 ! D23   D(6,7,9,10)           -64.2931         estimate D2E/DX2                !
 ! D24   D(6,7,9,19)            58.9651         estimate D2E/DX2                !
 ! D25   D(6,7,9,20)           174.6449         estimate D2E/DX2                !
 ! D26   D(8,7,9,10)           176.6315         estimate D2E/DX2                !
 ! D27   D(8,7,9,19)           -60.1103         estimate D2E/DX2                !
 ! D28   D(8,7,9,20)            55.5695         estimate D2E/DX2                !
 ! D29   D(13,7,9,10)           58.1371         estimate D2E/DX2                !
 ! D30   D(13,7,9,19)         -178.6047         estimate D2E/DX2                !
 ! D31   D(13,7,9,20)          -62.9249         estimate D2E/DX2                !
 ! D32   D(6,7,13,12)           57.9579         estimate D2E/DX2                !
 ! D33   D(6,7,13,14)          172.3648         estimate D2E/DX2                !
 ! D34   D(6,7,13,15)          -72.5848         estimate D2E/DX2                !
 ! D35   D(8,7,13,12)          178.9854         estimate D2E/DX2                !
 ! D36   D(8,7,13,14)          -66.6076         estimate D2E/DX2                !
 ! D37   D(8,7,13,15)           48.4428         estimate D2E/DX2                !
 ! D38   D(9,7,13,12)          -60.9431         estimate D2E/DX2                !
 ! D39   D(9,7,13,14)           53.4639         estimate D2E/DX2                !
 ! D40   D(9,7,13,15)          168.5142         estimate D2E/DX2                !
 ! D41   D(7,9,10,11)          -54.3493         estimate D2E/DX2                !
 ! D42   D(7,9,10,21)           66.9884         estimate D2E/DX2                !
 ! D43   D(7,9,10,22)         -176.5916         estimate D2E/DX2                !
 ! D44   D(19,9,10,11)        -177.0273         estimate D2E/DX2                !
 ! D45   D(19,9,10,21)         -55.6896         estimate D2E/DX2                !
 ! D46   D(19,9,10,22)          60.7304         estimate D2E/DX2                !
 ! D47   D(20,9,10,11)          65.6273         estimate D2E/DX2                !
 ! D48   D(20,9,10,21)        -173.035          estimate D2E/DX2                !
 ! D49   D(20,9,10,22)         -56.6149         estimate D2E/DX2                !
 ! D50   D(9,10,11,12)          52.5609         estimate D2E/DX2                !
 ! D51   D(9,10,11,23)         175.5802         estimate D2E/DX2                !
 ! D52   D(9,10,11,24)         -67.9421         estimate D2E/DX2                !
 ! D53   D(21,10,11,12)        -69.1725         estimate D2E/DX2                !
 ! D54   D(21,10,11,23)         53.8468         estimate D2E/DX2                !
 ! D55   D(21,10,11,24)        170.3245         estimate D2E/DX2                !
 ! D56   D(22,10,11,12)        174.4028         estimate D2E/DX2                !
 ! D57   D(22,10,11,23)        -62.5778         estimate D2E/DX2                !
 ! D58   D(22,10,11,24)         53.8999         estimate D2E/DX2                !
 ! D59   D(10,11,12,13)        -54.899          estimate D2E/DX2                !
 ! D60   D(10,11,12,25)         66.6175         estimate D2E/DX2                !
 ! D61   D(10,11,12,26)       -174.7108         estimate D2E/DX2                !
 ! D62   D(23,11,12,13)       -177.7912         estimate D2E/DX2                !
 ! D63   D(23,11,12,25)        -56.2747         estimate D2E/DX2                !
 ! D64   D(23,11,12,26)         62.397          estimate D2E/DX2                !
 ! D65   D(24,11,12,13)         65.8104         estimate D2E/DX2                !
 ! D66   D(24,11,12,25)       -172.6731         estimate D2E/DX2                !
 ! D67   D(24,11,12,26)        -54.0014         estimate D2E/DX2                !
 ! D68   D(11,12,13,7)          59.2417         estimate D2E/DX2                !
 ! D69   D(11,12,13,14)        -53.381          estimate D2E/DX2                !
 ! D70   D(11,12,13,15)       -168.0367         estimate D2E/DX2                !
 ! D71   D(25,12,13,7)         -63.0149         estimate D2E/DX2                !
 ! D72   D(25,12,13,14)       -175.6376         estimate D2E/DX2                !
 ! D73   D(25,12,13,15)         69.7067         estimate D2E/DX2                !
 ! D74   D(26,12,13,7)        -179.6967         estimate D2E/DX2                !
 ! D75   D(26,12,13,14)         67.6806         estimate D2E/DX2                !
 ! D76   D(26,12,13,15)        -46.9751         estimate D2E/DX2                !
 ! D77   D(7,13,15,16)          54.1632         estimate D2E/DX2                !
 ! D78   D(12,13,15,16)        -75.2168         estimate D2E/DX2                !
 ! D79   D(14,13,15,16)        168.8455         estimate D2E/DX2                !
 ! D80   D(13,15,16,4)          -5.5391         estimate D2E/DX2                !
 ! D81   D(13,15,16,27)        175.7779         estimate D2E/DX2                !
 --------------------------------------------------------------------------------
 Trust Radius=3.00D-01 FncErr=1.00D-07 GrdErr=1.00D-07 EigMax=2.50D+02 EigMin=1.00D-04
 Number of steps in this run=    162 maximum allowed number of steps=    162.
 GradGradGradGradGradGradGradGradGradGradGradGradGradGradGradGradGradGrad

                          Input orientation:                          
 ---------------------------------------------------------------------
 Center     Atomic      Atomic             Coordinates (Angstroms)
 Number     Number       Type             X           Y           Z
 ---------------------------------------------------------------------
      1          8           0        3.309384   -1.338643   -0.607015
      2          7           0        2.881324   -0.196009   -0.351673
      3          8           0        3.571083    0.835544   -0.465955
      4          6           0        1.501959   -0.034831    0.090120
      5          6           0        0.762265   -1.185255    0.089544
      6          7           0       -0.516039   -1.335855    0.468803
      7          6           0       -1.385360   -0.356238    1.105888
      8          1           0       -1.129098   -0.281546    2.171674
      9          6           0       -2.826186   -0.848131    0.932068
     10          6           0       -3.228455   -0.879103   -0.545914
     11          6           0       -3.006241    0.476527   -1.220096
     12          6           0       -1.584063    1.002738   -1.010516
     13          6           0       -1.261471    1.052423    0.484459
     14          1           0       -2.064051    1.630259    0.966364
     15          7           0       -0.046857    1.793471    0.772264
     16          6           0        1.124778    1.296506    0.540386
     17          1           0        1.248294   -2.087647   -0.270180
     18          1           0       -0.885154   -2.277526    0.399585
     19          1           0       -2.940735   -1.840130    1.390684
     20          1           0       -3.488136   -0.173992    1.488104
     21          1           0       -2.647630   -1.644746   -1.074849
     22          1           0       -4.280158   -1.175913   -0.632021
     23          1           0       -3.227631    0.402168   -2.291024
     24          1           0       -3.715547    1.204301   -0.803702
     25          1           0       -0.852387    0.370066   -1.525543
     26          1           0       -1.482432    2.012679   -1.422193
     27          1           0        1.964222    1.964952    0.726534
 ---------------------------------------------------------------------
                    Distance matrix (angstroms):
                    1          2          3          4          5
     1  O    0.000000
     2  N    1.246614   0.000000
     3  O    2.194419   1.246166   0.000000
     4  C    2.335103   1.457329   2.312584   0.000000
     5  C    2.645097   2.379851   3.504521   1.367708   0.000000
     6  N    3.973821   3.676208   4.721579   2.430716   1.341856
     7  C    5.093111   4.511625   5.334544   3.077613   2.516450
     8  H    5.342162   4.738997   5.504242   3.363956   2.954524
     9  C    6.344651   5.886334   6.761233   4.483656   3.701416
    10  C    6.554254   6.150914   7.012854   4.847076   4.052577
    11  C    6.599835   5.989147   6.630144   4.722501   4.321841
    12  C    5.439734   4.670198   5.186524   3.436783   3.391564
    13  C    5.272687   4.406864   4.929899   2.995692   3.042806
    14  H    6.337484   5.434079   5.868376   4.031967   4.084604
    15  N    4.793424   3.714232   3.942119   2.491354   3.161265
    16  C    3.610130   2.471604   2.685073   1.455150   2.548296
    17  H    2.218684   2.500345   3.738813   2.099575   1.086248
    18  H    4.414623   4.368462   5.504400   3.289949   2.000793
    19  H    6.580751   6.295659   7.280805   4.968713   3.979201
    20  H    7.207788   6.629878   7.393922   5.184088   4.587432
    21  H    5.983192   5.761176   6.722721   4.600877   3.632399
    22  H    7.591328   7.233646   8.106511   5.937713   5.093798
    23  H    6.971290   6.437254   7.052745   5.313176   4.909816
    24  H    7.473614   6.758987   7.303768   5.436611   5.153510
    25  H    4.591702   3.954619   4.572361   2.883965   2.763084
    26  H    5.904014   5.006664   5.276178   3.922496   4.189367
    27  H    3.808090   2.583285   2.297737   2.148916   3.431364
                    6          7          8          9         10
     6  N    0.000000
     7  C    1.456450   0.000000
     8  H    2.094560   1.098704   0.000000
     9  C    2.406090   1.532367   2.176637   0.000000
    10  C    2.931804   2.529592   3.485636   1.532061   0.000000
    11  C    3.512579   2.954818   3.949993   2.533564   1.530239
    12  C    2.966155   2.522987   3.461606   2.956724   2.541890
    13  C    2.501957   1.544619   2.154923   2.502157   2.943040
    14  H    3.382564   2.103867   2.445793   2.593153   3.152731
    15  N    3.178821   2.554240   2.726773   3.837742   4.359221
    16  C    3.102696   3.058128   3.198641   4.512537   4.986376
    17  H    2.055275   3.439109   3.857026   4.425289   4.645200
    18  H    1.013796   2.107230   2.680251   2.468666   2.888012
    19  H    2.642596   2.168464   2.514192   1.098869   2.181002
    20  H    3.349965   2.144986   2.458433   1.096275   2.168374
    21  H    2.649897   2.830051   3.834601   2.166608   1.096968
    22  H    3.925046   3.474486   4.311587   2.160521   1.096171
    23  H    4.241474   3.938039   4.978653   3.480334   2.164962
    24  H    4.278845   3.392873   4.213113   2.831313   2.155060
    25  H    2.645886   2.781368   3.764383   3.379310   2.857585
    26  H    3.965156   3.465888   4.278340   3.941123   3.489822
    27  H    4.136840   4.092864   4.087030   5.559108   6.055713
                   11         12         13         14         15
    11  C    0.000000
    12  C    1.530820   0.000000
    13  C    2.506269   1.530191   0.000000
    14  H    2.645642   2.128902   1.100118   0.000000
    15  N    3.802866   2.483257   1.451644   2.033072   0.000000
    16  C    4.564753   3.135189   2.399351   3.234420   1.293627
    17  H    5.057508   4.256856   4.090041   5.130642   4.222225
    18  H    3.834994   3.638268   3.352220   4.120900   4.173087
    19  H    3.491040   3.960836   3.465262   3.604472   4.686153
    20  H    2.826614   3.354593   2.733026   2.357022   4.028118
    21  H    2.156270   2.853855   3.409927   3.902918   4.690116
    22  H    2.167777   3.486934   3.914650   3.916704   5.358180
    23  H    1.096098   2.168341   3.462936   3.670518   4.629988
    24  H    1.098250   2.150959   2.775773   2.458051   4.036097
    25  H    2.178007   1.095845   2.161728   3.043980   2.820440
    26  H    2.173154   1.095348   2.146214   2.487917   2.631458
    27  H    5.541685   4.066144   3.361012   4.049262   2.018895
                   16         17         18         19         20
    16  C    0.000000
    17  H    3.482063   0.000000
    18  H    4.102847   2.244157   0.000000
    19  H    5.204795   4.513058   2.323576   0.000000
    20  H    4.933508   5.402536   3.519267   1.756461   0.000000
    21  H    5.048861   4.002733   2.383418   2.490570   3.072181
    22  H    6.058112   5.614799   3.715348   2.515268   2.475092
    23  H    5.268794   5.506078   4.461763   4.320322   3.831662
    24  H    5.024322   5.980073   4.645658   3.832000   2.683986
    25  H    3.005916   3.468306   3.273673   4.213139   4.040450
    26  H    3.340982   5.059315   4.699093   4.988292   4.156225
    27  H    1.089100   4.234330   5.120983   6.243265   5.906207
                   21         22         23         24         25
    21  H    0.000000
    22  H    1.755292   0.000000
    23  H    2.450580   2.520008   0.000000
    24  H    3.054675   2.452280   1.758865   0.000000
    25  H    2.735962   3.864977   2.495752   3.068336   0.000000
    26  H    3.854230   4.314946   2.528702   2.454141   1.762332
    27  H    6.127322   7.120603   6.205102   5.931272   3.943197
                   26         27
    26  H    0.000000
    27  H    4.061863   0.000000
 Stoichiometry    C9H13N3O2
 Framework group  C1[X(C9H13N3O2)]
 Deg. of freedom    75
 Full point group                 C1      NOp   1
 Largest Abelian subgroup         C1      NOp   1
 Largest concise Abelian subgroup C1      NOp   1
                         Standard orientation:                         
 ---------------------------------------------------------------------
 Center     Atomic      Atomic             Coordinates (Angstroms)
 Number     Number       Type             X           Y           Z
 ---------------------------------------------------------------------
      1          8           0       -3.416449   -1.369018    0.538920
      2          7           0       -2.998665   -0.225902    0.269125
      3          8           0       -3.706776    0.797041    0.340500
      4          6           0       -1.610095   -0.053189   -0.138125
      5          6           0       -0.853489   -1.191571   -0.090595
      6          7           0        0.437014   -1.330683   -0.430928
      7          6           0        1.308935   -0.352266   -1.066303
      8          1           0        1.081401   -0.305795   -2.140183
      9          6           0        2.751587   -0.817448   -0.841553
     10          6           0        3.112901   -0.808576    0.647267
     11          6           0        2.851612    0.558349    1.283564
     12          6           0        1.428080    1.057317    1.022798
     13          6           0        1.146595    1.068015   -0.481242
     14          1           0        1.953522    1.647277   -0.954089
     15          7           0       -0.070526    1.783217   -0.819433
     16          6           0       -1.240566    1.273338   -0.608481
     17          1           0       -1.335736   -2.093076    0.276368
     18          1           0        0.818174   -2.264641   -0.329829
     19          1           0        2.893786   -1.817679   -1.273793
     20          1           0        3.418574   -0.145805   -1.394582
     21          1           0        2.529130   -1.571033    1.177560
     22          1           0        4.166139   -1.086838    0.769137
     23          1           0        3.044144    0.511781    2.361615
     24          1           0        3.561231    1.287517    0.870152
     25          1           0        0.691923    0.425102    1.531966
     26          1           0        1.299833    2.074620    1.408070
     27          1           0       -2.084450    1.924152   -0.833072
 ---------------------------------------------------------------------
 Rotational constants (GHZ):           1.5143695           0.4409499           0.4006019
 Standard basis: 6-31G(d) (6D, 7F)
 There are   236 symmetry adapted cartesian basis functions of A   symmetry.
 There are   236 symmetry adapted basis functions of A   symmetry.
   236 basis functions,   444 primitive gaussians,   236 cartesian basis functions
    52 alpha electrons       52 beta electrons
       nuclear repulsion energy       936.3266020911 Hartrees.
 NAtoms=   27 NActive=   27 NUniq=   27 SFac= 1.00D+00 NAtFMM=   60 NAOKFM=F Big=F
 Integral buffers will be    131072 words long.
 Raffenetti 1 integral format.
 Two-electron integral symmetry is turned on.
 One-electron integrals computed using PRISM.
 NBasis=   236 RedAO= T EigKep=  1.02D-03  NBF=   236
 NBsUse=   236 1.00D-06 EigRej= -1.00D+00 NBFU=   236
 ExpMin= 1.61D-01 ExpMax= 5.48D+03 ExpMxC= 8.25D+02 IAcc=3 IRadAn=         5 AccDes= 0.00D+00
 Harris functional with IExCor=  205 and IRadAn=       5 diagonalized for initial guess.
 HarFok:  IExCor=  205 AccDes= 0.00D+00 IRadAn=         5 IDoV= 1 UseB2=F ITyADJ=14
 ICtDFT=  3500011 ScaDFX=  1.000000  1.000000  1.000000  1.000000
 FoFCou: FMM=F IPFlag=           0 FMFlag=      100000 FMFlg1=           0
         NFxFlg=           0 DoJE=T BraDBF=F KetDBF=T FulRan=T
         wScrn=  0.000000 ICntrl=       500 IOpCl=  0 I1Cent=   200000004 NGrid=           0
         NMat0=    1 NMatS0=      1 NMatT0=    0 NMatD0=    1 NMtDS0=    0 NMtDT0=    0
 Petite list used in FoFCou.
 Requested convergence on RMS density matrix=1.00D-08 within 128 cycles.
 Requested convergence on MAX density matrix=1.00D-06.
 Requested convergence on             energy=1.00D-06.
 No special actions if energy rises.
 Integral accuracy reduced to 1.0D-05 until final iterations.
 Initial convergence to 1.0D-05 achieved.  Increase integral accuracy.
 SCF Done:  E(RHF) =  -661.298249031     A.U. after   17 cycles
            NFock= 17  Conv=0.78D-08     -V/T= 2.0025
 ExpMin= 1.61D-01 ExpMax= 5.48D+03 ExpMxC= 8.25D+02 IAcc=3 IRadAn=         5 AccDes= 0.00D+00
 HarFok:  IExCor=  205 AccDes= 0.00D+00 IRadAn=         5 IDoV=-2 UseB2=F ITyADJ=14
 ICtDFT= 12500011 ScaDFX=  1.000000  1.000000  1.000000  1.000000
 Range of M.O.s used for correlation:    15   236
 NBasis=   236 NAE=    52 NBE=    52 NFC=    14 NFV=     0
 NROrb=    222 NOA=    38 NOB=    38 NVA=   184 NVB=   184
 Disk-based method using ON**2 memory for 38 occupieds at a time.
 Estimated scratch disk usage=   985175392 words.
 Actual    scratch disk usage=   803585376 words.
 JobTyp=1 Pass  1:  I=  15 to  52 NPSUse=  8 ParTrn=T ParDer=T DoDerP=T.
 (rs|ai) integrals will be sorted in core.
 Spin components of T(2) and E(2):
     alpha-alpha T2 =       0.9156139907D-01 E2=     -0.2727096832D+00
     alpha-beta  T2 =       0.4921526036D+00 E2=     -0.1488838961D+01
     beta-beta   T2 =       0.9156139907D-01 E2=     -0.2727096832D+00
 ANorm=    0.1294324303D+01
 E2 =    -0.2034258327D+01 EUMP2 =    -0.66333250735888D+03
          IDoAtm=111111111111111111111111111
          Differentiating once with respect to electric field.
                with respect to dipole field.
          Differentiating once with respect to nuclear coordinates.
 Keep R1 ints in memory in canonical form, NReq=397723937.
          There are     1 degrees of freedom in the 1st order CPHF.  IDoFFX=0 NUNeed=     1.
 LinEq1:  Iter=  0 NonCon=     1 RMS=4.62D-03 Max=1.11D-01 NDo=     1
 AX will form     1 AO Fock derivatives at one time.
 LinEq1:  Iter=  1 NonCon=     1 RMS=1.57D-03 Max=3.65D-02 NDo=     1
 LinEq1:  Iter=  2 NonCon=     1 RMS=6.72D-04 Max=1.90D-02 NDo=     1
 LinEq1:  Iter=  3 NonCon=     1 RMS=2.91D-04 Max=8.84D-03 NDo=     1
 LinEq1:  Iter=  4 NonCon=     1 RMS=9.03D-05 Max=1.77D-03 NDo=     1
 LinEq1:  Iter=  5 NonCon=     1 RMS=4.01D-05 Max=2.20D-03 NDo=     1
 LinEq1:  Iter=  6 NonCon=     1 RMS=1.29D-05 Max=3.35D-04 NDo=     1
 LinEq1:  Iter=  7 NonCon=     1 RMS=4.82D-06 Max=9.88D-05 NDo=     1
 LinEq1:  Iter=  8 NonCon=     1 RMS=1.92D-06 Max=5.23D-05 NDo=     1
 LinEq1:  Iter=  9 NonCon=     1 RMS=6.85D-07 Max=1.82D-05 NDo=     1
 LinEq1:  Iter= 10 NonCon=     1 RMS=3.27D-07 Max=1.25D-05 NDo=     1
 LinEq1:  Iter= 11 NonCon=     1 RMS=1.32D-07 Max=4.79D-06 NDo=     1
 LinEq1:  Iter= 12 NonCon=     1 RMS=5.04D-08 Max=9.95D-07 NDo=     1
 LinEq1:  Iter= 13 NonCon=     1 RMS=1.92D-08 Max=4.26D-07 NDo=     1
 LinEq1:  Iter= 14 NonCon=     1 RMS=7.76D-09 Max=1.85D-07 NDo=     1
 LinEq1:  Iter= 15 NonCon=     1 RMS=3.09D-09 Max=8.74D-08 NDo=     1
 LinEq1:  Iter= 16 NonCon=     1 RMS=1.03D-09 Max=2.49D-08 NDo=     1
 LinEq1:  Iter= 17 NonCon=     1 RMS=3.00D-10 Max=4.85D-09 NDo=     1
 LinEq1:  Iter= 18 NonCon=     1 RMS=9.98D-11 Max=1.46D-09 NDo=     1
 LinEq1:  Iter= 19 NonCon=     0 RMS=2.98D-11 Max=3.68D-10 NDo=     1
 Linear equations converged to 1.000D-10 1.000D-09 after    19 iterations.
 End of Minotr F.D. properties file   721 does not exist.
 End of Minotr F.D. properties file   722 does not exist.
 End of Minotr F.D. properties file   788 does not exist.

 **********************************************************************

            Population analysis using the SCF Density.

 **********************************************************************

 Orbital symmetries:
       Occupied  (A) (A) (A) (A) (A) (A) (A) (A) (A) (A) (A) (A)
                 (A) (A) (A) (A) (A) (A) (A) (A) (A) (A) (A) (A)
                 (A) (A) (A) (A) (A) (A) (A) (A) (A) (A) (A) (A)
                 (A) (A) (A) (A) (A) (A) (A) (A) (A) (A) (A) (A)
                 (A) (A) (A) (A)
       Virtual   (A) (A) (A) (A) (A) (A) (A) (A) (A) (A) (A) (A)
                 (A) (A) (A) (A) (A) (A) (A) (A) (A) (A) (A) (A)
                 (A) (A) (A) (A) (A) (A) (A) (A) (A) (A) (A) (A)
                 (A) (A) (A) (A) (A) (A) (A) (A) (A) (A) (A) (A)
                 (A) (A) (A) (A) (A) (A) (A) (A) (A) (A) (A) (A)
                 (A) (A) (A) (A) (A) (A) (A) (A) (A) (A) (A) (A)
                 (A) (A) (A) (A) (A) (A) (A) (A) (A) (A) (A) (A)
                 (A) (A) (A) (A) (A) (A) (A) (A) (A) (A) (A) (A)
                 (A) (A) (A) (A) (A) (A) (A) (A) (A) (A) (A) (A)
                 (A) (A) (A) (A) (A) (A) (A) (A) (A) (A) (A) (A)
                 (A) (A) (A) (A) (A) (A) (A) (A) (A) (A) (A) (A)
                 (A) (A) (A) (A) (A) (A) (A) (A) (A) (A) (A) (A)
                 (A) (A) (A) (A) (A) (A) (A) (A) (A) (A) (A) (A)
                 (A) (A) (A) (A) (A) (A) (A) (A) (A) (A) (A) (A)
                 (A) (A) (A) (A) (A) (A) (A) (A) (A) (A) (A) (A)
                 (A) (A) (A) (A)
 The electronic state is 1-A.
 Alpha  occ. eigenvalues --  -20.59244 -20.58871 -15.84706 -15.63939 -15.55859
 Alpha  occ. eigenvalues --  -11.34731 -11.29724 -11.29334 -11.28673 -11.26968
 Alpha  occ. eigenvalues --  -11.25428 -11.24408 -11.23685 -11.23240  -1.57098
 Alpha  occ. eigenvalues --   -1.36675  -1.31034  -1.22589  -1.15052  -1.10288
 Alpha  occ. eigenvalues --   -1.03685  -1.01647  -0.94312  -0.90287  -0.86703
 Alpha  occ. eigenvalues --   -0.82639  -0.79107  -0.78191  -0.74440  -0.72034
 Alpha  occ. eigenvalues --   -0.70021  -0.69747  -0.68457  -0.65536  -0.63494
 Alpha  occ. eigenvalues --   -0.62165  -0.59828  -0.58915  -0.57421  -0.56079
 Alpha  occ. eigenvalues --   -0.54359  -0.52071  -0.51130  -0.48693  -0.48464
 Alpha  occ. eigenvalues --   -0.47986  -0.47302  -0.46693  -0.43660  -0.41924
 Alpha  occ. eigenvalues --   -0.39261  -0.33571
 Alpha virt. eigenvalues --    0.07280   0.12098   0.17551   0.21604   0.23322
 Alpha virt. eigenvalues --    0.25340   0.26414   0.27783   0.28838   0.29664
 Alpha virt. eigenvalues --    0.30359   0.31330   0.31845   0.32266   0.32440
 Alpha virt. eigenvalues --    0.33227   0.35841   0.37478   0.38668   0.39389
 Alpha virt. eigenvalues --    0.41204   0.42222   0.43049   0.45296   0.47484
 Alpha virt. eigenvalues --    0.47857   0.49348   0.52993   0.58718   0.59855
 Alpha virt. eigenvalues --    0.63345   0.68543   0.69812   0.71247   0.72290
 Alpha virt. eigenvalues --    0.74671   0.75662   0.76569   0.78390   0.80300
 Alpha virt. eigenvalues --    0.81543   0.83412   0.84585   0.86041   0.88876
 Alpha virt. eigenvalues --    0.89343   0.91090   0.92270   0.93570   0.94264
 Alpha virt. eigenvalues --    0.96207   0.97495   0.99238   1.00961   1.02877
 Alpha virt. eigenvalues --    1.04104   1.05375   1.07164   1.08205   1.09102
 Alpha virt. eigenvalues --    1.10908   1.11095   1.11523   1.12251   1.12926
 Alpha virt. eigenvalues --    1.13298   1.15257   1.15350   1.16588   1.17332
 Alpha virt. eigenvalues --    1.19710   1.20263   1.21662   1.22549   1.23900
 Alpha virt. eigenvalues --    1.24303   1.26249   1.26776   1.28389   1.29548
 Alpha virt. eigenvalues --    1.30747   1.33220   1.36709   1.36920   1.38668
 Alpha virt. eigenvalues --    1.44426   1.46108   1.50074   1.52617   1.54562
 Alpha virt. eigenvalues --    1.58052   1.59327   1.60287   1.63235   1.64841
 Alpha virt. eigenvalues --    1.67939   1.68420   1.71245   1.74093   1.77762
 Alpha virt. eigenvalues --    1.79008   1.84313   1.85559   1.89916   1.91980
 Alpha virt. eigenvalues --    1.93796   1.96293   1.98521   1.98681   2.02827
 Alpha virt. eigenvalues --    2.03730   2.07321   2.07758   2.11392   2.12026
 Alpha virt. eigenvalues --    2.13202   2.13316   2.18126   2.20603   2.22038
 Alpha virt. eigenvalues --    2.23182   2.24301   2.25889   2.27850   2.29203
 Alpha virt. eigenvalues --    2.29975   2.31258   2.35333   2.36227   2.38533
 Alpha virt. eigenvalues --    2.39502   2.42387   2.44592   2.44729   2.46836
 Alpha virt. eigenvalues --    2.49439   2.52689   2.53446   2.57864   2.60564
 Alpha virt. eigenvalues --    2.61020   2.64929   2.66451   2.67890   2.69991
 Alpha virt. eigenvalues --    2.71030   2.74312   2.76045   2.79617   2.83225
 Alpha virt. eigenvalues --    2.85549   2.88418   2.91562   2.92832   2.93224
 Alpha virt. eigenvalues --    2.98740   3.00627   3.03917   3.06349   3.07569
 Alpha virt. eigenvalues --    3.08856   3.18039   3.19379   3.24768   3.26048
 Alpha virt. eigenvalues --    3.32605   3.37898   3.39488   3.52160   3.67722
 Alpha virt. eigenvalues --    4.13848   4.27625   4.36372   4.40607   4.46956
 Alpha virt. eigenvalues --    4.55765   4.60556   4.63633   4.70896   4.78135
 Alpha virt. eigenvalues --    4.97034   4.99809   5.07652   5.10146
          Condensed to atoms (all electrons):
               1          2          3          4          5          6
     1  O    8.353475   0.302289  -0.083574  -0.093364   0.004130   0.000818
     2  N    0.302289   5.720105   0.305105   0.266691  -0.055670   0.001000
     3  O   -0.083574   0.305105   8.316755  -0.082332   0.004651  -0.000017
     4  C   -0.093364   0.266691  -0.082332   5.217566   0.575443  -0.048566
     5  C    0.004130  -0.055670   0.004651   0.575443   4.709777   0.317507
     6  N    0.000818   0.001000  -0.000017  -0.048566   0.317507   7.224017
     7  C    0.000001  -0.000176   0.000003   0.003888  -0.029871   0.144657
     8  H   -0.000000  -0.000008   0.000000   0.001490  -0.001400  -0.047619
     9  C    0.000000   0.000001  -0.000000  -0.000145   0.003258  -0.063930
    10  C   -0.000000  -0.000000  -0.000000  -0.000037   0.000104  -0.006980
    11  C    0.000000   0.000000  -0.000000   0.000084  -0.000313   0.001344
    12  C    0.000001  -0.000065   0.000000  -0.001674   0.002208  -0.010350
    13  C   -0.000001  -0.000002  -0.000013  -0.006137  -0.000468  -0.054718
    14  H   -0.000000   0.000003  -0.000000  -0.000315  -0.000290   0.005210
    15  N   -0.000014   0.002153   0.000441  -0.064046  -0.007774   0.003405
    16  C    0.002549  -0.025130  -0.002034   0.308582  -0.052686  -0.000473
    17  H    0.016987  -0.007187   0.000213  -0.021274   0.373726  -0.034381
    18  H    0.000013  -0.000057   0.000001   0.001360  -0.031946   0.335344
    19  H    0.000000  -0.000000   0.000000  -0.000008  -0.000170  -0.003659
    20  H   -0.000000  -0.000000   0.000000   0.000002  -0.000038   0.004508
    21  H    0.000000  -0.000000   0.000000  -0.000036   0.000252   0.003776
    22  H    0.000000   0.000000   0.000000  -0.000000  -0.000000   0.000099
    23  H   -0.000000  -0.000000  -0.000000   0.000005   0.000015  -0.000079
    24  H   -0.000000  -0.000000   0.000000  -0.000004  -0.000000   0.000066
    25  H   -0.000003  -0.000009  -0.000004  -0.000280   0.000334   0.001181
    26  H    0.000000  -0.000005   0.000000   0.000152  -0.000096   0.000052
    27  H    0.000047  -0.001170   0.007118  -0.065918   0.002050  -0.000005
               7          8          9         10         11         12
     1  O    0.000001  -0.000000   0.000000  -0.000000   0.000000   0.000001
     2  N   -0.000176  -0.000008   0.000001  -0.000000   0.000000  -0.000065
     3  O    0.000003   0.000000  -0.000000  -0.000000  -0.000000   0.000000
     4  C    0.003888   0.001490  -0.000145  -0.000037   0.000084  -0.001674
     5  C   -0.029871  -0.001400   0.003258   0.000104  -0.000313   0.002208
     6  N    0.144657  -0.047619  -0.063930  -0.006980   0.001344  -0.010350
     7  C    5.077723   0.427718   0.339875  -0.055740   0.001902  -0.046753
     8  H    0.427718   0.497803  -0.039278   0.004054  -0.000484   0.004760
     9  C    0.339875  -0.039278   5.190412   0.320953  -0.059306  -0.004923
    10  C   -0.055740   0.004054   0.320953   5.129601   0.335497  -0.052986
    11  C    0.001902  -0.000484  -0.059306   0.335497   5.122037   0.319260
    12  C   -0.046753   0.004760  -0.004923  -0.052986   0.319260   5.177852
    13  C    0.316261  -0.048887  -0.045456  -0.007956  -0.052955   0.317710
    14  H   -0.059196  -0.001995  -0.003561   0.000632  -0.003041  -0.051226
    15  N   -0.051690  -0.002835   0.003450  -0.000095   0.003795  -0.055692
    16  C   -0.001366   0.001386  -0.000055   0.000015  -0.000019  -0.002837
    17  H    0.001698  -0.000033  -0.000082   0.000001  -0.000005   0.000062
    18  H   -0.023339   0.001023  -0.005852   0.000770   0.000039  -0.000170
    19  H   -0.039466  -0.003094   0.398919  -0.039732   0.004234  -0.000468
    20  H   -0.041023  -0.001447   0.402124  -0.035632  -0.001989   0.000490
    21  H   -0.006864  -0.000050  -0.041339   0.396310  -0.041739  -0.001589
    22  H    0.004603  -0.000052  -0.038262   0.405432  -0.036020   0.004105
    23  H   -0.000410   0.000011   0.004416  -0.036970   0.402691  -0.035751
    24  H   -0.000106  -0.000053  -0.001672  -0.045842   0.400260  -0.044431
    25  H   -0.009974  -0.000100   0.001172  -0.002231  -0.038636   0.392691
    26  H    0.005177  -0.000062  -0.000448   0.003901  -0.033761   0.404992
    27  H   -0.000372  -0.000072   0.000006  -0.000000   0.000003  -0.000217
              13         14         15         16         17         18
     1  O   -0.000001  -0.000000  -0.000014   0.002549   0.016987   0.000013
     2  N   -0.000002   0.000003   0.002153  -0.025130  -0.007187  -0.000057
     3  O   -0.000013  -0.000000   0.000441  -0.002034   0.000213   0.000001
     4  C   -0.006137  -0.000315  -0.064046   0.308582  -0.021274   0.001360
     5  C   -0.000468  -0.000290  -0.007774  -0.052686   0.373726  -0.031946
     6  N   -0.054718   0.005210   0.003405  -0.000473  -0.034381   0.335344
     7  C    0.316261  -0.059196  -0.051690  -0.001366   0.001698  -0.023339
     8  H   -0.048887  -0.001995  -0.002835   0.001386  -0.000033   0.001023
     9  C   -0.045456  -0.003561   0.003450  -0.000055  -0.000082  -0.005852
    10  C   -0.007956   0.000632  -0.000095   0.000015   0.000001   0.000770
    11  C   -0.052955  -0.003041   0.003795  -0.000019  -0.000005   0.000039
    12  C    0.317710  -0.051226  -0.055692  -0.002837   0.000062  -0.000170
    13  C    4.996142   0.435493   0.288672  -0.073716  -0.000088   0.003166
    14  H    0.435493   0.539067  -0.053644   0.003111   0.000000  -0.000098
    15  N    0.288672  -0.053644   6.898238   0.586379  -0.000100  -0.000169
    16  C   -0.073716   0.003111   0.586379   4.751206   0.001835  -0.000180
    17  H   -0.000088   0.000000  -0.000100   0.001835   0.374448  -0.002603
    18  H    0.003166  -0.000098  -0.000169  -0.000180  -0.002603   0.313603
    19  H    0.004320  -0.000008  -0.000063   0.000002   0.000000   0.003634
    20  H   -0.003951   0.002801  -0.000059  -0.000002   0.000001   0.000095
    21  H    0.000279   0.000072  -0.000024   0.000005   0.000016   0.001380
    22  H   -0.000316  -0.000078   0.000005  -0.000000  -0.000000  -0.000141
    23  H    0.004298  -0.000054  -0.000061  -0.000002   0.000000  -0.000004
    24  H   -0.003541   0.003547  -0.000127  -0.000000   0.000000   0.000003
    25  H   -0.034550   0.004318  -0.001728   0.002266   0.000049  -0.000171
    26  H   -0.040387  -0.003167  -0.000009   0.000982   0.000001   0.000012
    27  H    0.004583  -0.000015  -0.038455   0.405779  -0.000082   0.000000
              19         20         21         22         23         24
     1  O    0.000000  -0.000000   0.000000   0.000000  -0.000000  -0.000000
     2  N   -0.000000  -0.000000  -0.000000   0.000000  -0.000000  -0.000000
     3  O    0.000000   0.000000   0.000000   0.000000  -0.000000   0.000000
     4  C   -0.000008   0.000002  -0.000036  -0.000000   0.000005  -0.000004
     5  C   -0.000170  -0.000038   0.000252  -0.000000   0.000015  -0.000000
     6  N   -0.003659   0.004508   0.003776   0.000099  -0.000079   0.000066
     7  C   -0.039466  -0.041023  -0.006864   0.004603  -0.000410  -0.000106
     8  H   -0.003094  -0.001447  -0.000050  -0.000052   0.000011  -0.000053
     9  C    0.398919   0.402124  -0.041339  -0.038262   0.004416  -0.001672
    10  C   -0.039732  -0.035632   0.396310   0.405432  -0.036970  -0.045842
    11  C    0.004234  -0.001989  -0.041739  -0.036020   0.402691   0.400260
    12  C   -0.000468   0.000490  -0.001589   0.004105  -0.035751  -0.044431
    13  C    0.004320  -0.003951   0.000279  -0.000316   0.004298  -0.003541
    14  H   -0.000008   0.002801   0.000072  -0.000078  -0.000054   0.003547
    15  N   -0.000063  -0.000059  -0.000024   0.000005  -0.000061  -0.000127
    16  C    0.000002  -0.000002   0.000005  -0.000000  -0.000002  -0.000000
    17  H    0.000000   0.000001   0.000016  -0.000000   0.000000   0.000000
    18  H    0.003634   0.000095   0.001380  -0.000141  -0.000004   0.000003
    19  H    0.533412  -0.022523  -0.002580  -0.002328  -0.000092  -0.000076
    20  H   -0.022523   0.504905   0.003922  -0.003085  -0.000074   0.002295
    21  H   -0.002580   0.003922   0.559541  -0.027759  -0.003482   0.004512
    22  H   -0.002328  -0.003085  -0.027759   0.522573  -0.002117  -0.003447
    23  H   -0.000092  -0.000074  -0.003482  -0.002117   0.523687  -0.026298
    24  H   -0.000076   0.002295   0.004512  -0.003447  -0.026298   0.551798
    25  H   -0.000028   0.000045   0.001830  -0.000086  -0.002645   0.004147
    26  H    0.000012  -0.000036  -0.000079  -0.000074  -0.002419  -0.003063
    27  H   -0.000000   0.000000  -0.000000   0.000000  -0.000000   0.000000
              25         26         27
     1  O   -0.000003   0.000000   0.000047
     2  N   -0.000009  -0.000005  -0.001170
     3  O   -0.000004   0.000000   0.007118
     4  C   -0.000280   0.000152  -0.065918
     5  C    0.000334  -0.000096   0.002050
     6  N    0.001181   0.000052  -0.000005
     7  C   -0.009974   0.005177  -0.000372
     8  H   -0.000100  -0.000062  -0.000072
     9  C    0.001172  -0.000448   0.000006
    10  C   -0.002231   0.003901  -0.000000
    11  C   -0.038636  -0.033761   0.000003
    12  C    0.392691   0.404992  -0.000217
    13  C   -0.034550  -0.040387   0.004583
    14  H    0.004318  -0.003167  -0.000015
    15  N   -0.001728  -0.000009  -0.038455
    16  C    0.002266   0.000982   0.405779
    17  H    0.000049   0.000001  -0.000082
    18  H   -0.000171   0.000012   0.000000
    19  H   -0.000028   0.000012  -0.000000
    20  H    0.000045  -0.000036   0.000000
    21  H    0.001830  -0.000079  -0.000000
    22  H   -0.000086  -0.000074   0.000000
    23  H   -0.002645  -0.002419  -0.000000
    24  H    0.004147  -0.003063   0.000000
    25  H    0.538043  -0.024783   0.000030
    26  H   -0.024783   0.499364  -0.000073
    27  H    0.000030  -0.000073   0.433531
 Mulliken charges:
               1
     1  O   -0.503354
     2  N    0.492132
     3  O   -0.466311
     4  C    0.008873
     5  C    0.187266
     6  N   -0.772207
     7  C    0.042841
     8  H    0.209225
     9  C   -0.360276
    10  C   -0.313070
    11  C   -0.322877
    12  C   -0.315000
    13  C    0.002220
    14  H    0.182435
    15  N   -0.509954
    16  C    0.094405
    17  H    0.296799
    18  H    0.404289
    19  H    0.169763
    20  H    0.188672
    21  H    0.153646
    22  H    0.176952
    23  H    0.175335
    24  H    0.162032
    25  H    0.169123
    26  H    0.193816
    27  H    0.253229
 Sum of Mulliken charges =  -0.00000
 Mulliken charges with hydrogens summed into heavy atoms:
               1
     1  O   -0.503354
     2  N    0.492132
     3  O   -0.466311
     4  C    0.008873
     5  C    0.484065
     6  N   -0.367918
     7  C    0.252065
     9  C   -0.001842
    10  C    0.017528
    11  C    0.014490
    12  C    0.047939
    13  C    0.184655
    15  N   -0.509954
    16  C    0.347634
 Electronic spatial extent (au):  <R**2>=           2884.8968
 Charge=             -0.0000 electrons
 Dipole moment (field-independent basis, Debye):
    X=              6.9746    Y=             -3.5693    Z=             -0.7275  Tot=              7.8686
 Quadrupole moment (field-independent basis, Debye-Ang):
   XX=           -101.0823   YY=            -84.0516   ZZ=            -83.3378
   XY=             -2.8856   XZ=              3.2388   YZ=              3.0765
 Traceless Quadrupole moment (field-independent basis, Debye-Ang):
   XX=            -11.5917   YY=              5.4389   ZZ=              6.1528
   XY=             -2.8856   XZ=              3.2388   YZ=              3.0765
 Octapole moment (field-independent basis, Debye-Ang**2):
  XXX=             87.2227  YYY=            -33.7107  ZZZ=              3.8227  XYY=              4.7026
  XXY=              9.0755  XXZ=            -20.5543  XZZ=             -5.4952  YZZ=             -3.5648
  YYZ=              4.9807  XYZ=              0.4100
 Hexadecapole moment (field-independent basis, Debye-Ang**3):
 XXXX=          -3023.0235 YYYY=           -654.9750 ZZZZ=           -391.3066 XXXY=            -23.2401
 XXXZ=             46.7834 YYYX=            -14.2712 YYYZ=             19.3138 ZZZX=            -14.4760
 ZZZY=              3.4556 XXYY=           -582.0593 XXZZ=           -504.5252 YYZZ=           -186.2583
 XXYZ=              1.5174 YYXZ=              1.8349 ZZXY=              0.1269
 N-N= 9.363266020911D+02 E-N=-3.419051738851D+03  KE= 6.596294334719D+02
 Calling FoFJK, ICntrl=  10002127 FMM=F ISym2X=0 I1Cent= 0 IOpClX= 0 NMat=1 NMatS=1 NMatT=0.
 ***** Axes restored to original set *****
 -------------------------------------------------------------------
 Center     Atomic                   Forces (Hartrees/Bohr)
 Number     Number              X              Y              Z
 -------------------------------------------------------------------
      1        8           0.000006084    0.000091947    0.000016530
      2        7           0.000104329    0.000022940   -0.000037055
      3        8          -0.000035847   -0.000097083    0.000002718
      4        6          -0.000050812   -0.000041337    0.000000637
      5        6           0.000025960    0.000003118    0.000008069
      6        7          -0.000040512    0.000013393    0.000013717
      7        6          -0.000009034   -0.000028971   -0.000038350
      8        1           0.000012895   -0.000002537    0.000039616
      9        6           0.000030733    0.000016367   -0.000035199
     10        6           0.000003035    0.000044222    0.000025378
     11        6           0.000038522   -0.000033967    0.000007512
     12        6          -0.000053703    0.000010060    0.000043415
     13        6           0.000038553    0.000000204   -0.000007173
     14        1          -0.000015208    0.000026150    0.000018144
     15        7           0.000020428   -0.000022755   -0.000021770
     16        6          -0.000062608    0.000069300    0.000052895
     17        1           0.000028373   -0.000057470   -0.000015803
     18        1          -0.000016052   -0.000024387    0.000003237
     19        1          -0.000013157   -0.000025322    0.000021543
     20        1          -0.000028869    0.000004337    0.000023265
     21        1           0.000004130   -0.000024368   -0.000018173
     22        1          -0.000024021   -0.000017508   -0.000004887
     23        1          -0.000015950    0.000007138   -0.000030994
     24        1          -0.000024444    0.000021890   -0.000002143
     25        1           0.000022845   -0.000004445   -0.000026431
     26        1           0.000008958    0.000024801   -0.000025941
     27        1           0.000045373    0.000024283   -0.000012755
 -------------------------------------------------------------------
 Cartesian Forces:  Max     0.000104329 RMS     0.000033202

 GradGradGradGradGradGradGradGradGradGradGradGradGradGradGradGradGradGrad
 Berny optimization.
 FormGI is forming the generalized inverse of G from B-inverse, IUseBI=4.
 Internal  Forces:  Max     0.000100454 RMS     0.000021888
 Search for a local minimum.
 Step number   1 out of a maximum of  162
 All quantities printed in internal units (Hartrees-Bohrs-Radians)
 Mixed Optimization -- En-DIIS/RFO-DIIS
 Second derivative matrix not updated -- first step.
 ITU=  0
     Eigenvalues ---    0.00549   0.00575   0.00886   0.00933   0.00934
     Eigenvalues ---    0.01355   0.01553   0.01706   0.01838   0.01927
     Eigenvalues ---    0.02010   0.02220   0.02436   0.02489   0.03849
     Eigenvalues ---    0.04025   0.04205   0.04542   0.04753   0.04844
     Eigenvalues ---    0.04887   0.05221   0.05580   0.05618   0.06228
     Eigenvalues ---    0.06959   0.07409   0.07883   0.08033   0.08128
     Eigenvalues ---    0.08181   0.08280   0.08977   0.12104   0.12160
     Eigenvalues ---    0.14131   0.15872   0.15998   0.15999   0.16648
     Eigenvalues ---    0.18463   0.20553   0.22478   0.23323   0.24960
     Eigenvalues ---    0.25000   0.25000   0.25967   0.27626   0.27942
     Eigenvalues ---    0.28848   0.29282   0.29321   0.33669   0.33807
     Eigenvalues ---    0.33826   0.33876   0.34020   0.34097   0.34109
     Eigenvalues ---    0.34117   0.34146   0.34202   0.34917   0.35250
     Eigenvalues ---    0.35590   0.37063   0.37301   0.37529   0.45343
     Eigenvalues ---    0.49848   0.55428   0.67184   0.84500   0.84670
 RFO step:  Lambda=-3.92559516D-07 EMin= 5.48668759D-03
 Linear search not attempted -- first point.
 Iteration  1 RMS(Cart)=  0.00079821 RMS(Int)=  0.00000022
 Iteration  2 RMS(Cart)=  0.00000030 RMS(Int)=  0.00000003
 Variable       Old X    -DE/DX   Delta X   Delta X   Delta X     New X
                                 (Linear)    (Quad)   (Total)
    R1        2.35576  -0.00009   0.00000  -0.00010  -0.00010   2.35566
    R2        2.35491  -0.00010   0.00000  -0.00012  -0.00012   2.35479
    R3        2.75395   0.00007   0.00000   0.00020   0.00020   2.75415
    R4        2.58459   0.00005   0.00000   0.00010   0.00010   2.58469
    R5        2.74984   0.00007   0.00000   0.00019   0.00019   2.75002
    R6        2.53574   0.00008   0.00000   0.00013   0.00013   2.53587
    R7        2.05271   0.00007   0.00000   0.00019   0.00019   2.05290
    R8        2.75229   0.00002   0.00000   0.00005   0.00005   2.75235
    R9        1.91580   0.00003   0.00000   0.00006   0.00006   1.91586
   R10        2.07625   0.00004   0.00000   0.00012   0.00012   2.07637
   R11        2.89575   0.00002   0.00000   0.00008   0.00008   2.89583
   R12        2.91891   0.00004   0.00000   0.00019   0.00019   2.91910
   R13        2.89518   0.00001   0.00000   0.00003   0.00003   2.89521
   R14        2.07656   0.00003   0.00000   0.00010   0.00010   2.07666
   R15        2.07166   0.00003   0.00000   0.00009   0.00009   2.07175
   R16        2.89173   0.00001   0.00000   0.00002   0.00002   2.89175
   R17        2.07297   0.00003   0.00000   0.00008   0.00008   2.07305
   R18        2.07146   0.00003   0.00000   0.00008   0.00008   2.07155
   R19        2.89283   0.00001   0.00000   0.00003   0.00003   2.89286
   R20        2.07132   0.00003   0.00000   0.00010   0.00010   2.07142
   R21        2.07539   0.00003   0.00000   0.00009   0.00009   2.07548
   R22        2.89164   0.00003   0.00000   0.00010   0.00010   2.89174
   R23        2.07085   0.00003   0.00000   0.00009   0.00009   2.07094
   R24        2.06991   0.00003   0.00000   0.00010   0.00010   2.07000
   R25        2.07892   0.00003   0.00000   0.00010   0.00010   2.07902
   R26        2.74321   0.00000   0.00000   0.00001   0.00001   2.74322
   R27        2.44460  -0.00003   0.00000  -0.00004  -0.00004   2.44456
   R28        2.05810   0.00005   0.00000   0.00014   0.00014   2.05824
    A1        2.15303  -0.00005   0.00000  -0.00019  -0.00019   2.15284
    A2        2.08114   0.00004   0.00000   0.00016   0.00016   2.08130
    A3        2.04895   0.00001   0.00000   0.00004   0.00004   2.04900
    A4        2.00285   0.00005   0.00000   0.00017   0.00017   2.00302
    A5        2.02676  -0.00006   0.00000  -0.00025  -0.00025   2.02651
    A6        2.25172   0.00001   0.00000   0.00008   0.00008   2.25180
    A7        2.22622  -0.00003   0.00000  -0.00011  -0.00011   2.22612
    A8        2.04532   0.00002   0.00000   0.00007   0.00007   2.04540
    A9        2.01154   0.00001   0.00000   0.00003   0.00003   2.01157
   A10        2.23541  -0.00000   0.00000   0.00000   0.00000   2.23541
   A11        2.01728   0.00001   0.00000   0.00002   0.00002   2.01730
   A12        2.02339  -0.00001   0.00000  -0.00007  -0.00007   2.02332
   A13        1.90798  -0.00002   0.00000  -0.00024  -0.00024   1.90774
   A14        1.87098   0.00001   0.00000   0.00013   0.00013   1.87111
   A15        1.97093   0.00002   0.00000   0.00026   0.00026   1.97120
   A16        1.92961   0.00000   0.00000  -0.00013  -0.00013   1.92948
   A17        1.88553   0.00000   0.00000  -0.00009  -0.00009   1.88544
   A18        1.89919  -0.00001   0.00000   0.00005   0.00005   1.89924
   A19        1.94207   0.00001   0.00000   0.00015   0.00015   1.94221
   A20        1.91820  -0.00000   0.00000   0.00001   0.00001   1.91821
   A21        1.88895   0.00001   0.00000   0.00006   0.00006   1.88901
   A22        1.93585   0.00000   0.00000   0.00000   0.00000   1.93586
   A23        1.92111  -0.00001   0.00000  -0.00004  -0.00004   1.92107
   A24        1.85511  -0.00001   0.00000  -0.00019  -0.00019   1.85493
   A25        1.94871   0.00000   0.00000   0.00007   0.00007   1.94878
   A26        1.91797   0.00000   0.00000   0.00003   0.00003   1.91800
   A27        1.91046   0.00000   0.00000  -0.00002  -0.00002   1.91044
   A28        1.90604   0.00000   0.00000   0.00000   0.00000   1.90604
   A29        1.92260  -0.00000   0.00000   0.00003   0.00003   1.92263
   A30        1.85578  -0.00001   0.00000  -0.00013  -0.00013   1.85565
   A31        1.95963   0.00000   0.00000   0.00005   0.00005   1.95968
   A32        1.91880   0.00000   0.00000   0.00004   0.00004   1.91885
   A33        1.90310  -0.00000   0.00000   0.00001   0.00001   1.90312
   A34        1.92275   0.00000   0.00000   0.00003   0.00003   1.92277
   A35        1.89686  -0.00000   0.00000   0.00001   0.00001   1.89687
   A36        1.85974  -0.00001   0.00000  -0.00015  -0.00015   1.85959
   A37        1.91854   0.00000   0.00000   0.00016   0.00016   1.91869
   A38        1.93638  -0.00000   0.00000  -0.00004  -0.00004   1.93635
   A39        1.93017  -0.00000   0.00000  -0.00003  -0.00003   1.93014
   A40        1.91469   0.00000   0.00000   0.00002   0.00002   1.91471
   A41        1.89409   0.00001   0.00000   0.00007   0.00007   1.89416
   A42        1.86893  -0.00001   0.00000  -0.00019  -0.00019   1.86874
   A43        1.92467   0.00000   0.00000   0.00022   0.00022   1.92490
   A44        1.81756   0.00000   0.00000  -0.00006  -0.00006   1.81750
   A45        2.04081  -0.00000   0.00000   0.00009   0.00009   2.04090
   A46        1.86630  -0.00001   0.00000  -0.00013  -0.00013   1.86617
   A47        1.96781   0.00001   0.00000   0.00004   0.00004   1.96785
   A48        1.82909  -0.00001   0.00000  -0.00022  -0.00022   1.82887
   A49        2.12488   0.00002   0.00000   0.00021   0.00021   2.12509
   A50        2.26751  -0.00000   0.00000   0.00006   0.00006   2.26757
   A51        1.99834  -0.00001   0.00000  -0.00012  -0.00012   1.99822
   A52        2.01713   0.00002   0.00000   0.00007   0.00007   2.01720
    D1       -0.07942  -0.00001   0.00000  -0.00092  -0.00092  -0.08034
    D2        3.00277  -0.00001   0.00000  -0.00090  -0.00090   3.00187
    D3        3.05039   0.00000   0.00000   0.00012   0.00012   3.05051
    D4       -0.15061   0.00000   0.00000   0.00014   0.00014  -0.15047
    D5        3.11729   0.00000   0.00000   0.00018   0.00018   3.11747
    D6       -0.04068  -0.00000   0.00000   0.00005   0.00005  -0.04063
    D7        0.04435   0.00001   0.00000   0.00018   0.00018   0.04452
    D8       -3.11362   0.00000   0.00000   0.00004   0.00004  -3.11358
    D9        2.91835   0.00000   0.00000   0.00023   0.00023   2.91858
   D10       -0.24603   0.00001   0.00000   0.00070   0.00070  -0.24533
   D11       -0.29268   0.00000   0.00000   0.00025   0.00025  -0.29243
   D12        2.82612   0.00001   0.00000   0.00072   0.00072   2.82684
   D13       -0.12684  -0.00001   0.00000  -0.00054  -0.00054  -0.12739
   D14       -3.13430  -0.00000   0.00000  -0.00005  -0.00005  -3.13435
   D15        3.03085  -0.00001   0.00000  -0.00041  -0.00041   3.03044
   D16        0.02340  -0.00000   0.00000   0.00008   0.00008   0.02348
   D17       -1.35413   0.00000   0.00000   0.00035   0.00035  -1.35378
   D18        2.83691   0.00000   0.00000   0.00056   0.00056   2.83747
   D19        0.74540   0.00001   0.00000   0.00025   0.00025   0.74565
   D20        1.65293  -0.00000   0.00000  -0.00014  -0.00014   1.65279
   D21       -0.43921  -0.00000   0.00000   0.00007   0.00007  -0.43915
   D22       -2.53073  -0.00000   0.00000  -0.00024  -0.00024  -2.53097
   D23       -1.12213  -0.00002   0.00000  -0.00076  -0.00076  -1.12289
   D24        1.02914  -0.00001   0.00000  -0.00065  -0.00065   1.02849
   D25        3.04813  -0.00002   0.00000  -0.00083  -0.00083   3.04729
   D26        3.08280  -0.00000   0.00000  -0.00048  -0.00048   3.08232
   D27       -1.04912   0.00000   0.00000  -0.00037  -0.00037  -1.04949
   D28        0.96987  -0.00000   0.00000  -0.00056  -0.00056   0.96931
   D29        1.01468   0.00000   0.00000  -0.00033  -0.00033   1.01435
   D30       -3.11724   0.00001   0.00000  -0.00022  -0.00022  -3.11746
   D31       -1.09825   0.00000   0.00000  -0.00041  -0.00041  -1.09865
   D32        1.01156   0.00002   0.00000   0.00090   0.00090   1.01246
   D33        3.00833   0.00001   0.00000   0.00082   0.00082   3.00915
   D34       -1.26684   0.00001   0.00000   0.00055   0.00055  -1.26630
   D35        3.12389   0.00001   0.00000   0.00071   0.00071   3.12460
   D36       -1.16252   0.00000   0.00000   0.00062   0.00062  -1.16190
   D37        0.84549  -0.00000   0.00000   0.00036   0.00036   0.84584
   D38       -1.06366   0.00000   0.00000   0.00054   0.00054  -1.06312
   D39        0.93312  -0.00000   0.00000   0.00045   0.00045   0.93357
   D40        2.94113  -0.00001   0.00000   0.00018   0.00018   2.94131
   D41       -0.94857  -0.00001   0.00000   0.00005   0.00005  -0.94852
   D42        1.16917  -0.00000   0.00000   0.00012   0.00012   1.16929
   D43       -3.08210  -0.00001   0.00000  -0.00002  -0.00002  -3.08212
   D44       -3.08971  -0.00001   0.00000  -0.00006  -0.00006  -3.08977
   D45       -0.97197  -0.00000   0.00000   0.00001   0.00001  -0.97196
   D46        1.05995  -0.00001   0.00000  -0.00013  -0.00013   1.05981
   D47        1.14541   0.00000   0.00000   0.00019   0.00019   1.14561
   D48       -3.02003   0.00001   0.00000   0.00026   0.00026  -3.01977
   D49       -0.98812   0.00000   0.00000   0.00012   0.00012  -0.98800
   D50        0.91736  -0.00000   0.00000  -0.00010  -0.00010   0.91726
   D51        3.06445   0.00000   0.00000   0.00000   0.00000   3.06446
   D52       -1.18581  -0.00000   0.00000  -0.00014  -0.00014  -1.18596
   D53       -1.20729  -0.00001   0.00000  -0.00018  -0.00018  -1.20747
   D54        0.93980  -0.00000   0.00000  -0.00008  -0.00008   0.93972
   D55        2.97272  -0.00001   0.00000  -0.00023  -0.00023   2.97249
   D56        3.04390  -0.00000   0.00000  -0.00005  -0.00005   3.04386
   D57       -1.09219   0.00001   0.00000   0.00005   0.00005  -1.09214
   D58        0.94073  -0.00000   0.00000  -0.00010  -0.00010   0.94063
   D59       -0.95817   0.00001   0.00000   0.00029   0.00029  -0.95788
   D60        1.16269   0.00001   0.00000   0.00040   0.00040   1.16309
   D61       -3.04928  -0.00000   0.00000   0.00012   0.00012  -3.04916
   D62       -3.10304  -0.00000   0.00000   0.00018   0.00018  -3.10286
   D63       -0.98218   0.00000   0.00000   0.00029   0.00029  -0.98189
   D64        1.08903  -0.00001   0.00000   0.00001   0.00001   1.08905
   D65        1.14861   0.00001   0.00000   0.00034   0.00034   1.14895
   D66       -3.01371   0.00001   0.00000   0.00045   0.00045  -3.01327
   D67       -0.94250  -0.00000   0.00000   0.00017   0.00017  -0.94233
   D68        1.03396  -0.00000   0.00000  -0.00046  -0.00046   1.03351
   D69       -0.93167  -0.00001   0.00000  -0.00042  -0.00042  -0.93210
   D70       -2.93279   0.00000   0.00000  -0.00009  -0.00009  -2.93289
   D71       -1.09982  -0.00000   0.00000  -0.00053  -0.00053  -1.10034
   D72       -3.06545  -0.00001   0.00000  -0.00049  -0.00049  -3.06595
   D73        1.21661   0.00000   0.00000  -0.00017  -0.00017   1.21645
   D74       -3.13630   0.00000   0.00000  -0.00035  -0.00035  -3.13665
   D75        1.18125  -0.00000   0.00000  -0.00032  -0.00032   1.18093
   D76       -0.81987   0.00001   0.00000   0.00001   0.00001  -0.81986
   D77        0.94533  -0.00001   0.00000  -0.00066  -0.00066   0.94466
   D78       -1.31278  -0.00002   0.00000  -0.00111  -0.00111  -1.31390
   D79        2.94691  -0.00001   0.00000  -0.00084  -0.00084   2.94607
   D80       -0.09668  -0.00001   0.00000   0.00001   0.00001  -0.09666
   D81        3.06790  -0.00001   0.00000  -0.00046  -0.00046   3.06745
         Item               Value     Threshold  Converged?
 Maximum Force            0.000100     0.000450     YES
 RMS     Force            0.000022     0.000300     YES
 Maximum Displacement     0.004027     0.001800     NO 
 RMS     Displacement     0.000798     0.001200     YES
 Predicted change in Energy=-1.962942D-07
 GradGradGradGradGradGradGradGradGradGradGradGradGradGradGradGradGradGrad

                          Input orientation:                          
 ---------------------------------------------------------------------
 Center     Atomic      Atomic             Coordinates (Angstroms)
 Number     Number       Type             X           Y           Z
 ---------------------------------------------------------------------
      1          8           0        3.310993   -1.338757   -0.604884
      2          7           0        2.882086   -0.196173   -0.351007
      3          8           0        3.571654    0.835432   -0.465287
      4          6           0        1.502422   -0.035201    0.090276
      5          6           0        0.762827   -1.185751    0.089914
      6          7           0       -0.515713   -1.336174    0.468687
      7          6           0       -1.385167   -0.356413    1.105435
      8          1           0       -1.128876   -0.281663    2.171276
      9          6           0       -2.826045   -0.848363    0.931844
     10          6           0       -3.228943   -0.878897   -0.545995
     11          6           0       -3.007094    0.476914   -1.219956
     12          6           0       -1.584889    1.003273   -1.010803
     13          6           0       -1.261359    1.052382    0.484043
     14          1           0       -2.063610    1.630289    0.966527
     15          7           0       -0.046630    1.793410    0.771443
     16          6           0        1.125029    1.296404    0.539889
     17          1           0        1.249064   -2.088364   -0.269272
     18          1           0       -0.884830   -2.277902    0.399754
     19          1           0       -2.940431   -1.840537    1.390247
     20          1           0       -3.487957   -0.174526    1.488389
     21          1           0       -2.648362   -1.644433   -1.075444
     22          1           0       -4.280695   -1.175802   -0.631737
     23          1           0       -3.228958    0.402842   -2.290859
     24          1           0       -3.716376    1.204556   -0.803171
     25          1           0       -0.853361    0.370984   -1.526610
     26          1           0       -1.483605    2.013409   -1.422222
     27          1           0        1.964504    1.965129    0.725316
 ---------------------------------------------------------------------
                    Distance matrix (angstroms):
                    1          2          3          4          5
     1  O    0.000000
     2  N    1.246561   0.000000
     3  O    2.194203   1.246103   0.000000
     4  C    2.335259   1.457434   2.312655   0.000000
     5  C    2.645619   2.380112   3.504702   1.367760   0.000000
     6  N    3.974448   3.676484   4.721732   2.430761   1.341925
     7  C    5.093536   4.511800   5.334579   3.077645   2.516538
     8  H    5.341999   4.738885   5.504031   3.363783   2.954317
     9  C    6.345491   5.886749   6.761486   4.483871   3.701713
    10  C    6.556348   6.152138   7.013812   4.847936   4.053736
    11  C    6.602514   5.990872   6.631590   4.723844   4.323485
    12  C    5.442383   4.672030   5.188034   3.438356   3.393402
    13  C    5.273491   4.407304   4.930143   2.996059   3.043338
    14  H    6.338053   5.434313   5.868397   4.032152   4.085006
    15  N    4.793577   3.714258   3.941980   2.491460   3.161504
    16  C    3.610127   2.471584   2.684930   1.455249   2.548482
    17  H    2.219481   2.500765   3.739174   2.099748   1.086347
    18  H    4.415452   4.368854   5.504670   3.290054   2.000892
    19  H    6.581233   6.295840   7.280870   4.968713   3.979162
    20  H    7.208533   6.630331   7.394253   5.184402   4.587753
    21  H    5.985714   5.762649   6.723885   4.601906   3.633822
    22  H    7.593484   7.234909   8.107537   5.938579   5.094900
    23  H    6.974714   6.439464   7.054657   5.314851   4.911829
    24  H    7.476073   6.760635   7.305190   5.437931   5.155040
    25  H    4.595066   3.956927   4.574153   2.886004   2.765618
    26  H    5.907049   5.008893   5.278163   3.924387   4.191377
    27  H    3.807640   2.582954   2.297103   2.148980   3.431590
                    6          7          8          9         10
     6  N    0.000000
     7  C    1.456478   0.000000
     8  H    2.094463   1.098768   0.000000
     9  C    2.406264   1.532409   2.176631   0.000000
    10  C    2.932626   2.529766   3.485761   1.532079   0.000000
    11  C    3.513656   2.955084   3.950139   2.533649   1.530250
    12  C    2.967329   2.523311   3.461884   2.956839   2.541953
    13  C    2.502284   1.544720   2.154990   2.502318   2.943163
    14  H    3.382858   2.103940   2.445548   2.593496   3.153052
    15  N    3.178993   2.554402   2.727034   3.837947   4.359356
    16  C    3.102833   3.058223   3.198720   4.512719   4.986798
    17  H    2.055435   3.439280   3.856818   4.425697   4.646712
    18  H    1.013829   2.107235   2.680078   2.468809   2.889034
    19  H    2.642520   2.168545   2.514324   1.098921   2.181060
    20  H    3.350143   2.145102   2.458267   1.096324   2.168397
    21  H    2.650954   2.830351   3.834993   2.166680   1.097012
    22  H    3.925779   3.474658   4.311651   2.160558   1.096215
    23  H    4.242755   3.938381   4.978910   3.480469   2.165042
    24  H    4.279857   3.393219   4.213234   2.831509   2.155113
    25  H    2.647566   2.782011   3.765132   3.379687   2.857832
    26  H    3.966366   3.466237   4.278600   3.941257   3.489902
    27  H    4.137142   4.093208   4.087527   5.559474   6.056122
                   11         12         13         14         15
    11  C    0.000000
    12  C    1.530838   0.000000
    13  C    2.506465   1.530245   0.000000
    14  H    2.645968   2.128887   1.100170   0.000000
    15  N    3.803048   2.483336   1.451650   2.032946   0.000000
    16  C    4.565419   3.135957   2.399481   3.234333   1.293606
    17  H    5.059578   4.259034   4.090720   5.131216   4.222568
    18  H    3.836205   3.639486   3.352561   4.121250   4.173285
    19  H    3.491158   3.961034   3.465468   3.604856   4.686424
    20  H    2.826789   3.354824   2.733451   2.357639   4.028587
    21  H    2.156312   2.854032   3.410072   3.903253   4.690284
    22  H    2.167841   3.487037   3.914865   3.917150   5.358399
    23  H    1.096149   2.168415   3.463153   3.670862   4.630182
    24  H    1.098296   2.151014   2.776182   2.458601   4.036483
    25  H    2.178032   1.095892   2.161826   3.044057   2.820489
    26  H    2.173188   1.095399   2.146349   2.487832   2.631628
    27  H    5.542171   4.066629   3.361177   4.049198   2.018980
                   16         17         18         19         20
    16  C    0.000000
    17  H    3.482353   0.000000
    18  H    4.103027   2.244332   0.000000
    19  H    5.204947   4.513014   2.323330   0.000000
    20  H    4.933855   5.402918   3.519316   1.756419   0.000000
    21  H    5.049386   4.004613   2.384856   2.490661   3.072261
    22  H    6.058578   5.616261   3.716248   2.515274   2.475060
    23  H    5.269610   5.508684   4.463263   4.320479   3.831860
    24  H    5.025081   5.981970   4.646740   3.832202   2.684268
    25  H    3.006799   3.471237   3.275434   4.213638   4.040904
    26  H    3.341997   5.061750   4.700370   4.988509   4.156458
    27  H    1.089172   4.234603   5.121329   6.243686   5.906754
                   21         22         23         24         25
    21  H    0.000000
    22  H    1.755278   0.000000
    23  H    2.450644   2.520109   0.000000
    24  H    3.054755   2.452336   1.758845   0.000000
    25  H    2.736327   3.865226   2.495707   3.068397   0.000000
    26  H    3.854442   4.315049   2.528777   2.454125   1.762289
    27  H    6.127823   7.121065   6.205651   5.931875   3.943708
                   26         27
    26  H    0.000000
    27  H    4.062476   0.000000
 Stoichiometry    C9H13N3O2
 Framework group  C1[X(C9H13N3O2)]
 Deg. of freedom    75
 Full point group                 C1      NOp   1
 Largest Abelian subgroup         C1      NOp   1
 Largest concise Abelian subgroup C1      NOp   1
                         Standard orientation:                         
 ---------------------------------------------------------------------
 Center     Atomic      Atomic             Coordinates (Angstroms)
 Number     Number       Type             X           Y           Z
 ---------------------------------------------------------------------
      1          8           0       -3.417852   -1.368169    0.538991
      2          7           0       -2.999171   -0.225364    0.269518
      3          8           0       -3.706935    0.797797    0.340123
      4          6           0       -1.610393   -0.053410   -0.137717
      5          6           0       -0.854023   -1.191984   -0.089533
      6          7           0        0.436596   -1.331398   -0.429574
      7          6           0        1.308613   -0.353537   -1.065737
      8          1           0        1.080788   -0.307976   -2.139661
      9          6           0        2.751317   -0.818770   -0.841143
     10          6           0        3.113633   -0.808123    0.647439
     11          6           0        2.853059    0.559610    1.282320
     12          6           0        1.429489    1.058689    1.021869
     13          6           0        1.146695    1.067442   -0.481992
     14          1           0        1.953270    1.646207   -0.956169
     15          7           0       -0.070537    1.782486   -0.820140
     16          6           0       -1.240609    1.272917   -0.608745
     17          1           0       -1.336492   -2.093318    0.277849
     18          1           0        0.817663   -2.265377   -0.327986
     19          1           0        2.893102   -1.819594   -1.272278
     20          1           0        3.418238   -0.148047   -1.395465
     21          1           0        2.530118   -1.569883    1.179105
     22          1           0        4.166922   -1.086519    0.768944
     23          1           0        3.046325    0.514310    2.360345
     24          1           0        3.562663    1.288155    0.867665
     25          1           0        0.693493    0.427453    1.532582
     26          1           0        1.301830    2.076562    1.405976
     27          1           0       -2.084515    1.923933   -0.833016
 ---------------------------------------------------------------------
 Rotational constants (GHZ):           1.5145106           0.4408112           0.4004443
[...]

            Population analysis using the SCF Density.

 **********************************************************************

 Orbital symmetries:
       Occupied  (A) (A) (A) (A) (A) (A) (A) (A) (A) (A) (A) (A)
                 (A) (A) (A) (A) (A) (A) (A) (A) (A) (A) (A) (A)
                 (A) (A) (A) (A) (A) (A) (A) (A) (A) (A) (A) (A)
                 (A) (A) (A) (A) (A) (A) (A) (A) (A) (A) (A) (A)
                 (A) (A) (A) (A)
       Virtual   (A) (A) (A) (A) (A) (A) (A) (A) (A) (A) (A) (A)
                 (A) (A) (A) (A) (A) (A) (A) (A) (A) (A) (A) (A)
                 (A) (A) (A) (A) (A) (A) (A) (A) (A) (A) (A) (A)
                 (A) (A) (A) (A) (A) (A) (A) (A) (A) (A) (A) (A)
                 (A) (A) (A) (A) (A) (A) (A) (A) (A) (A) (A) (A)
                 (A) (A) (A) (A) (A) (A) (A) (A) (A) (A) (A) (A)
                 (A) (A) (A) (A) (A) (A) (A) (A) (A) (A) (A) (A)
                 (A) (A) (A) (A) (A) (A) (A) (A) (A) (A) (A) (A)
                 (A) (A) (A) (A) (A) (A) (A) (A) (A) (A) (A) (A)
                 (A) (A) (A) (A) (A) (A) (A) (A) (A) (A) (A) (A)
                 (A) (A) (A) (A) (A) (A) (A) (A) (A) (A) (A) (A)
                 (A) (A) (A) (A) (A) (A) (A) (A) (A) (A) (A) (A)
                 (A) (A) (A) (A) (A) (A) (A) (A) (A) (A) (A) (A)
                 (A) (A) (A) (A) (A) (A) (A) (A) (A) (A) (A) (A)
                 (A) (A) (A) (A) (A) (A) (A) (A) (A) (A) (A) (A)
                 (A) (A) (A) (A)
 The electronic state is 1-A.
 Alpha  occ. eigenvalues --  -20.59246 -20.58872 -15.84707 -15.63935 -15.55859
 Alpha  occ. eigenvalues --  -11.34732 -11.29724 -11.29335 -11.28677 -11.26969
 Alpha  occ. eigenvalues --  -11.25429 -11.24408 -11.23685 -11.23240  -1.57105
 Alpha  occ. eigenvalues --   -1.36681  -1.31028  -1.22589  -1.15049  -1.10284
 Alpha  occ. eigenvalues --   -1.03681  -1.01645  -0.94310  -0.90283  -0.86700
 Alpha  occ. eigenvalues --   -0.82638  -0.79105  -0.78189  -0.74439  -0.72032
 Alpha  occ. eigenvalues --   -0.70018  -0.69752  -0.68455  -0.65533  -0.63491
 Alpha  occ. eigenvalues --   -0.62166  -0.59827  -0.58915  -0.57418  -0.56079
 Alpha  occ. eigenvalues --   -0.54355  -0.52068  -0.51128  -0.48692  -0.48463
 Alpha  occ. eigenvalues --   -0.47984  -0.47300  -0.46695  -0.43661  -0.41925
 Alpha  occ. eigenvalues --   -0.39260  -0.33570
 Alpha virt. eigenvalues --    0.07280   0.12100   0.17551   0.21603   0.23323
 Alpha virt. eigenvalues --    0.25341   0.26415   0.27782   0.28836   0.29665
 Alpha virt. eigenvalues --    0.30353   0.31328   0.31843   0.32265   0.32438
 Alpha virt. eigenvalues --    0.33230   0.35843   0.37480   0.38663   0.39389
 Alpha virt. eigenvalues --    0.41208   0.42217   0.43043   0.45297   0.47481
 Alpha virt. eigenvalues --    0.47864   0.49353   0.52993   0.58714   0.59858
 Alpha virt. eigenvalues --    0.63339   0.68540   0.69807   0.71254   0.72291
 Alpha virt. eigenvalues --    0.74666   0.75664   0.76560   0.78385   0.80291
 Alpha virt. eigenvalues --    0.81548   0.83406   0.84578   0.86046   0.88877
 Alpha virt. eigenvalues --    0.89346   0.91088   0.92274   0.93566   0.94263
 Alpha virt. eigenvalues --    0.96204   0.97503   0.99243   1.00960   1.02875
 Alpha virt. eigenvalues --    1.04096   1.05369   1.07168   1.08204   1.09098
 Alpha virt. eigenvalues --    1.10907   1.11095   1.11520   1.12248   1.12927
 Alpha virt. eigenvalues --    1.13295   1.15249   1.15345   1.16583   1.17327
 Alpha virt. eigenvalues --    1.19700   1.20257   1.21667   1.22545   1.23894
 Alpha virt. eigenvalues --    1.24286   1.26252   1.26775   1.28383   1.29549
 Alpha virt. eigenvalues --    1.30739   1.33210   1.36721   1.36909   1.38679
 Alpha virt. eigenvalues --    1.44426   1.46106   1.50086   1.52582   1.54564
 Alpha virt. eigenvalues --    1.58079   1.59337   1.60297   1.63249   1.64812
 Alpha virt. eigenvalues --    1.67950   1.68416   1.71264   1.74082   1.77766
 Alpha virt. eigenvalues --    1.78992   1.84287   1.85532   1.89911   1.91960
 Alpha virt. eigenvalues --    1.93790   1.96286   1.98536   1.98658   2.02838
 Alpha virt. eigenvalues --    2.03728   2.07292   2.07746   2.11395   2.12031
 Alpha virt. eigenvalues --    2.13211   2.13316   2.18128   2.20604   2.22032
 Alpha virt. eigenvalues --    2.23168   2.24302   2.25879   2.27843   2.29202
 Alpha virt. eigenvalues --    2.29969   2.31258   2.35316   2.36208   2.38519
 Alpha virt. eigenvalues --    2.39506   2.42407   2.44588   2.44729   2.46828
 Alpha virt. eigenvalues --    2.49425   2.52684   2.53435   2.57865   2.60553
 Alpha virt. eigenvalues --    2.61015   2.64916   2.66437   2.67884   2.69989
 Alpha virt. eigenvalues --    2.71023   2.74307   2.76034   2.79608   2.83218
 Alpha virt. eigenvalues --    2.85540   2.88426   2.91569   2.92832   2.93219
 Alpha virt. eigenvalues --    2.98734   3.00619   3.03906   3.06344   3.07575
 Alpha virt. eigenvalues --    3.08872   3.18034   3.19383   3.24756   3.26048
 Alpha virt. eigenvalues --    3.32593   3.37892   3.39488   3.52137   3.67722
 Alpha virt. eigenvalues --    4.13834   4.27590   4.36362   4.40596   4.46959
 Alpha virt. eigenvalues --    4.55740   4.60546   4.63617   4.70900   4.78114
 Alpha virt. eigenvalues --    4.97034   4.99807   5.07647   5.10136
          Condensed to atoms (all electrons):
               1          2          3          4          5          6
     1  O    8.353377   0.302328  -0.083617  -0.093350   0.004157   0.000817
     2  N    0.302328   5.720012   0.305103   0.266682  -0.055663   0.001001
     3  O   -0.083617   0.305103   8.316725  -0.082277   0.004646  -0.000017
     4  C   -0.093350   0.266682  -0.082277   5.217476   0.575571  -0.048599
     5  C    0.004157  -0.055663   0.004646   0.575571   4.709612   0.317505
     6  N    0.000817   0.001001  -0.000017  -0.048599   0.317505   7.223951
     7  C    0.000001  -0.000176   0.000003   0.003891  -0.029886   0.144733
     8  H   -0.000000  -0.000008   0.000000   0.001495  -0.001406  -0.047670
     9  C    0.000000   0.000001  -0.000000  -0.000145   0.003255  -0.063888
    10  C   -0.000000  -0.000000  -0.000000  -0.000036   0.000104  -0.006966
    11  C    0.000000   0.000000  -0.000000   0.000082  -0.000312   0.001346
    12  C    0.000001  -0.000064   0.000000  -0.001639   0.002212  -0.010347
    13  C   -0.000001  -0.000001  -0.000013  -0.006134  -0.000477  -0.054727
    14  H   -0.000000   0.000003  -0.000000  -0.000314  -0.000290   0.005208
    15  N   -0.000014   0.002151   0.000441  -0.064035  -0.007769   0.003417
    16  C    0.002547  -0.025103  -0.002063   0.308490  -0.052645  -0.000457
    17  H    0.016961  -0.007175   0.000212  -0.021276   0.373721  -0.034366
    18  H    0.000013  -0.000057   0.000001   0.001361  -0.031926   0.335320
    19  H    0.000000  -0.000000   0.000000  -0.000008  -0.000170  -0.003659
    20  H   -0.000000  -0.000000   0.000000   0.000002  -0.000038   0.004505
    21  H    0.000000  -0.000000   0.000000  -0.000036   0.000252   0.003771
    22  H    0.000000   0.000000   0.000000  -0.000000  -0.000000   0.000098
    23  H   -0.000000  -0.000000  -0.000000   0.000005   0.000015  -0.000078
    24  H   -0.000000  -0.000000   0.000000  -0.000004  -0.000000   0.000066
    25  H   -0.000003  -0.000010  -0.000004  -0.000275   0.000334   0.001204
    26  H    0.000000  -0.000005   0.000000   0.000152  -0.000096   0.000051
    27  H    0.000048  -0.001170   0.007125  -0.065949   0.002049  -0.000005
               7          8          9         10         11         12
     1  O    0.000001  -0.000000   0.000000  -0.000000   0.000000   0.000001
     2  N   -0.000176  -0.000008   0.000001  -0.000000   0.000000  -0.000064
     3  O    0.000003   0.000000  -0.000000  -0.000000  -0.000000   0.000000
     4  C    0.003891   0.001495  -0.000145  -0.000036   0.000082  -0.001639
     5  C   -0.029886  -0.001406   0.003255   0.000104  -0.000312   0.002212
     6  N    0.144733  -0.047670  -0.063888  -0.006966   0.001346  -0.010347
     7  C    5.077848   0.427727   0.339886  -0.055740   0.001902  -0.046764
     8  H    0.427727   0.497916  -0.039265   0.004054  -0.000484   0.004758
     9  C    0.339886  -0.039265   5.190348   0.320953  -0.059302  -0.004921
    10  C   -0.055740   0.004054   0.320953   5.129569   0.335482  -0.052982
    11  C    0.001902  -0.000484  -0.059302   0.335482   5.121997   0.319244
    12  C   -0.046764   0.004758  -0.004921  -0.052982   0.319244   5.177787
    13  C    0.316197  -0.048910  -0.045459  -0.007955  -0.052935   0.317757
    14  H   -0.059203  -0.001991  -0.003567   0.000633  -0.003028  -0.051223
    15  N   -0.051649  -0.002836   0.003445  -0.000094   0.003797  -0.055754
    16  C   -0.001355   0.001389  -0.000056   0.000015  -0.000019  -0.002832
    17  H    0.001698  -0.000033  -0.000083   0.000001  -0.000005   0.000061
    18  H   -0.023343   0.001024  -0.005853   0.000770   0.000039  -0.000170
    19  H   -0.039467  -0.003095   0.398921  -0.039729   0.004233  -0.000468
    20  H   -0.041017  -0.001450   0.402130  -0.035633  -0.001987   0.000490
    21  H   -0.006858  -0.000050  -0.041335   0.396313  -0.041733  -0.001587
    22  H    0.004603  -0.000052  -0.038265   0.405424  -0.036015   0.004104
    23  H   -0.000410   0.000011   0.004415  -0.036965   0.402684  -0.035745
    24  H   -0.000105  -0.000053  -0.001670  -0.045839   0.400257  -0.044428
    25  H   -0.009982  -0.000099   0.001170  -0.002229  -0.038627   0.392668
    26  H    0.005175  -0.000062  -0.000447   0.003901  -0.033760   0.404980
    27  H   -0.000371  -0.000072   0.000006  -0.000000   0.000003  -0.000216
              13         14         15         16         17         18
     1  O   -0.000001  -0.000000  -0.000014   0.002547   0.016961   0.000013
     2  N   -0.000001   0.000003   0.002151  -0.025103  -0.007175  -0.000057
     3  O   -0.000013  -0.000000   0.000441  -0.002063   0.000212   0.000001
     4  C   -0.006134  -0.000314  -0.064035   0.308490  -0.021276   0.001361
     5  C   -0.000477  -0.000290  -0.007769  -0.052645   0.373721  -0.031926
     6  N   -0.054727   0.005208   0.003417  -0.000457  -0.034366   0.335320
     7  C    0.316197  -0.059203  -0.051649  -0.001355   0.001698  -0.023343
     8  H   -0.048910  -0.001991  -0.002836   0.001389  -0.000033   0.001024
     9  C   -0.045459  -0.003567   0.003445  -0.000056  -0.000083  -0.005853
    10  C   -0.007955   0.000633  -0.000094   0.000015   0.000001   0.000770
    11  C   -0.052935  -0.003028   0.003797  -0.000019  -0.000005   0.000039
    12  C    0.317757  -0.051223  -0.055754  -0.002832   0.000061  -0.000170
    13  C    4.995939   0.435472   0.288708  -0.073702  -0.000089   0.003166
    14  H    0.435472   0.539150  -0.053666   0.003107   0.000000  -0.000098
    15  N    0.288708  -0.053666   6.898245   0.586382  -0.000100  -0.000169
    16  C   -0.073702   0.003107   0.586382   4.751252   0.001831  -0.000180
    17  H   -0.000089   0.000000  -0.000100   0.001831   0.374465  -0.002601
    18  H    0.003166  -0.000098  -0.000169  -0.000180  -0.002601   0.313632
    19  H    0.004321  -0.000008  -0.000063   0.000002   0.000000   0.003635
    20  H   -0.003950   0.002800  -0.000059  -0.000002   0.000001   0.000094
    21  H    0.000279   0.000072  -0.000024   0.000005   0.000015   0.001378
    22  H   -0.000316  -0.000078   0.000005  -0.000000  -0.000000  -0.000142
    23  H    0.004296  -0.000054  -0.000061  -0.000002   0.000000  -0.000004
    24  H   -0.003537   0.003542  -0.000128  -0.000000   0.000000   0.000003
    25  H   -0.034554   0.004319  -0.001735   0.002273   0.000049  -0.000170
    26  H   -0.040371  -0.003167  -0.000001   0.000979   0.000001   0.000012
    27  H    0.004580  -0.000015  -0.038434   0.405785  -0.000082   0.000000
              19         20         21         22         23         24
     1  O    0.000000  -0.000000   0.000000   0.000000  -0.000000  -0.000000
     2  N   -0.000000  -0.000000  -0.000000   0.000000  -0.000000  -0.000000
     3  O    0.000000   0.000000   0.000000   0.000000  -0.000000   0.000000
     4  C   -0.000008   0.000002  -0.000036  -0.000000   0.000005  -0.000004
     5  C   -0.000170  -0.000038   0.000252  -0.000000   0.000015  -0.000000
     6  N   -0.003659   0.004505   0.003771   0.000098  -0.000078   0.000066
     7  C   -0.039467  -0.041017  -0.006858   0.004603  -0.000410  -0.000105
     8  H   -0.003095  -0.001450  -0.000050  -0.000052   0.000011  -0.000053
     9  C    0.398921   0.402130  -0.041335  -0.038265   0.004415  -0.001670
    10  C   -0.039729  -0.035633   0.396313   0.405424  -0.036965  -0.045839
    11  C    0.004233  -0.001987  -0.041733  -0.036015   0.402684   0.400257
    12  C   -0.000468   0.000490  -0.001587   0.004104  -0.035745  -0.044428
    13  C    0.004321  -0.003950   0.000279  -0.000316   0.004296  -0.003537
    14  H   -0.000008   0.002800   0.000072  -0.000078  -0.000054   0.003542
    15  N   -0.000063  -0.000059  -0.000024   0.000005  -0.000061  -0.000128
    16  C    0.000002  -0.000002   0.000005  -0.000000  -0.000002  -0.000000
    17  H    0.000000   0.000001   0.000015  -0.000000   0.000000   0.000000
    18  H    0.003635   0.000094   0.001378  -0.000142  -0.000004   0.000003
    19  H    0.533438  -0.022540  -0.002581  -0.002328  -0.000092  -0.000076
    20  H   -0.022540   0.504923   0.003922  -0.003087  -0.000074   0.002294
    21  H   -0.002581   0.003922   0.559523  -0.027770  -0.003484   0.004511
    22  H   -0.002328  -0.003087  -0.027770   0.522610  -0.002114  -0.003450
    23  H   -0.000092  -0.000074  -0.003484  -0.002114   0.523719  -0.026313
    24  H   -0.000076   0.002294   0.004511  -0.003450  -0.026313   0.551827
    25  H   -0.000028   0.000045   0.001828  -0.000086  -0.002648   0.004147
    26  H    0.000012  -0.000036  -0.000079  -0.000074  -0.002417  -0.003065
    27  H   -0.000000   0.000000  -0.000000   0.000000  -0.000000   0.000000
              25         26         27
     1  O   -0.000003   0.000000   0.000048
     2  N   -0.000010  -0.000005  -0.001170
     3  O   -0.000004   0.000000   0.007125
     4  C   -0.000275   0.000152  -0.065949
     5  C    0.000334  -0.000096   0.002049
     6  N    0.001204   0.000051  -0.000005
     7  C   -0.009982   0.005175  -0.000371
     8  H   -0.000099  -0.000062  -0.000072
     9  C    0.001170  -0.000447   0.000006
    10  C   -0.002229   0.003901  -0.000000
    11  C   -0.038627  -0.033760   0.000003
    12  C    0.392668   0.404980  -0.000216
    13  C   -0.034554  -0.040371   0.004580
    14  H    0.004319  -0.003167  -0.000015
    15  N   -0.001735  -0.000001  -0.038434
    16  C    0.002273   0.000979   0.405785
    17  H    0.000049   0.000001  -0.000082
    18  H   -0.000170   0.000012   0.000000
    19  H   -0.000028   0.000012  -0.000000
    20  H    0.000045  -0.000036   0.000000
    21  H    0.001828  -0.000079  -0.000000
    22  H   -0.000086  -0.000074   0.000000
    23  H   -0.002648  -0.002417  -0.000000
    24  H    0.004147  -0.003065   0.000000
    25  H    0.538101  -0.024797   0.000030
    26  H   -0.024797   0.499369  -0.000073
    27  H    0.000030  -0.000073   0.433491
 Mulliken charges:
               1
     1  O   -0.503266
     2  N    0.492150
     3  O   -0.466265
     4  C    0.008870
     5  C    0.187245
     6  N   -0.772212
     7  C    0.042662
     8  H    0.209161
     9  C   -0.360274
    10  C   -0.313050
    11  C   -0.322860
    12  C   -0.314922
    13  C    0.002416
    14  H    0.182398
    15  N   -0.509997
    16  C    0.094359
    17  H    0.296791
    18  H    0.404265
    19  H    0.169751
    20  H    0.188667
    21  H    0.153671
    22  H    0.176933
    23  H    0.175318
    24  H    0.162021
    25  H    0.169080
    26  H    0.193818
    27  H    0.253271
 Sum of Mulliken charges =  -0.00000
 Mulliken charges with hydrogens summed into heavy atoms:
               1
     1  O   -0.503266
     2  N    0.492150
     3  O   -0.466265
     4  C    0.008870
     5  C    0.484035
     6  N   -0.367947
     7  C    0.251823
     9  C   -0.001856
    10  C    0.017554
    11  C    0.014479
    12  C    0.047976
    13  C    0.184814
    15  N   -0.509997
    16  C    0.347630
 Electronic spatial extent (au):  <R**2>=           2886.0594
 Charge=              0.0000 electrons
 Dipole moment (field-independent basis, Debye):
    X=              6.9728    Y=             -3.5722    Z=             -0.7209  Tot=              7.8676
 Quadrupole moment (field-independent basis, Debye-Ang):
   XX=           -101.0944   YY=            -84.0436   ZZ=            -83.3367
   XY=             -2.8806   XZ=              3.2300   YZ=              3.0562
 Traceless Quadrupole moment (field-independent basis, Debye-Ang):
   XX=            -11.6028   YY=              5.4479   ZZ=              6.1548
   XY=             -2.8806   XZ=              3.2300   YZ=              3.0562
 Octapole moment (field-independent basis, Debye-Ang**2):
  XXX=             87.2802  YYY=            -33.7034  ZZZ=              3.8263  XYY=              4.6960
  XXY=              9.0636  XXZ=            -20.5292  XZZ=             -5.5151  YZZ=             -3.5750
  YYZ=              5.0279  XYZ=              0.4364
 Hexadecapole moment (field-independent basis, Debye-Ang**3):
 XXXX=          -3025.3554 YYYY=           -655.1804 ZZZZ=           -390.6206 XXXY=            -23.3154
 XXXZ=             46.7482 YYYX=            -14.2589 YYYZ=             19.1705 ZZZX=            -14.4688
 ZZZY=              3.4692 XXYY=           -582.4845 XXZZ=           -504.6646 YYZZ=           -186.2006
 XXYZ=              1.4335 YYXZ=              1.8263 ZZXY=              0.1734
 N-N= 9.362456427551D+02 E-N=-3.418889070243D+03  KE= 6.596279257595D+02
 Unable to Open any file for archive entry.
 1\1\GINC-ISS\FOpt\RMP2-FC\6-31G(d)\C9H13N3O2\ALEXEY\03-Jun-2023\0\\# M
 P2/6-31G* Opt Scf=Tight\\Title\\0,1\O,3.3121635365,-1.339493554,-0.600
 6217981\N,2.8829065915,-0.1965611278,-0.3489845463\O,3.572011756,0.835
 1014186,-0.4652495178\C,1.502713525,-0.035329123,0.0908434204\C,0.7631
 311075,-1.1858247177,0.0893964407\N,-0.5158985536,-1.3360623394,0.4666
 712901\C,-1.3847043509,-0.3566185473,1.1046918115\H,-1.1275589132,-0.2
 823720932,2.1703770031\C,-2.825700821,-0.8483683868,0.9319043402\C,-3.
 2293636024,-0.8787574906,-0.5457000771\C,-3.0077793612,0.4770859341,-1
 .219632658\C,-1.5855650557,1.0034745021,-1.0108505819\C,-1.2614661913,
 1.0524185181,0.4838305894\H,-2.0635746872,1.6300069078,0.966941812\N,-
 0.0467519796,1.7937756242,0.7701539271\C,1.124926682,1.2966374874,0.53
 92124171\H,1.2496583974,-2.0884107041,-0.269403058\H,-0.8850877965,-2.
 2777390851,0.3975177408\H,-2.9399310785,-1.8405766176,1.3902765162\H,-
 3.487233749,-0.1745370101,1.4889045235\H,-2.6490624563,-1.6442728121,-
 1.0754892399\H,-4.2811621066,-1.1756367315,-0.6309338325\H,-3.22993720
 72,0.4030920449,-2.2904766915\H,-3.7169699066,1.2046881226,-0.80261965
 88\H,-0.8540886572,0.371187386,-1.5267928683\H,-1.4843565891,2.0136166
 743,-1.4222606374\H,1.9643602672,1.9655439203,0.7240867333\\Version=ES
 64L-G16RevC.02\State=1-A\HF=-661.298268\MP2=-663.3325076\RMSD=5.840e-0
 9\RMSF=5.966e-06\Dipole=-2.5133136,-1.2845687,0.3195675\PG=C01 [X(C9H1
 3N3O2)]\\@
 The archive entry for this job was punched.


 THERE IS AN OLD, OLD RECIPE IN MAINE FOR STEWING COOT. PLACE THE
 BIRD IN A KETTLE OF WATER WITH A RED BUILDING BRICK FREE OF MORTAR AND
 BLEMISHES. PARBOIL THE COOT AND BRICK TOGETHER FOR THREE HOURS.
 POUR OFF THE WATER, REFILL THE KETTLE, AND AGAIN PARBOIL FOR THREE HOURS.
 ONCE AGAIN POUR OFF THE WATER, FOR THE LAST TIME ADD FRESH WATER,
 AND LET THE COOT AND BRICK SIMMER TOGETHER OVERNIGHT. IN THE MORNING,
 THROW AWAY THE COOT AND EAT THE BRICK.
 Job cpu time:       0 days  0 hours 49 minutes 14.0 seconds.
 Elapsed time:       0 days  0 hours  8 minutes 45.9 seconds.
 File lengths (MBytes):  RWF=   6168 Int=      0 D2E=      0 Chk=      7 Scr=      1
 Normal termination of Gaussian 16 at Sat Jun  3 15:31:08 2023.
