 Entering Gaussian System, Link 0=g16
 Initial command:
 /home/alexey/programs//g16/l1.exe "/home/alexey/tmp/Gau-1546566.inp" -scrdir="/home/alexey/tmp/"
 Entering Link 1 = /home/alexey/programs//g16/l1.exe PID=   1546568.
  
 Copyright (c) 1988-2021, Gaussian, Inc.  All Rights Reserved.
  
 This is part of the Gaussian(R) 16 program.  It is based on
 the Gaussian(R) 09 system (copyright 2009, Gaussian, Inc.),
 the Gaussian(R) 03 system (copyright 2003, Gaussian, Inc.),
 the Gaussian(R) 98 system (copyright 1998, Gaussian, Inc.),
 the Gaussian(R) 94 system (copyright 1995, Gaussian, Inc.),
 the Gaussian 92(TM) system (copyright 1992, Gaussian, Inc.),
 the Gaussian 90(TM) system (copyright 1990, Gaussian, Inc.),
 the Gaussian 88(TM) system (copyright 1988, Gaussian, Inc.),
 the Gaussian 86(TM) system (copyright 1986, Carnegie Mellon
 University), and the Gaussian 82(TM) system (copyright 1983,
 Carnegie Mellon University). Gaussian is a federally registered
 trademark of Gaussian, Inc.
  
 This software contains proprietary and confidential information,
 including trade secrets, belonging to Gaussian, Inc.
  
 This software is provided under written license and may be
 used, copied, transmitted, or stored only in accord with that
 written license.
  
 The following legend is applicable only to US Government
 contracts under FAR:
  
                    RESTRICTED RIGHTS LEGEND
  
 Use, reproduction and disclosure by the US Government is
 subject to restrictions as set forth in subparagraphs (a)
 and (c) of the Commercial Computer Software - Restricted
 Rights clause in FAR 52.227-19.
  
 Gaussian, Inc.
 340 Quinnipiac St., Bldg. 40, Wallingford CT 06492
  
  
 ---------------------------------------------------------------
 Warning -- This program may not be used in any manner that
 competes with the business of Gaussian, Inc. or will provide
 assistance to any competitor of Gaussian, Inc.  The licensee
 of this program is prohibited from giving any competitor of
 Gaussian, Inc. access to this program.  By using this program,
 the user acknowledges that Gaussian, Inc. is engaged in the
 business of creating and licensing software in the field of
 computational chemistry and represents and warrants to the
 licensee that it is not a competitor of Gaussian, Inc. and that
 it will not use this program in any manner prohibited above.
 ---------------------------------------------------------------
  

 Cite this work as:
 Gaussian 16, Revision C.02,
 M. J. Frisch, G. W. Trucks, H. B. Schlegel, G. E. Scuseria, 
 M. A. Robb, J. R. Cheeseman, G. Scalmani, V. Barone, 
 G. A. Petersson, H. Nakatsuji, X. Li, M. Caricato, A. V. Marenich, 
 J. Bloino, B. G. Janesko, R. Gomperts, B. Mennucci, H. P. Hratchian, 
 J. V. Ortiz, A. F. Izmaylov, J. L. Sonnenberg, D. Williams-Young, 
 F. Ding, F. Lipparini, F. Egidi, J. Goings, B. Peng, A. Petrone, 
 T. Henderson, D. Ranasinghe, V. G. Zakrzewski, J. Gao, N. Rega, 
 G. Zheng, W. Liang, M. Hada, M. Ehara, K. Toyota, R. Fukuda, 
 J. Hasegawa, M. Ishida, T. Nakajima, Y. Honda, O. Kitao, H. Nakai, 
 T. Vreven, K. Throssell, J. A. Montgomery, Jr., J. E. Peralta, 
 F. Ogliaro, M. J. Bearpark, J. J. Heyd, E. N. Brothers, K. N. Kudin, 
 V. N. Staroverov, T. A. Keith, R. Kobayashi, J. Normand, 
 K. Raghavachari, A. P. Rendell, J. C. Burant, S. S. Iyengar, 
 J. Tomasi, M. Cossi, J. M. Millam, M. Klene, C. Adamo, R. Cammi, 
 J. W. Ochterski, R. L. Martin, K. Morokuma, O. Farkas, 
 J. B. Foresman, and D. J. Fox, Gaussian, Inc., Wallingford CT, 2019.
 
 ******************************************
 Gaussian 16:  ES64L-G16RevC.02  7-Dec-2021
                 3-Jun-2023 
 ******************************************
 %NoSave
 %mem=8GB
 %nproc=8
 Will use up to    8 processors via shared memory.
 --------------------------
 # MP2/6-31G* Opt Scf=Tight
 --------------------------
 1/18=20,19=15,38=1/1,3;
 2/9=110,12=2,17=6,18=5,40=1/2;
 3/5=1,6=6,7=1,11=9,25=1,30=1,71=1/1,2,3;
 4//1;
 5/5=2,32=2,38=5/2;
 8/6=4,10=2/1;
 9/15=2,16=-3/6;
 10/5=1/2;
 6/7=2,8=2,9=2,10=2/1;
 7/12=2/1,2,3,16;
 1/18=20,19=15/3(2);
 2/9=110/2;
 99//99;
 2/9=110/2;
 3/5=1,6=6,7=1,11=9,25=1,30=1,71=1/1,2,3;
 4/5=5,16=3,69=1/1;
 5/5=2,32=2,38=5/2;
 8/6=4,10=2/1;
 9/15=2,16=-3/6;
 10/5=1/2;
 7/12=2/1,2,3,16;
 1/18=20,19=15/3(-8);
 2/9=110/2;
 6/7=2,8=2,9=2,10=2/1;
 99/9=10/99;
 -----
 Title
 -----
 Symbolic Z-matrix:
 Charge =  0 Multiplicity = 1
 O                     3.61092  -1.07758   0.60893 
 N                     2.97097  -0.16664   0.04843 
 O                     3.5092    0.76675  -0.57837 
 C                     1.51755  -0.15927   0.12793 
 C                     0.97364  -1.1746    0.87362 
 N                    -0.3246   -1.44454   1.07466 
 C                    -1.45453  -0.67475   0.58269 
 H                    -2.25885  -0.84878   1.3094 
 C                    -1.9369   -1.11656  -0.80659 
 C                    -2.85821  -0.04713  -1.42951 
 C                    -3.55266   0.7802   -0.34461 
 C                    -2.52964   1.55349   0.51315 
 C                    -1.16877   0.84012   0.57302 
 H                    -0.63227   1.10426   1.49702 
 N                    -0.37817   1.2595   -0.58024 
 C                     0.8375    0.8261   -0.69361 
 H                     1.66981  -1.85532   1.35526 
 H                    -0.52618  -2.22341   1.6897 
 H                    -1.0647   -1.29192  -1.44434 
 H                    -2.45848  -2.076    -0.70562 
 H                    -2.2647    0.62307  -2.05638 
 H                    -3.59865  -0.52943  -2.07684 
 H                    -4.26184   1.48079  -0.79792 
 H                    -4.15142   0.1132    0.28956 
 H                    -2.35127   2.54808   0.09479 
 H                    -2.92025   1.68946   1.52934 
 H                     1.41875   1.23128  -1.52095 
 

 GradGradGradGradGradGradGradGradGradGradGradGradGradGradGradGradGradGrad
 Berny optimization.
 Initialization pass.
                           ----------------------------
                           !    Initial Parameters    !
                           ! (Angstroms and Degrees)  !
 --------------------------                            --------------------------
 ! Name  Definition              Value          Derivative Info.                !
 --------------------------------------------------------------------------------
 ! R1    R(1,2)                  1.2464         estimate D2E/DX2                !
 ! R2    R(2,3)                  1.2465         estimate D2E/DX2                !
 ! R3    R(2,4)                  1.4556         estimate D2E/DX2                !
 ! R4    R(4,5)                  1.3721         estimate D2E/DX2                !
 ! R5    R(4,16)                 1.452          estimate D2E/DX2                !
 ! R6    R(5,6)                  1.3412         estimate D2E/DX2                !
 ! R7    R(5,17)                 1.0863         estimate D2E/DX2                !
 ! R8    R(6,7)                  1.4531         estimate D2E/DX2                !
 ! R9    R(6,18)                 1.0127         estimate D2E/DX2                !
 ! R10   R(7,8)                  1.0979         estimate D2E/DX2                !
 ! R11   R(7,9)                  1.5356         estimate D2E/DX2                !
 ! R12   R(7,13)                 1.5416         estimate D2E/DX2                !
 ! R13   R(9,10)                 1.5429         estimate D2E/DX2                !
 ! R14   R(9,19)                 1.0946         estimate D2E/DX2                !
 ! R15   R(9,20)                 1.0967         estimate D2E/DX2                !
 ! R16   R(10,11)                1.5309         estimate D2E/DX2                !
 ! R17   R(10,21)                1.0929         estimate D2E/DX2                !
 ! R18   R(10,22)                1.0954         estimate D2E/DX2                !
 ! R19   R(11,12)                1.5428         estimate D2E/DX2                !
 ! R20   R(11,23)                1.0951         estimate D2E/DX2                !
 ! R21   R(11,24)                1.098          estimate D2E/DX2                !
 ! R22   R(12,13)                1.5377         estimate D2E/DX2                !
 ! R23   R(12,25)                1.0936         estimate D2E/DX2                !
 ! R24   R(12,26)                1.0971         estimate D2E/DX2                !
 ! R25   R(13,14)                1.1006         estimate D2E/DX2                !
 ! R26   R(13,15)                1.4598         estimate D2E/DX2                !
 ! R27   R(15,16)                1.2956         estimate D2E/DX2                !
 ! R28   R(16,27)                1.0893         estimate D2E/DX2                !
 ! A1    A(1,2,3)              123.4838         estimate D2E/DX2                !
 ! A2    A(1,2,4)              119.4591         estimate D2E/DX2                !
 ! A3    A(3,2,4)              117.0529         estimate D2E/DX2                !
 ! A4    A(2,4,5)              114.9441         estimate D2E/DX2                !
 ! A5    A(2,4,16)             116.1152         estimate D2E/DX2                !
 ! A6    A(5,4,16)             128.6072         estimate D2E/DX2                !
 ! A7    A(4,5,6)              127.8869         estimate D2E/DX2                !
 ! A8    A(4,5,17)             116.7832         estimate D2E/DX2                !
 ! A9    A(6,5,17)             115.3261         estimate D2E/DX2                !
 ! A10   A(5,6,7)              126.5382         estimate D2E/DX2                !
 ! A11   A(5,6,18)             116.0093         estimate D2E/DX2                !
 ! A12   A(7,6,18)             117.2774         estimate D2E/DX2                !
 ! A13   A(6,7,8)              105.1655         estimate D2E/DX2                !
 ! A14   A(6,7,9)              113.4639         estimate D2E/DX2                !
 ! A15   A(6,7,13)             112.2446         estimate D2E/DX2                !
 ! A16   A(8,7,9)              108.852          estimate D2E/DX2                !
 ! A17   A(8,7,13)             107.2006         estimate D2E/DX2                !
 ! A18   A(9,7,13)             109.5897         estimate D2E/DX2                !
 ! A19   A(7,9,10)             110.6969         estimate D2E/DX2                !
 ! A20   A(7,9,19)             108.8389         estimate D2E/DX2                !
 ! A21   A(7,9,20)             108.5303         estimate D2E/DX2                !
 ! A22   A(10,9,19)            110.5858         estimate D2E/DX2                !
 ! A23   A(10,9,20)            111.073          estimate D2E/DX2                !
 ! A24   A(19,9,20)            107.0041         estimate D2E/DX2                !
 ! A25   A(9,10,11)            111.0592         estimate D2E/DX2                !
 ! A26   A(9,10,21)            109.4117         estimate D2E/DX2                !
 ! A27   A(9,10,22)            109.697          estimate D2E/DX2                !
 ! A28   A(11,10,21)           108.7486         estimate D2E/DX2                !
 ! A29   A(11,10,22)           110.4936         estimate D2E/DX2                !
 ! A30   A(21,10,22)           107.3453         estimate D2E/DX2                !
 ! A31   A(10,11,12)           111.3503         estimate D2E/DX2                !
 ! A32   A(10,11,23)           110.2509         estimate D2E/DX2                !
 ! A33   A(10,11,24)           109.1705         estimate D2E/DX2                !
 ! A34   A(12,11,23)           109.8097         estimate D2E/DX2                !
 ! A35   A(12,11,24)           110.1793         estimate D2E/DX2                !
 ! A36   A(23,11,24)           105.9367         estimate D2E/DX2                !
 ! A37   A(11,12,13)           112.0837         estimate D2E/DX2                !
 ! A38   A(11,12,25)           110.5664         estimate D2E/DX2                !
 ! A39   A(11,12,26)           109.9374         estimate D2E/DX2                !
 ! A40   A(13,12,25)           107.005          estimate D2E/DX2                !
 ! A41   A(13,12,26)           109.6652         estimate D2E/DX2                !
 ! A42   A(25,12,26)           107.4378         estimate D2E/DX2                !
 ! A43   A(7,13,12)            106.9819         estimate D2E/DX2                !
 ! A44   A(7,13,14)            108.7186         estimate D2E/DX2                !
 ! A45   A(7,13,15)            112.8087         estimate D2E/DX2                !
 ! A46   A(12,13,14)           110.6555         estimate D2E/DX2                !
 ! A47   A(12,13,15)           108.3773         estimate D2E/DX2                !
 ! A48   A(14,13,15)           109.287          estimate D2E/DX2                !
 ! A49   A(13,15,16)           118.7641         estimate D2E/DX2                !
 ! A50   A(4,16,15)            128.095          estimate D2E/DX2                !
 ! A51   A(4,16,27)            115.6105         estimate D2E/DX2                !
 ! A52   A(15,16,27)           116.2779         estimate D2E/DX2                !
 ! D1    D(1,2,4,5)              1.8464         estimate D2E/DX2                !
 ! D2    D(1,2,4,16)          -172.1014         estimate D2E/DX2                !
 ! D3    D(3,2,4,5)           -177.4291         estimate D2E/DX2                !
 ! D4    D(3,2,4,16)             8.623          estimate D2E/DX2                !
 ! D5    D(2,4,5,6)           -177.1488         estimate D2E/DX2                !
 ! D6    D(2,4,5,17)             2.1011         estimate D2E/DX2                !
 ! D7    D(16,4,5,6)            -4.1071         estimate D2E/DX2                !
 ! D8    D(16,4,5,17)          175.1427         estimate D2E/DX2                !
 ! D9    D(2,4,16,15)         -161.9324         estimate D2E/DX2                !
 ! D10   D(2,4,16,27)           19.6213         estimate D2E/DX2                !
 ! D11   D(5,4,16,15)           25.0945         estimate D2E/DX2                !
 ! D12   D(5,4,16,27)         -153.3518         estimate D2E/DX2                !
 ! D13   D(4,5,6,7)             -2.7585         estimate D2E/DX2                !
 ! D14   D(4,5,6,18)          -177.7893         estimate D2E/DX2                !
 ! D15   D(17,5,6,7)           177.9823         estimate D2E/DX2                !
 ! D16   D(17,5,6,18)            2.9515         estimate D2E/DX2                !
 ! D17   D(5,6,7,8)           -151.9743         estimate D2E/DX2                !
 ! D18   D(5,6,7,9)             89.1694         estimate D2E/DX2                !
 ! D19   D(5,6,7,13)           -35.7503         estimate D2E/DX2                !
 ! D20   D(18,6,7,8)            23.0008         estimate D2E/DX2                !
 ! D21   D(18,6,7,9)           -95.8554         estimate D2E/DX2                !
 ! D22   D(18,6,7,13)          139.2249         estimate D2E/DX2                !
 ! D23   D(6,7,9,10)          -164.6559         estimate D2E/DX2                !
 ! D24   D(6,7,9,19)           -42.9173         estimate D2E/DX2                !
 ! D25   D(6,7,9,20)            73.2024         estimate D2E/DX2                !
 ! D26   D(8,7,9,10)            78.6285         estimate D2E/DX2                !
 ! D27   D(8,7,9,19)          -159.6329         estimate D2E/DX2                !
 ! D28   D(8,7,9,20)           -43.5132         estimate D2E/DX2                !
 ! D29   D(13,7,9,10)          -38.3201         estimate D2E/DX2                !
 ! D30   D(13,7,9,19)           83.4185         estimate D2E/DX2                !
 ! D31   D(13,7,9,20)         -160.4618         estimate D2E/DX2                !
 ! D32   D(6,7,13,12)         -160.9238         estimate D2E/DX2                !
 ! D33   D(6,7,13,14)          -41.3921         estimate D2E/DX2                !
 ! D34   D(6,7,13,15)           79.9957         estimate D2E/DX2                !
 ! D35   D(8,7,13,12)          -45.9321         estimate D2E/DX2                !
 ! D36   D(8,7,13,14)           73.5997         estimate D2E/DX2                !
 ! D37   D(8,7,13,15)         -165.0126         estimate D2E/DX2                !
 ! D38   D(9,7,13,12)           72.0504         estimate D2E/DX2                !
 ! D39   D(9,7,13,14)         -168.4178         estimate D2E/DX2                !
 ! D40   D(9,7,13,15)          -47.03           estimate D2E/DX2                !
 ! D41   D(7,9,10,11)          -26.519          estimate D2E/DX2                !
 ! D42   D(7,9,10,21)           93.5381         estimate D2E/DX2                !
 ! D43   D(7,9,10,22)         -148.9525         estimate D2E/DX2                !
 ! D44   D(19,9,10,11)        -147.225          estimate D2E/DX2                !
 ! D45   D(19,9,10,21)         -27.1678         estimate D2E/DX2                !
 ! D46   D(19,9,10,22)          90.3416         estimate D2E/DX2                !
 ! D47   D(20,9,10,11)          94.1221         estimate D2E/DX2                !
 ! D48   D(20,9,10,21)        -145.8207         estimate D2E/DX2                !
 ! D49   D(20,9,10,22)         -28.3113         estimate D2E/DX2                !
 ! D50   D(9,10,11,12)          62.3146         estimate D2E/DX2                !
 ! D51   D(9,10,11,23)        -175.5408         estimate D2E/DX2                !
 ! D52   D(9,10,11,24)         -59.5573         estimate D2E/DX2                !
 ! D53   D(21,10,11,12)        -58.1358         estimate D2E/DX2                !
 ! D54   D(21,10,11,23)         64.0088         estimate D2E/DX2                !
 ! D55   D(21,10,11,24)        179.9923         estimate D2E/DX2                !
 ! D56   D(22,10,11,12)       -175.7148         estimate D2E/DX2                !
 ! D57   D(22,10,11,23)        -53.5701         estimate D2E/DX2                !
 ! D58   D(22,10,11,24)         62.4134         estimate D2E/DX2                !
 ! D59   D(10,11,12,13)        -28.0806         estimate D2E/DX2                !
 ! D60   D(10,11,12,25)         91.2156         estimate D2E/DX2                !
 ! D61   D(10,11,12,26)       -150.3223         estimate D2E/DX2                !
 ! D62   D(23,11,12,13)       -150.48           estimate D2E/DX2                !
 ! D63   D(23,11,12,25)        -31.1837         estimate D2E/DX2                !
 ! D64   D(23,11,12,26)         87.2783         estimate D2E/DX2                !
 ! D65   D(24,11,12,13)         93.2044         estimate D2E/DX2                !
 ! D66   D(24,11,12,25)       -147.4993         estimate D2E/DX2                !
 ! D67   D(24,11,12,26)        -29.0373         estimate D2E/DX2                !
 ! D68   D(11,12,13,7)         -35.4711         estimate D2E/DX2                !
 ! D69   D(11,12,13,14)       -153.7477         estimate D2E/DX2                !
 ! D70   D(11,12,13,15)         86.4374         estimate D2E/DX2                !
 ! D71   D(25,12,13,7)        -156.8383         estimate D2E/DX2                !
 ! D72   D(25,12,13,14)         84.8852         estimate D2E/DX2                !
 ! D73   D(25,12,13,15)        -34.9297         estimate D2E/DX2                !
 ! D74   D(26,12,13,7)          86.9255         estimate D2E/DX2                !
 ! D75   D(26,12,13,14)        -31.351          estimate D2E/DX2                !
 ! D76   D(26,12,13,15)       -151.1659         estimate D2E/DX2                !
 ! D77   D(7,13,15,16)         -65.0564         estimate D2E/DX2                !
 ! D78   D(12,13,15,16)        176.6765         estimate D2E/DX2                !
 ! D79   D(14,13,15,16)         56.0085         estimate D2E/DX2                !
 ! D80   D(13,15,16,4)           6.6858         estimate D2E/DX2                !
 ! D81   D(13,15,16,27)       -174.8767         estimate D2E/DX2                !
 --------------------------------------------------------------------------------
 Trust Radius=3.00D-01 FncErr=1.00D-07 GrdErr=1.00D-07 EigMax=2.50D+02 EigMin=1.00D-04
 Number of steps in this run=    162 maximum allowed number of steps=    162.
 GradGradGradGradGradGradGradGradGradGradGradGradGradGradGradGradGradGrad

                          Input orientation:                          
 ---------------------------------------------------------------------
 Center     Atomic      Atomic             Coordinates (Angstroms)
 Number     Number       Type             X           Y           Z
 ---------------------------------------------------------------------
      1          8           0        3.610917   -1.077583    0.608931
      2          7           0        2.970972   -0.166642    0.048428
      3          8           0        3.509203    0.766751   -0.578369
      4          6           0        1.517552   -0.159270    0.127933
      5          6           0        0.973642   -1.174595    0.873620
      6          7           0       -0.324603   -1.444538    1.074656
      7          6           0       -1.454533   -0.674747    0.582687
      8          1           0       -2.258850   -0.848777    1.309402
      9          6           0       -1.936900   -1.116558   -0.806589
     10          6           0       -2.858212   -0.047134   -1.429511
     11          6           0       -3.552662    0.780201   -0.344607
     12          6           0       -2.529641    1.553488    0.513152
     13          6           0       -1.168771    0.840119    0.573021
     14          1           0       -0.632273    1.104261    1.497021
     15          7           0       -0.378173    1.259504   -0.580239
     16          6           0        0.837502    0.826099   -0.693606
     17          1           0        1.669809   -1.855318    1.355263
     18          1           0       -0.526178   -2.223411    1.689696
     19          1           0       -1.064702   -1.291916   -1.444339
     20          1           0       -2.458482   -2.075999   -0.705617
     21          1           0       -2.264698    0.623074   -2.056382
     22          1           0       -3.598646   -0.529427   -2.076839
     23          1           0       -4.261835    1.480789   -0.797924
     24          1           0       -4.151418    0.113204    0.289562
     25          1           0       -2.351266    2.548082    0.094790
     26          1           0       -2.920249    1.689463    1.529341
     27          1           0        1.418752    1.231276   -1.520950
 ---------------------------------------------------------------------
                    Distance matrix (angstroms):
                    1          2          3          4          5
     1  O    0.000000
     2  N    1.246397   0.000000
     3  O    2.195813   1.246511   0.000000
     4  C    2.335987   1.455612   2.307174   0.000000
     5  C    2.652299   2.384584   3.508014   1.372142   0.000000
     6  N    3.979934   3.680622   4.724443   2.437567   1.341166
     7  C    5.081511   4.486502   5.297608   3.050542   2.496102
     8  H    5.915841   5.422767   6.280450   4.016529   3.277967
     9  C    5.725687   5.071548   5.767060   3.704453   3.361209
    10  C    6.860517   6.014813   6.475402   4.646021   4.610714
    11  C    7.461733   6.603695   7.065746   5.178124   5.078655
    12  C    6.681180   5.782003   6.186923   4.411542   4.454814
    13  C    5.150174   4.292580   4.818145   2.900554   2.956242
    14  H    4.853227   4.086195   4.644672   2.844760   2.856707
    15  N    4.773776   3.694034   3.918482   2.471477   3.141011
    16  C    3.607275   2.467355   2.674844   1.452014   2.545094
    17  H    2.220312   2.500494   3.741330   2.099071   1.086284
    18  H    4.426796   4.376541   5.510851   3.297971   2.003860
    19  H    5.111093   4.447613   5.090052   3.228461   3.088939
    20  H    6.289870   5.804584   6.611405   4.491937   3.884069
    21  H    6.672254   5.697904   5.961803   4.437196   4.722644
    22  H    7.713082   6.914351   7.378822   5.583325   5.479714
    23  H    8.396710   7.466180   7.806862   6.078513   6.103716
    24  H    7.859632   7.131963   7.737283   5.677815   5.316558
    25  H    6.996958   5.974788   6.162093   4.722140   5.051724
    26  H    7.152610   6.351749   6.828740   5.007577   4.878031
    27  H    3.830510   2.612759   2.339707   2.159211   3.423493
                    6          7          8          9         10
     6  N    0.000000
     7  C    1.453050   0.000000
     8  H    2.037486   1.097874   0.000000
     9  C    2.499231   1.535565   2.157029   0.000000
    10  C    3.826586   2.532420   2.916078   1.542892   0.000000
    11  C    4.169429   2.716412   2.657680   2.534129   1.530935
    12  C    3.763727   2.475019   2.545235   3.036807   2.538481
    13  C    2.486748   1.541614   2.140771   2.514345   2.766146
    14  H    2.601812   2.162634   2.548590   3.455532   3.852934
    15  N    3.170709   2.500455   3.398903   2.850708   2.929020
    16  C    3.103712   3.022397   4.050265   3.388803   3.868125
    17  H    2.055520   3.428139   4.055810   4.269394   5.614933
    18  H    1.012694   2.117941   2.244191   3.073548   4.461392
    19  H    2.629901   2.154461   3.034049   1.094626   2.183204
    20  H    2.849834   2.152010   2.367747   1.096709   2.190913
    21  H    4.224025   3.050473   3.673538   2.166968   1.092888
    22  H    4.635592   3.419271   3.655635   2.172477   1.095392
    23  H    5.250323   3.799127   3.725540   3.485916   2.168780
    24  H    4.205645   2.824885   2.355270   2.760063   2.157151
    25  H    4.583505   3.380651   3.608667   3.796547   3.052153
    26  H    4.094640   2.938361   2.632202   3.781176   3.431388
    27  H    4.115391   4.039057   5.085497   4.157287   4.464876
                   11         12         13         14         15
    11  C    0.000000
    12  C    1.542820   0.000000
    13  C    2.555106   1.537676   0.000000
    14  H    3.467748   2.183989   1.100625   0.000000
    15  N    3.219105   2.431203   1.459773   2.098494   0.000000
    16  C    4.404253   3.650070   2.372693   2.652632   1.295592
    17  H    6.091775   5.473983   3.991845   3.752171   4.200300
    18  H    4.724371   4.434308   3.323418   3.334933   4.159953
    19  H    3.419507   3.751551   2.937030   3.818410   2.779881
    20  H    3.079844   3.829313   3.435406   4.277932   3.933063
    21  H    2.147956   2.745608   2.856908   3.939926   2.478511
    22  H    2.172065   3.491325   3.847299   4.923492   3.976372
    23  H    1.095101   2.173637   3.443399   4.310715   3.896048
    24  H    1.097981   2.180497   3.083008   3.850264   4.038309
    25  H    2.182161   1.093646   2.131698   2.646849   2.451366
    26  H    2.176783   1.097134   2.168780   2.361851   3.331267
    27  H    5.128569   4.453224   3.351566   3.651163   2.028466
                   16         17         18         19         20
    16  C    0.000000
    17  H    3.475715   0.000000
    18  H    4.103566   2.251598   0.000000
    19  H    2.944141   3.953827   3.313588   0.000000
    20  H    4.391563   4.619384   3.081080   1.761567   0.000000
    21  H    3.394410   5.767330   5.015778   2.341319   3.024419
    22  H    4.840475   6.426035   5.147468   2.720720   2.360532
    23  H    5.142250   7.137943   5.819320   4.281052   3.988903
    24  H    5.134604   6.236785   4.534591   3.809014   2.940923
    25  H    3.708779   6.094897   5.351805   4.332407   4.694068
    26  H    4.450571   5.802104   4.589975   4.601570   4.403064
    27  H    1.089275   4.226428   5.101555   3.541174   5.160986
                   21         22         23         24         25
    21  H    0.000000
    22  H    1.762979   0.000000
    23  H    2.511562   2.473137   0.000000
    24  H    3.053380   2.513639   1.750745   0.000000
    25  H    2.888026   3.967744   2.363541   3.034323   0.000000
    26  H    3.797939   4.288150   2.694357   2.353173   1.766041
    27  H    3.771525   5.346342   5.731849   5.962788   4.307858
                   26         27
    26  H    0.000000
    27  H    5.323640   0.000000
 Stoichiometry    C9H13N3O2
 Framework group  C1[X(C9H13N3O2)]
 Deg. of freedom    75
 Full point group                 C1      NOp   1
 Largest Abelian subgroup         C1      NOp   1
 Largest concise Abelian subgroup C1      NOp   1
                         Standard orientation:                         
 ---------------------------------------------------------------------
 Center     Atomic      Atomic             Coordinates (Angstroms)
 Number     Number       Type             X           Y           Z
 ---------------------------------------------------------------------
      1          8           0        3.858077    0.712249   -0.026122
      2          7           0        3.075898   -0.251575    0.086774
      3          8           0        3.452813   -1.424723    0.275048
      4          6           0        1.641779   -0.025860   -0.018867
      5          6           0        1.277825    1.270954   -0.280755
      6          7           0        0.038811    1.775235   -0.377038
      7          6           0       -1.207008    1.034054   -0.277338
      8          1           0       -1.927811    1.601415   -0.880556
      9          6           0       -1.739689    0.923923    1.158657
     10          6           0       -2.823650   -0.169743    1.255792
     11          6           0       -3.524340   -0.370911   -0.090435
     12          6           0       -2.535293   -0.853027   -1.171935
     13          6           0       -1.100341   -0.372890   -0.898390
     14          1           0       -0.529026   -0.302505   -1.836484
     15          7           0       -0.454168   -1.335498   -0.011381
     16          6           0        0.791302   -1.159044    0.298822
     17          1           0        2.082969    1.987226   -0.417540
     18          1           0       -0.023517    2.758212   -0.612455
     19          1           0       -0.904363    0.698537    1.829207
     20          1           0       -2.137290    1.900956    1.458808
     21          1           0       -2.361488   -1.113584    1.555750
     22          1           0       -3.550492    0.098577    2.030123
     23          1           0       -4.342502   -1.091576    0.012038
     24          1           0       -3.991509    0.573774   -0.398472
     25          1           0       -2.505910   -1.945747   -1.206013
     26          1           0       -2.860200   -0.501914   -2.159284
     27          1           0        1.256716   -1.945453    0.891673
 ---------------------------------------------------------------------
 Rotational constants (GHZ):           1.6725698           0.4259938           0.3871273
 Standard basis: 6-31G(d) (6D, 7F)
 There are   236 symmetry adapted cartesian basis functions of A   symmetry.
 There are   236 symmetry adapted basis functions of A   symmetry.
   236 basis functions,   444 primitive gaussians,   236 cartesian basis functions
    52 alpha electrons       52 beta electrons
       nuclear repulsion energy       935.8360196606 Hartrees.
 NAtoms=   27 NActive=   27 NUniq=   27 SFac= 1.00D+00 NAtFMM=   60 NAOKFM=F Big=F
 Integral buffers will be    131072 words long.
 Raffenetti 1 integral format.
 Two-electron integral symmetry is turned on.
 One-electron integrals computed using PRISM.
 NBasis=   236 RedAO= T EigKep=  1.00D-03  NBF=   236
 NBsUse=   236 1.00D-06 EigRej= -1.00D+00 NBFU=   236
 ExpMin= 1.61D-01 ExpMax= 5.48D+03 ExpMxC= 8.25D+02 IAcc=3 IRadAn=         5 AccDes= 0.00D+00
 Harris functional with IExCor=  205 and IRadAn=       5 diagonalized for initial guess.
 HarFok:  IExCor=  205 AccDes= 0.00D+00 IRadAn=         5 IDoV= 1 UseB2=F ITyADJ=14
 ICtDFT=  3500011 ScaDFX=  1.000000  1.000000  1.000000  1.000000
 FoFCou: FMM=F IPFlag=           0 FMFlag=      100000 FMFlg1=           0
         NFxFlg=           0 DoJE=T BraDBF=F KetDBF=T FulRan=T
         wScrn=  0.000000 ICntrl=       500 IOpCl=  0 I1Cent=   200000004 NGrid=           0
         NMat0=    1 NMatS0=      1 NMatT0=    0 NMatD0=    1 NMtDS0=    0 NMtDT0=    0
 Petite list used in FoFCou.
 Requested convergence on RMS density matrix=1.00D-08 within 128 cycles.
 Requested convergence on MAX density matrix=1.00D-06.
 Requested convergence on             energy=1.00D-06.
 No special actions if energy rises.
 Integral accuracy reduced to 1.0D-05 until final iterations.
 Initial convergence to 1.0D-05 achieved.  Increase integral accuracy.
 SCF Done:  E(RHF) =  -661.290525591     A.U. after   16 cycles
            NFock= 16  Conv=0.99D-08     -V/T= 2.0025
 ExpMin= 1.61D-01 ExpMax= 5.48D+03 ExpMxC= 8.25D+02 IAcc=3 IRadAn=         5 AccDes= 0.00D+00
 HarFok:  IExCor=  205 AccDes= 0.00D+00 IRadAn=         5 IDoV=-2 UseB2=F ITyADJ=14
 ICtDFT= 12500011 ScaDFX=  1.000000  1.000000  1.000000  1.000000
 Range of M.O.s used for correlation:    15   236
 NBasis=   236 NAE=    52 NBE=    52 NFC=    14 NFV=     0
 NROrb=    222 NOA=    38 NOB=    38 NVA=   184 NVB=   184
 Disk-based method using ON**2 memory for 38 occupieds at a time.
 Estimated scratch disk usage=   979095560 words.
 Actual    scratch disk usage=   798405640 words.
 JobTyp=1 Pass  1:  I=  15 to  52 NPSUse=  8 ParTrn=T ParDer=T DoDerP=T.
 (rs|ai) integrals will be sorted in core.
 Spin components of T(2) and E(2):
     alpha-alpha T2 =       0.9173369340D-01 E2=     -0.2730017985D+00
     alpha-beta  T2 =       0.4931133639D+00 E2=     -0.1490365629D+01
     beta-beta   T2 =       0.9173369340D-01 E2=     -0.2730017985D+00
 ANorm=    0.1294828464D+01
 E2 =    -0.2036369226D+01 EUMP2 =    -0.66332689481675D+03
          IDoAtm=111111111111111111111111111
          Differentiating once with respect to electric field.
                with respect to dipole field.
          Differentiating once with respect to nuclear coordinates.
 Keep R1 ints in memory in canonical form, NReq=397723937.
          There are     1 degrees of freedom in the 1st order CPHF.  IDoFFX=0 NUNeed=     1.
 LinEq1:  Iter=  0 NonCon=     1 RMS=4.62D-03 Max=1.06D-01 NDo=     1
 AX will form     1 AO Fock derivatives at one time.
 LinEq1:  Iter=  1 NonCon=     1 RMS=1.57D-03 Max=3.09D-02 NDo=     1
 LinEq1:  Iter=  2 NonCon=     1 RMS=6.65D-04 Max=1.70D-02 NDo=     1
 LinEq1:  Iter=  3 NonCon=     1 RMS=2.91D-04 Max=9.15D-03 NDo=     1
 LinEq1:  Iter=  4 NonCon=     1 RMS=9.18D-05 Max=2.09D-03 NDo=     1
 LinEq1:  Iter=  5 NonCon=     1 RMS=3.89D-05 Max=1.85D-03 NDo=     1
 LinEq1:  Iter=  6 NonCon=     1 RMS=1.50D-05 Max=5.33D-04 NDo=     1
 LinEq1:  Iter=  7 NonCon=     1 RMS=5.63D-06 Max=8.39D-05 NDo=     1
 LinEq1:  Iter=  8 NonCon=     1 RMS=2.19D-06 Max=5.49D-05 NDo=     1
 LinEq1:  Iter=  9 NonCon=     1 RMS=7.29D-07 Max=2.17D-05 NDo=     1
 LinEq1:  Iter= 10 NonCon=     1 RMS=3.30D-07 Max=1.47D-05 NDo=     1
 LinEq1:  Iter= 11 NonCon=     1 RMS=1.44D-07 Max=4.96D-06 NDo=     1
 LinEq1:  Iter= 12 NonCon=     1 RMS=5.64D-08 Max=1.01D-06 NDo=     1
 LinEq1:  Iter= 13 NonCon=     1 RMS=1.82D-08 Max=3.64D-07 NDo=     1
 LinEq1:  Iter= 14 NonCon=     1 RMS=6.32D-09 Max=1.54D-07 NDo=     1
 LinEq1:  Iter= 15 NonCon=     1 RMS=2.35D-09 Max=6.86D-08 NDo=     1
 LinEq1:  Iter= 16 NonCon=     1 RMS=9.10D-10 Max=1.93D-08 NDo=     1
 LinEq1:  Iter= 17 NonCon=     1 RMS=3.20D-10 Max=6.12D-09 NDo=     1
 LinEq1:  Iter= 18 NonCon=     1 RMS=1.01D-10 Max=1.15D-09 NDo=     1
 LinEq1:  Iter= 19 NonCon=     0 RMS=3.26D-11 Max=4.58D-10 NDo=     1
 Linear equations converged to 1.000D-10 1.000D-09 after    19 iterations.
 End of Minotr F.D. properties file   721 does not exist.
 End of Minotr F.D. properties file   722 does not exist.
 End of Minotr F.D. properties file   788 does not exist.

 **********************************************************************

            Population analysis using the SCF Density.

 **********************************************************************

 Orbital symmetries:
       Occupied  (A) (A) (A) (A) (A) (A) (A) (A) (A) (A) (A) (A)
                 (A) (A) (A) (A) (A) (A) (A) (A) (A) (A) (A) (A)
                 (A) (A) (A) (A) (A) (A) (A) (A) (A) (A) (A) (A)
                 (A) (A) (A) (A) (A) (A) (A) (A) (A) (A) (A) (A)
                 (A) (A) (A) (A)
       Virtual   (A) (A) (A) (A) (A) (A) (A) (A) (A) (A) (A) (A)
                 (A) (A) (A) (A) (A) (A) (A) (A) (A) (A) (A) (A)
                 (A) (A) (A) (A) (A) (A) (A) (A) (A) (A) (A) (A)
                 (A) (A) (A) (A) (A) (A) (A) (A) (A) (A) (A) (A)
                 (A) (A) (A) (A) (A) (A) (A) (A) (A) (A) (A) (A)
                 (A) (A) (A) (A) (A) (A) (A) (A) (A) (A) (A) (A)
                 (A) (A) (A) (A) (A) (A) (A) (A) (A) (A) (A) (A)
                 (A) (A) (A) (A) (A) (A) (A) (A) (A) (A) (A) (A)
                 (A) (A) (A) (A) (A) (A) (A) (A) (A) (A) (A) (A)
                 (A) (A) (A) (A) (A) (A) (A) (A) (A) (A) (A) (A)
                 (A) (A) (A) (A) (A) (A) (A) (A) (A) (A) (A) (A)
                 (A) (A) (A) (A) (A) (A) (A) (A) (A) (A) (A) (A)
                 (A) (A) (A) (A) (A) (A) (A) (A) (A) (A) (A) (A)
                 (A) (A) (A) (A) (A) (A) (A) (A) (A) (A) (A) (A)
                 (A) (A) (A) (A) (A) (A) (A) (A) (A) (A) (A) (A)
                 (A) (A) (A) (A)
 The electronic state is 1-A.
 Alpha  occ. eigenvalues --  -20.59262 -20.58923 -15.84729 -15.64080 -15.56071
 Alpha  occ. eigenvalues --  -11.34950 -11.29526 -11.29458 -11.28741 -11.27002
 Alpha  occ. eigenvalues --  -11.23728 -11.22868 -11.22662 -11.22433  -1.57126
 Alpha  occ. eigenvalues --   -1.36721  -1.31083  -1.23026  -1.14520  -1.09647
 Alpha  occ. eigenvalues --   -1.02353  -1.00995  -0.94592  -0.90059  -0.85586
 Alpha  occ. eigenvalues --   -0.82559  -0.78646  -0.75984  -0.75329  -0.72473
 Alpha  occ. eigenvalues --   -0.69822  -0.69683  -0.68383  -0.65350  -0.63542
 Alpha  occ. eigenvalues --   -0.61582  -0.59500  -0.57892  -0.56971  -0.55332
 Alpha  occ. eigenvalues --   -0.54023  -0.51349  -0.50132  -0.48576  -0.48061
 Alpha  occ. eigenvalues --   -0.46934  -0.46196  -0.45732  -0.43679  -0.41380
 Alpha  occ. eigenvalues --   -0.39906  -0.33804
 Alpha virt. eigenvalues --    0.07429   0.11753   0.17208   0.21578   0.23999
 Alpha virt. eigenvalues --    0.26209   0.26974   0.27506   0.28891   0.29411
 Alpha virt. eigenvalues --    0.30388   0.31152   0.32212   0.33208   0.34795
 Alpha virt. eigenvalues --    0.35369   0.36520   0.37191   0.39049   0.40361
 Alpha virt. eigenvalues --    0.41124   0.43389   0.43898   0.45798   0.48513
 Alpha virt. eigenvalues --    0.48859   0.51406   0.54258   0.58234   0.60112
 Alpha virt. eigenvalues --    0.63887   0.70035   0.70937   0.73012   0.73750
 Alpha virt. eigenvalues --    0.74724   0.76694   0.77768   0.78977   0.79707
 Alpha virt. eigenvalues --    0.81253   0.83515   0.85467   0.86721   0.88957
 Alpha virt. eigenvalues --    0.89159   0.90673   0.91078   0.92545   0.94161
 Alpha virt. eigenvalues --    0.95291   0.96708   0.98743   1.01397   1.02551
 Alpha virt. eigenvalues --    1.04067   1.05270   1.07137   1.07782   1.08440
 Alpha virt. eigenvalues --    1.09691   1.11160   1.11813   1.12293   1.13000
 Alpha virt. eigenvalues --    1.14339   1.14867   1.15272   1.17232   1.19355
 Alpha virt. eigenvalues --    1.19789   1.21334   1.22323   1.22740   1.24050
 Alpha virt. eigenvalues --    1.25005   1.25826   1.26820   1.27303   1.28273
 Alpha virt. eigenvalues --    1.30653   1.32556   1.33375   1.36504   1.38894
 Alpha virt. eigenvalues --    1.43656   1.45671   1.46614   1.49915   1.52381
 Alpha virt. eigenvalues --    1.55348   1.57510   1.60238   1.63458   1.66178
 Alpha virt. eigenvalues --    1.68293   1.71880   1.73830   1.76111   1.80688
 Alpha virt. eigenvalues --    1.83547   1.88199   1.89861   1.90771   1.93255
 Alpha virt. eigenvalues --    1.95173   1.97685   1.99136   2.02432   2.03489
 Alpha virt. eigenvalues --    2.04577   2.07280   2.07463   2.09564   2.10004
 Alpha virt. eigenvalues --    2.12462   2.13698   2.17616   2.18413   2.19597
 Alpha virt. eigenvalues --    2.22978   2.23998   2.25420   2.29020   2.29272
 Alpha virt. eigenvalues --    2.32337   2.33569   2.35493   2.37282   2.41048
 Alpha virt. eigenvalues --    2.42725   2.43469   2.44075   2.46432   2.47665
 Alpha virt. eigenvalues --    2.51282   2.52532   2.55749   2.56403   2.60538
 Alpha virt. eigenvalues --    2.63502   2.66569   2.67120   2.69977   2.71724
 Alpha virt. eigenvalues --    2.74095   2.77414   2.79441   2.80965   2.83387
 Alpha virt. eigenvalues --    2.85413   2.89205   2.90633   2.93980   2.94763
 Alpha virt. eigenvalues --    2.99333   3.01212   3.04164   3.05161   3.07845
 Alpha virt. eigenvalues --    3.08737   3.17195   3.21101   3.24984   3.27192
 Alpha virt. eigenvalues --    3.33202   3.37565   3.38380   3.51892   3.65771
 Alpha virt. eigenvalues --    4.13731   4.27816   4.35535   4.39394   4.46914
 Alpha virt. eigenvalues --    4.56149   4.61951   4.63867   4.76738   4.83227
 Alpha virt. eigenvalues --    4.91341   4.97495   5.06086   5.20969
          Condensed to atoms (all electrons):
               1          2          3          4          5          6
     1  O    8.353743   0.301660  -0.082940  -0.092612   0.003535   0.000787
     2  N    0.301660   5.719739   0.306684   0.267015  -0.054532   0.000993
     3  O   -0.082940   0.306684   8.316234  -0.084861   0.004628  -0.000016
     4  C   -0.092612   0.267015  -0.084861   5.215649   0.563523  -0.049158
     5  C    0.003535  -0.054532   0.004628   0.563523   4.713504   0.318764
     6  N    0.000787   0.000993  -0.000016  -0.049158   0.318764   7.187154
     7  C    0.000002  -0.000185   0.000004   0.005506  -0.033765   0.174432
     8  H   -0.000000   0.000002  -0.000000  -0.000250   0.003566  -0.047312
     9  C    0.000000  -0.000007  -0.000000   0.000526  -0.000566  -0.064452
    10  C   -0.000000   0.000000  -0.000000  -0.000080  -0.000064   0.003955
    11  C   -0.000000   0.000000  -0.000000  -0.000038   0.000027  -0.000189
    12  C   -0.000000   0.000002  -0.000000  -0.000119  -0.000176   0.004180
    13  C   -0.000004  -0.000038  -0.000027  -0.010644  -0.000680  -0.050832
    14  H    0.000001  -0.000091  -0.000004   0.002953   0.005826  -0.007239
    15  N   -0.000016   0.002292   0.000372  -0.063711  -0.006280   0.001992
    16  C    0.002529  -0.027413   0.000088   0.328319  -0.049177  -0.001413
    17  H    0.017312  -0.007226   0.000220  -0.022470   0.374046  -0.033399
    18  H    0.000011  -0.000051   0.000001   0.001526  -0.030538   0.338957
    19  H   -0.000000  -0.000007   0.000000  -0.000730   0.002501  -0.004496
    20  H    0.000000   0.000000   0.000000  -0.000088  -0.000025   0.001597
    21  H    0.000000  -0.000000   0.000000   0.000084   0.000001  -0.000115
    22  H    0.000000  -0.000000   0.000000   0.000002  -0.000001  -0.000064
    23  H    0.000000   0.000000   0.000000   0.000000  -0.000000   0.000004
    24  H   -0.000000   0.000000   0.000000   0.000001  -0.000003  -0.000061
    25  H    0.000000  -0.000000   0.000000   0.000046   0.000001  -0.000101
    26  H    0.000000  -0.000000  -0.000000   0.000008  -0.000001  -0.000157
    27  H    0.000020  -0.001097   0.006191  -0.062629   0.002168   0.000013
               7          8          9         10         11         12
     1  O    0.000002  -0.000000   0.000000  -0.000000  -0.000000  -0.000000
     2  N   -0.000185   0.000002  -0.000007   0.000000   0.000000   0.000002
     3  O    0.000004  -0.000000  -0.000000  -0.000000  -0.000000  -0.000000
     4  C    0.005506  -0.000250   0.000526  -0.000080  -0.000038  -0.000119
     5  C   -0.033765   0.003566  -0.000566  -0.000064   0.000027  -0.000176
     6  N    0.174432  -0.047312  -0.064452   0.003955  -0.000189   0.004180
     7  C    5.037621   0.418012   0.351654  -0.048501  -0.021984  -0.054950
     8  H    0.418012   0.525965  -0.044715   0.000301   0.000576  -0.005216
     9  C    0.351654  -0.044715   5.132173   0.322518  -0.052251  -0.007843
    10  C   -0.048501   0.000301   0.322518   5.141141   0.334915  -0.055291
    11  C   -0.021984   0.000576  -0.052251   0.334915   5.131548   0.324562
    12  C   -0.054950  -0.005216  -0.007843  -0.055291   0.324562   5.117455
    13  C    0.334473  -0.039680  -0.059643  -0.006948  -0.043880   0.371477
    14  H   -0.047016  -0.000222   0.004183  -0.000038   0.003646  -0.036135
    15  N   -0.064484   0.003996  -0.008827  -0.014648   0.002053  -0.080226
    16  C   -0.001876   0.000036  -0.000151  -0.000626  -0.000077   0.003475
    17  H    0.001694  -0.000058  -0.000058   0.000001   0.000000   0.000001
    18  H   -0.021306  -0.004440   0.001784  -0.000067   0.000007  -0.000119
    19  H   -0.035484   0.003896   0.398795  -0.033848   0.003891   0.000110
    20  H   -0.042951  -0.004354   0.395723  -0.034412   0.000818  -0.000090
    21  H    0.000345  -0.000067  -0.036351   0.401125  -0.039505  -0.002213
    22  H    0.003769  -0.000193  -0.037998   0.400551  -0.037014   0.004186
    23  H    0.000355  -0.000022   0.003990  -0.033852   0.405928  -0.035656
    24  H   -0.001595   0.000719  -0.002362  -0.048344   0.399830  -0.041902
    25  H    0.005051   0.000106  -0.000237   0.000123  -0.032431   0.399391
    26  H   -0.000247   0.000987   0.000138   0.004323  -0.040199   0.396139
    27  H   -0.000479   0.000009  -0.000034   0.000025   0.000007  -0.000031
              13         14         15         16         17         18
     1  O   -0.000004   0.000001  -0.000016   0.002529   0.017312   0.000011
     2  N   -0.000038  -0.000091   0.002292  -0.027413  -0.007226  -0.000051
     3  O   -0.000027  -0.000004   0.000372   0.000088   0.000220   0.000001
     4  C   -0.010644   0.002953  -0.063711   0.328319  -0.022470   0.001526
     5  C   -0.000680   0.005826  -0.006280  -0.049177   0.374046  -0.030538
     6  N   -0.050832  -0.007239   0.001992  -0.001413  -0.033399   0.338957
     7  C    0.334473  -0.047016  -0.064484  -0.001876   0.001694  -0.021306
     8  H   -0.039680  -0.000222   0.003996   0.000036  -0.000058  -0.004440
     9  C   -0.059643   0.004183  -0.008827  -0.000151  -0.000058   0.001784
    10  C   -0.006948  -0.000038  -0.014648  -0.000626   0.000001  -0.000067
    11  C   -0.043880   0.003646   0.002053  -0.000077   0.000000   0.000007
    12  C    0.371477  -0.036135  -0.080226   0.003475   0.000001  -0.000119
    13  C    5.034347   0.404928   0.258378  -0.075462   0.000004   0.002840
    14  H    0.404928   0.524959  -0.038148  -0.005129   0.000087  -0.000078
    15  N    0.258378  -0.038148   6.955512   0.584400  -0.000088  -0.000137
    16  C   -0.075462  -0.005129   0.584400   4.723192   0.001833  -0.000196
    17  H    0.000004   0.000087  -0.000088   0.001833   0.374008  -0.002624
    18  H    0.002840  -0.000078  -0.000137  -0.000196  -0.002624   0.307789
    19  H   -0.004013  -0.000055   0.002902   0.001884   0.000006  -0.000012
    20  H    0.004486  -0.000076   0.000336   0.000019   0.000005   0.000280
    21  H   -0.002034   0.000032   0.005655   0.000117   0.000000   0.000001
    22  H   -0.000203   0.000013   0.000245   0.000015  -0.000000   0.000002
    23  H    0.003772  -0.000064  -0.000229   0.000002  -0.000000  -0.000000
    24  H   -0.000123  -0.000189   0.000002   0.000000  -0.000000   0.000004
    25  H   -0.043955  -0.000217   0.001695   0.000346   0.000000   0.000002
    26  H   -0.040793  -0.003035   0.004334  -0.000077   0.000000   0.000004
    27  H    0.005122  -0.000181  -0.039406   0.403231  -0.000081   0.000001
              19         20         21         22         23         24
     1  O   -0.000000   0.000000   0.000000   0.000000   0.000000  -0.000000
     2  N   -0.000007   0.000000  -0.000000  -0.000000   0.000000   0.000000
     3  O    0.000000   0.000000   0.000000   0.000000   0.000000   0.000000
     4  C   -0.000730  -0.000088   0.000084   0.000002   0.000000   0.000001
     5  C    0.002501  -0.000025   0.000001  -0.000001  -0.000000  -0.000003
     6  N   -0.004496   0.001597  -0.000115  -0.000064   0.000004  -0.000061
     7  C   -0.035484  -0.042951   0.000345   0.003769   0.000355  -0.001595
     8  H    0.003896  -0.004354  -0.000067  -0.000193  -0.000022   0.000719
     9  C    0.398795   0.395723  -0.036351  -0.037998   0.003990  -0.002362
    10  C   -0.033848  -0.034412   0.401125   0.400551  -0.033852  -0.048344
    11  C    0.003891   0.000818  -0.039505  -0.037014   0.405928   0.399830
    12  C    0.000110  -0.000090  -0.002213   0.004186  -0.035656  -0.041902
    13  C   -0.004013   0.004486  -0.002034  -0.000203   0.003772  -0.000123
    14  H   -0.000055  -0.000076   0.000032   0.000013  -0.000064  -0.000189
    15  N    0.002902   0.000336   0.005655   0.000245  -0.000229   0.000002
    16  C    0.001884   0.000019   0.000117   0.000015   0.000002   0.000000
    17  H    0.000006   0.000005   0.000000  -0.000000  -0.000000  -0.000000
    18  H   -0.000012   0.000280   0.000001   0.000002  -0.000000   0.000004
    19  H    0.513828  -0.026274  -0.005194   0.000556  -0.000082  -0.000023
    20  H   -0.026274   0.546830   0.003309  -0.005837  -0.000118   0.001473
    21  H   -0.005194   0.003309   0.487474  -0.024346  -0.002514   0.004250
    22  H    0.000556  -0.005837  -0.024346   0.535338  -0.002888  -0.002649
    23  H   -0.000082  -0.000118  -0.002514  -0.002888   0.517777  -0.028492
    24  H   -0.000023   0.001473   0.004250  -0.002649  -0.028492   0.572260
    25  H    0.000005   0.000017   0.001417  -0.000097  -0.005838   0.003476
    26  H    0.000007  -0.000000  -0.000016  -0.000086   0.000536  -0.005777
    27  H    0.000093   0.000001  -0.000093  -0.000001  -0.000000  -0.000000
              25         26         27
     1  O    0.000000   0.000000   0.000020
     2  N   -0.000000  -0.000000  -0.001097
     3  O    0.000000  -0.000000   0.006191
     4  C    0.000046   0.000008  -0.062629
     5  C    0.000001  -0.000001   0.002168
     6  N   -0.000101  -0.000157   0.000013
     7  C    0.005051  -0.000247  -0.000479
     8  H    0.000106   0.000987   0.000009
     9  C   -0.000237   0.000138  -0.000034
    10  C    0.000123   0.004323   0.000025
    11  C   -0.032431  -0.040199   0.000007
    12  C    0.399391   0.396139  -0.000031
    13  C   -0.043955  -0.040793   0.005122
    14  H   -0.000217  -0.003035  -0.000181
    15  N    0.001695   0.004334  -0.039406
    16  C    0.000346  -0.000077   0.403231
    17  H    0.000000   0.000000  -0.000081
    18  H    0.000002   0.000004   0.000001
    19  H    0.000005   0.000007   0.000093
    20  H    0.000017  -0.000000   0.000001
    21  H    0.001417  -0.000016  -0.000093
    22  H   -0.000097  -0.000086  -0.000001
    23  H   -0.005838   0.000536  -0.000000
    24  H    0.003476  -0.005777  -0.000000
    25  H    0.498814  -0.022809  -0.000037
    26  H   -0.022809   0.547228   0.000001
    27  H   -0.000037   0.000001   0.437482
 Mulliken charges:
               1
     1  O   -0.504029
     2  N    0.492262
     3  O   -0.466576
     4  C    0.002232
     5  C    0.183718
     6  N   -0.773823
     7  C    0.041905
     8  H    0.188356
     9  C   -0.295990
    10  C   -0.332257
    11  C   -0.340241
    12  C   -0.301011
    13  C   -0.040869
    14  H    0.191288
    15  N   -0.507964
    16  C    0.112110
    17  H    0.296788
    18  H    0.406360
    19  H    0.181743
    20  H    0.159331
    21  H    0.208639
    22  H    0.166701
    23  H    0.177390
    24  H    0.149506
    25  H    0.195233
    26  H    0.159492
    27  H    0.249706
 Sum of Mulliken charges =  -0.00000
 Mulliken charges with hydrogens summed into heavy atoms:
               1
     1  O   -0.504029
     2  N    0.492262
     3  O   -0.466576
     4  C    0.002232
     5  C    0.480506
     6  N   -0.367463
     7  C    0.230261
     9  C    0.045084
    10  C    0.043084
    11  C   -0.013345
    12  C    0.053713
    13  C    0.150419
    15  N   -0.507964
    16  C    0.361816
 Electronic spatial extent (au):  <R**2>=           2936.7139
 Charge=             -0.0000 electrons
 Dipole moment (field-independent basis, Debye):
    X=             -5.3702    Y=              4.9079    Z=             -1.1434  Tot=              7.3644
 Quadrupole moment (field-independent basis, Debye-Ang):
   XX=           -105.4632   YY=            -79.1135   ZZ=            -81.6292
   XY=              1.7907   XZ=             -0.1073   YZ=             -2.4009
 Traceless Quadrupole moment (field-independent basis, Debye-Ang):
   XX=            -16.7279   YY=              9.6218   ZZ=              7.1061
   XY=              1.7907   XZ=             -0.1073   YZ=             -2.4009
 Octapole moment (field-independent basis, Debye-Ang**2):
  XXX=            -89.5078  YYY=             36.9090  ZZZ=             -0.2380  XYY=              2.9375
  XXY=              9.7199  XXZ=             -3.9517  XZZ=             10.4514  YZZ=             -0.0545
  YYZ=             -6.9961  XYZ=             -0.5051
 Hexadecapole moment (field-independent basis, Debye-Ang**3):
 XXXX=          -3268.3570 YYYY=           -549.3686 ZZZZ=           -356.4152 XXXY=             23.6506
 XXXZ=            -17.0427 YYYX=              8.7320 YYYZ=            -28.3803 ZZZX=              5.8834
 ZZZY=             -6.1834 XXYY=           -596.4566 XXZZ=           -517.7663 YYZZ=           -159.6345
 XXYZ=              2.0563 YYXZ=              0.2959 ZZXY=             -5.9891
 N-N= 9.358360196606D+02 E-N=-3.418418334377D+03  KE= 6.596244993904D+02
 Calling FoFJK, ICntrl=  10002127 FMM=F ISym2X=0 I1Cent= 0 IOpClX= 0 NMat=1 NMatS=1 NMatT=0.
 ***** Axes restored to original set *****
 -------------------------------------------------------------------
 Center     Atomic                   Forces (Hartrees/Bohr)
 Number     Number              X              Y              Z
 -------------------------------------------------------------------
      1        8          -0.000027873    0.000091500   -0.000072588
      2        7           0.000162166    0.000031428   -0.000016342
      3        8          -0.000019886   -0.000110954    0.000084586
      4        6          -0.000007588   -0.000035819    0.000002758
      5        6          -0.000022421    0.000022105   -0.000018458
      6        7          -0.000047007    0.000008463    0.000018021
      7        6           0.000064790   -0.000024216   -0.000022027
      8        1          -0.000031298   -0.000004921    0.000034277
      9        6          -0.000000474    0.000044608    0.000002076
     10        6          -0.000001042   -0.000026669    0.000046462
     11        6           0.000041315    0.000026078   -0.000012589
     12        6           0.000009756   -0.000036958   -0.000019045
     13        6          -0.000074352   -0.000015700   -0.000036085
     14        1           0.000028290    0.000003204    0.000027151
     15        7          -0.000000821    0.000028585    0.000002455
     16        6          -0.000044058    0.000029613    0.000001073
     17        1           0.000024017   -0.000051024    0.000036451
     18        1          -0.000010203   -0.000015057    0.000024115
     19        1           0.000021777   -0.000018160   -0.000029475
     20        1          -0.000004587   -0.000032306    0.000008924
     21        1           0.000007402    0.000019835   -0.000021097
     22        1          -0.000024528   -0.000010293   -0.000024998
     23        1          -0.000029401    0.000019086   -0.000010846
     24        1          -0.000021309   -0.000017449    0.000017171
     25        1           0.000002810    0.000041039   -0.000001787
     26        1          -0.000013615    0.000009115    0.000024111
     27        1           0.000018140    0.000024867   -0.000044295
 -------------------------------------------------------------------
 Cartesian Forces:  Max     0.000162166 RMS     0.000037579

 GradGradGradGradGradGradGradGradGradGradGradGradGradGradGradGradGradGrad
 Berny optimization.
 FormGI is forming the generalized inverse of G from B-inverse, IUseBI=4.
 Internal  Forces:  Max     0.000134203 RMS     0.000024850
 Search for a local minimum.
 Step number   1 out of a maximum of  162
 All quantities printed in internal units (Hartrees-Bohrs-Radians)
 Mixed Optimization -- En-DIIS/RFO-DIIS
 Second derivative matrix not updated -- first step.
 ITU=  0
     Eigenvalues ---    0.00258   0.00457   0.00956   0.00957   0.01040
     Eigenvalues ---    0.01436   0.01595   0.01724   0.01877   0.01936
     Eigenvalues ---    0.02139   0.02330   0.02418   0.02464   0.03582
     Eigenvalues ---    0.03898   0.04178   0.04472   0.04578   0.04799
     Eigenvalues ---    0.04995   0.05212   0.05471   0.05578   0.05982
     Eigenvalues ---    0.07040   0.07616   0.07968   0.08018   0.08118
     Eigenvalues ---    0.08158   0.08732   0.10103   0.12012   0.12653
     Eigenvalues ---    0.13927   0.15962   0.15997   0.15999   0.18814
     Eigenvalues ---    0.19428   0.20125   0.22318   0.23235   0.24759
     Eigenvalues ---    0.24910   0.25000   0.25000   0.26721   0.27027
     Eigenvalues ---    0.28076   0.28582   0.29082   0.33613   0.33906
     Eigenvalues ---    0.33918   0.34001   0.34049   0.34197   0.34230
     Eigenvalues ---    0.34283   0.34395   0.34481   0.34897   0.35246
     Eigenvalues ---    0.35470   0.36336   0.37519   0.37875   0.45524
     Eigenvalues ---    0.48949   0.55416   0.66495   0.84540   0.84582
 RFO step:  Lambda=-3.99201336D-07 EMin= 2.57654361D-03
 Linear search not attempted -- first point.
 Iteration  1 RMS(Cart)=  0.00050560 RMS(Int)=  0.00000025
 Iteration  2 RMS(Cart)=  0.00000027 RMS(Int)=  0.00000001
 Variable       Old X    -DE/DX   Delta X   Delta X   Delta X     New X
                                 (Linear)    (Quad)   (Total)
    R1        2.35535  -0.00011   0.00000  -0.00013  -0.00013   2.35522
    R2        2.35556  -0.00013   0.00000  -0.00016  -0.00016   2.35541
    R3        2.75071   0.00011   0.00000   0.00030   0.00030   2.75101
    R4        2.59297   0.00007   0.00000   0.00015   0.00015   2.59312
    R5        2.74391   0.00009   0.00000   0.00026   0.00026   2.74417
    R6        2.53444   0.00005   0.00000   0.00009   0.00009   2.53453
    R7        2.05278   0.00006   0.00000   0.00018   0.00018   2.05296
    R8        2.74587  -0.00000   0.00000  -0.00002  -0.00002   2.74585
    R9        1.91371   0.00003   0.00000   0.00006   0.00006   1.91378
   R10        2.07468   0.00005   0.00000   0.00014   0.00014   2.07482
   R11        2.90180   0.00002   0.00000   0.00005   0.00005   2.90185
   R12        2.91323   0.00002   0.00000   0.00003   0.00003   2.91326
   R13        2.91564   0.00002   0.00000   0.00008   0.00008   2.91572
   R14        2.06854   0.00004   0.00000   0.00011   0.00011   2.06865
   R15        2.07248   0.00003   0.00000   0.00009   0.00009   2.07257
   R16        2.89305   0.00001   0.00000   0.00006   0.00006   2.89311
   R17        2.06526   0.00003   0.00000   0.00008   0.00008   2.06534
   R18        2.06999   0.00004   0.00000   0.00010   0.00010   2.07010
   R19        2.91551   0.00000   0.00000   0.00003   0.00003   2.91554
   R20        2.06944   0.00004   0.00000   0.00010   0.00010   2.06955
   R21        2.07488   0.00003   0.00000   0.00009   0.00009   2.07498
   R22        2.90579   0.00001   0.00000   0.00004   0.00004   2.90583
   R23        2.06669   0.00004   0.00000   0.00011   0.00011   2.06680
   R24        2.07328   0.00003   0.00000   0.00008   0.00008   2.07337
   R25        2.07988   0.00004   0.00000   0.00011   0.00011   2.07999
   R26        2.75857   0.00002   0.00000   0.00006   0.00006   2.75863
   R27        2.44831   0.00003   0.00000   0.00006   0.00006   2.44837
   R28        2.05843   0.00005   0.00000   0.00015   0.00015   2.05858
    A1        2.15520  -0.00006   0.00000  -0.00024  -0.00024   2.15495
    A2        2.08495   0.00002   0.00000   0.00010   0.00010   2.08505
    A3        2.04296   0.00004   0.00000   0.00015   0.00015   2.04311
    A4        2.00615   0.00003   0.00000   0.00009   0.00009   2.00624
    A5        2.02659   0.00001   0.00000   0.00004   0.00004   2.02663
    A6        2.24462  -0.00004   0.00000  -0.00008  -0.00008   2.24454
    A7        2.23205   0.00001   0.00000   0.00007   0.00007   2.23212
    A8        2.03825   0.00002   0.00000   0.00010   0.00010   2.03836
    A9        2.01282  -0.00003   0.00000  -0.00018  -0.00018   2.01264
   A10        2.20851   0.00001   0.00000   0.00004   0.00004   2.20855
   A11        2.02474   0.00000   0.00000   0.00001   0.00001   2.02476
   A12        2.04688  -0.00001   0.00000  -0.00004  -0.00004   2.04683
   A13        1.83548  -0.00001   0.00000  -0.00011  -0.00011   1.83537
   A14        1.98032   0.00000   0.00000   0.00010   0.00010   1.98042
   A15        1.95904   0.00001   0.00000   0.00008   0.00008   1.95912
   A16        1.89983   0.00000   0.00000  -0.00004  -0.00004   1.89978
   A17        1.87100  -0.00001   0.00000  -0.00012  -0.00012   1.87088
   A18        1.91270  -0.00000   0.00000   0.00008   0.00008   1.91278
   A19        1.93203  -0.00000   0.00000   0.00007   0.00007   1.93210
   A20        1.89960   0.00001   0.00000   0.00015   0.00015   1.89975
   A21        1.89421  -0.00001   0.00000  -0.00016  -0.00016   1.89405
   A22        1.93009  -0.00000   0.00000   0.00003   0.00003   1.93012
   A23        1.93859   0.00001   0.00000   0.00001   0.00001   1.93860
   A24        1.86757  -0.00001   0.00000  -0.00011  -0.00011   1.86746
   A25        1.93835   0.00001   0.00000   0.00018   0.00018   1.93853
   A26        1.90959  -0.00000   0.00000  -0.00001  -0.00001   1.90959
   A27        1.91457   0.00000   0.00000   0.00003   0.00003   1.91460
   A28        1.89802  -0.00001   0.00000  -0.00009  -0.00009   1.89793
   A29        1.92848  -0.00000   0.00000  -0.00003  -0.00003   1.92845
   A30        1.87353  -0.00000   0.00000  -0.00010  -0.00010   1.87343
   A31        1.94343   0.00001   0.00000   0.00014   0.00014   1.94357
   A32        1.92424   0.00000   0.00000   0.00003   0.00003   1.92427
   A33        1.90539  -0.00000   0.00000  -0.00006  -0.00006   1.90532
   A34        1.91654   0.00000   0.00000   0.00004   0.00004   1.91658
   A35        1.92299  -0.00001   0.00000  -0.00007  -0.00007   1.92292
   A36        1.84894  -0.00000   0.00000  -0.00009  -0.00009   1.84885
   A37        1.95623  -0.00000   0.00000   0.00009   0.00009   1.95632
   A38        1.92975   0.00001   0.00000   0.00009   0.00009   1.92983
   A39        1.91877  -0.00001   0.00000  -0.00009  -0.00009   1.91868
   A40        1.86759  -0.00000   0.00000   0.00005   0.00005   1.86764
   A41        1.91402   0.00001   0.00000  -0.00002  -0.00002   1.91400
   A42        1.87514  -0.00001   0.00000  -0.00012  -0.00012   1.87502
   A43        1.86719   0.00001   0.00000   0.00014   0.00014   1.86732
   A44        1.89750  -0.00001   0.00000  -0.00015  -0.00015   1.89734
   A45        1.96888   0.00001   0.00000   0.00016   0.00016   1.96905
   A46        1.93130   0.00000   0.00000   0.00001   0.00001   1.93131
   A47        1.89154  -0.00001   0.00000   0.00005   0.00005   1.89159
   A48        1.90742  -0.00001   0.00000  -0.00020  -0.00020   1.90722
   A49        2.07282   0.00001   0.00000   0.00015   0.00015   2.07298
   A50        2.23568   0.00000   0.00000   0.00010   0.00010   2.23578
   A51        2.01778   0.00001   0.00000   0.00002   0.00002   2.01781
   A52        2.02943  -0.00001   0.00000  -0.00013  -0.00013   2.02930
    D1        0.03223   0.00002   0.00000   0.00153   0.00153   0.03376
    D2       -3.00374   0.00001   0.00000   0.00108   0.00108  -3.00265
    D3       -3.09672   0.00001   0.00000   0.00135   0.00135  -3.09537
    D4        0.15050   0.00001   0.00000   0.00091   0.00091   0.15140
    D5       -3.09183  -0.00001   0.00000  -0.00036  -0.00036  -3.09219
    D6        0.03667  -0.00000   0.00000  -0.00011  -0.00011   0.03657
    D7       -0.07168   0.00000   0.00000   0.00016   0.00016  -0.07152
    D8        3.05682   0.00001   0.00000   0.00042   0.00042   3.05724
    D9       -2.82625  -0.00000   0.00000  -0.00004  -0.00004  -2.82629
   D10        0.34246   0.00000   0.00000   0.00023   0.00023   0.34269
   D11        0.43798  -0.00001   0.00000  -0.00057  -0.00057   0.43741
   D12       -2.67649  -0.00001   0.00000  -0.00030  -0.00030  -2.67679
   D13       -0.04815   0.00001   0.00000   0.00046   0.00046  -0.04768
   D14       -3.10301   0.00001   0.00000   0.00036   0.00036  -3.10265
   D15        3.10638   0.00001   0.00000   0.00021   0.00021   3.10658
   D16        0.05151   0.00000   0.00000   0.00011   0.00011   0.05162
   D17       -2.65245  -0.00000   0.00000  -0.00022  -0.00022  -2.65267
   D18        1.55630  -0.00000   0.00000  -0.00014  -0.00014   1.55616
   D19       -0.62396  -0.00001   0.00000  -0.00039  -0.00039  -0.62435
   D20        0.40144  -0.00000   0.00000  -0.00012  -0.00012   0.40132
   D21       -1.67299   0.00000   0.00000  -0.00004  -0.00004  -1.67303
   D22        2.42993  -0.00000   0.00000  -0.00029  -0.00029   2.42964
   D23       -2.87379  -0.00001   0.00000  -0.00041  -0.00041  -2.87420
   D24       -0.74905  -0.00000   0.00000  -0.00023  -0.00023  -0.74928
   D25        1.27762  -0.00001   0.00000  -0.00037  -0.00037   1.27726
   D26        1.37233  -0.00000   0.00000  -0.00030  -0.00030   1.37203
   D27       -2.78612   0.00000   0.00000  -0.00011  -0.00011  -2.78623
   D28       -0.75945  -0.00000   0.00000  -0.00025  -0.00025  -0.75970
   D29       -0.66881   0.00000   0.00000  -0.00016  -0.00016  -0.66898
   D30        1.45593   0.00001   0.00000   0.00002   0.00002   1.45595
   D31       -2.80059   0.00000   0.00000  -0.00012  -0.00012  -2.80071
   D32       -2.80865   0.00000   0.00000   0.00002   0.00002  -2.80863
   D33       -0.72243   0.00001   0.00000   0.00002   0.00002  -0.72241
   D34        1.39619  -0.00000   0.00000  -0.00023  -0.00023   1.39596
   D35       -0.80167  -0.00000   0.00000  -0.00015  -0.00015  -0.80181
   D36        1.28456   0.00000   0.00000  -0.00015  -0.00015   1.28441
   D37       -2.88001  -0.00001   0.00000  -0.00039  -0.00039  -2.88041
   D38        1.25752  -0.00001   0.00000  -0.00023  -0.00023   1.25729
   D39       -2.93944  -0.00000   0.00000  -0.00023  -0.00023  -2.93967
   D40       -0.82083  -0.00001   0.00000  -0.00048  -0.00048  -0.82131
   D41       -0.46284   0.00001   0.00000   0.00049   0.00049  -0.46236
   D42        1.63255   0.00001   0.00000   0.00049   0.00049   1.63303
   D43       -2.59971   0.00001   0.00000   0.00038   0.00038  -2.59933
   D44       -2.56956  -0.00000   0.00000   0.00023   0.00023  -2.56933
   D45       -0.47417  -0.00000   0.00000   0.00023   0.00023  -0.47394
   D46        1.57676  -0.00001   0.00000   0.00012   0.00012   1.57688
   D47        1.64274   0.00000   0.00000   0.00034   0.00034   1.64308
   D48       -2.54505  -0.00000   0.00000   0.00034   0.00034  -2.54471
   D49       -0.49413  -0.00000   0.00000   0.00024   0.00024  -0.49389
   D50        1.08759  -0.00001   0.00000  -0.00050  -0.00050   1.08709
   D51       -3.06376  -0.00000   0.00000  -0.00033  -0.00033  -3.06410
   D52       -1.03947  -0.00000   0.00000  -0.00046  -0.00046  -1.03993
   D53       -1.01466  -0.00001   0.00000  -0.00055  -0.00055  -1.01521
   D54        1.11716  -0.00000   0.00000  -0.00038  -0.00038   1.11679
   D55        3.14146  -0.00001   0.00000  -0.00050  -0.00050   3.14095
   D56       -3.06680  -0.00000   0.00000  -0.00036  -0.00036  -3.06716
   D57       -0.93498   0.00001   0.00000  -0.00019  -0.00019  -0.93516
   D58        1.08932   0.00000   0.00000  -0.00032  -0.00032   1.08900
   D59       -0.49010   0.00001   0.00000   0.00009   0.00009  -0.49001
   D60        1.59201   0.00001   0.00000   0.00028   0.00028   1.59229
   D61       -2.62362   0.00000   0.00000   0.00012   0.00012  -2.62350
   D62       -2.62637  -0.00000   0.00000  -0.00007  -0.00007  -2.62644
   D63       -0.54426   0.00000   0.00000   0.00012   0.00012  -0.54414
   D64        1.52329  -0.00000   0.00000  -0.00004  -0.00004   1.52326
   D65        1.62672   0.00000   0.00000   0.00005   0.00005   1.62678
   D66       -2.57435   0.00000   0.00000   0.00024   0.00024  -2.57411
   D67       -0.50680  -0.00000   0.00000   0.00009   0.00009  -0.50671
   D68       -0.61909   0.00000   0.00000   0.00022   0.00022  -0.61887
   D69       -2.68340   0.00000   0.00000   0.00032   0.00032  -2.68308
   D70        1.50862   0.00002   0.00000   0.00052   0.00052   1.50914
   D71       -2.73734  -0.00001   0.00000   0.00002   0.00002  -2.73732
   D72        1.48153  -0.00001   0.00000   0.00012   0.00012   1.48165
   D73       -0.60964   0.00001   0.00000   0.00033   0.00033  -0.60931
   D74        1.51714  -0.00000   0.00000   0.00015   0.00015   1.51728
   D75       -0.54718  -0.00000   0.00000   0.00025   0.00025  -0.54693
   D76       -2.63834   0.00001   0.00000   0.00045   0.00045  -2.63789
   D77       -1.13545   0.00001   0.00000   0.00037   0.00037  -1.13508
   D78        3.08359  -0.00001   0.00000   0.00007   0.00007   3.08365
   D79        0.97753  -0.00000   0.00000   0.00015   0.00015   0.97768
   D80        0.11669  -0.00000   0.00000   0.00013   0.00013   0.11682
   D81       -3.05217  -0.00001   0.00000  -0.00014  -0.00014  -3.05232
         Item               Value     Threshold  Converged?
 Maximum Force            0.000134     0.000450     YES
 RMS     Force            0.000025     0.000300     YES
 Maximum Displacement     0.002875     0.001800     NO 
 RMS     Displacement     0.000506     0.001200     YES
 Predicted change in Energy=-1.996121D-07
 GradGradGradGradGradGradGradGradGradGradGradGradGradGradGradGradGradGrad

                          Input orientation:                          
 ---------------------------------------------------------------------
 Center     Atomic      Atomic             Coordinates (Angstroms)
 Number     Number       Type             X           Y           Z
 ---------------------------------------------------------------------
      1          8           0        3.611348   -1.078506    0.607619
      2          7           0        2.971473   -0.166748    0.048522
      3          8           0        3.509974    0.767334   -0.576847
      4          6           0        1.517883   -0.159386    0.127871
      5          6           0        0.973751   -1.174748    0.873490
      6          7           0       -0.324567   -1.444467    1.074680
      7          6           0       -1.454446   -0.674705    0.582580
      8          1           0       -2.258776   -0.848716    1.309395
      9          6           0       -1.936948   -1.116630   -0.806642
     10          6           0       -2.858701   -0.047481   -1.429483
     11          6           0       -3.552856    0.780298   -0.344681
     12          6           0       -2.529706    1.553625    0.512919
     13          6           0       -1.168843    0.840210    0.572938
     14          1           0       -0.632450    1.104266    1.497093
     15          7           0       -0.377876    1.259857   -0.580012
     16          6           0        0.837835    0.826457   -0.693344
     17          1           0        1.669765   -1.855705    1.355239
     18          1           0       -0.526233   -2.223217    1.689899
     19          1           0       -1.064864   -1.291969   -1.444653
     20          1           0       -2.458280   -2.076236   -0.705414
     21          1           0       -2.265534    0.622608   -2.056885
     22          1           0       -3.599380   -0.530051   -2.076419
     23          1           0       -4.262072    1.480880   -0.798074
     24          1           0       -4.151686    0.113508    0.289722
     25          1           0       -2.351310    2.548273    0.094537
     26          1           0       -2.920347    1.689739    1.529124
     27          1           0        1.419104    1.231909   -1.520647
 ---------------------------------------------------------------------
                    Distance matrix (angstroms):
                    1          2          3          4          5
     1  O    0.000000
     2  N    1.246326   0.000000
     3  O    2.195532   1.246427   0.000000
     4  C    2.336137   1.455773   2.307350   0.000000
     5  C    2.652710   2.384855   3.508217   1.372220   0.000000
     6  N    3.980390   3.680958   4.724755   2.437725   1.341214
     7  C    5.081924   4.486870   5.298038   3.050746   2.496160
     8  H    5.916388   5.423134   6.280764   4.016755   3.278039
     9  C    5.725834   5.072099   5.768109   3.704792   3.361308
    10  C    6.861073   6.015784   6.476954   4.646758   4.611085
    11  C    7.462429   6.604421   7.066656   5.178678   5.079008
    12  C    6.682037   5.782588   6.187372   4.411989   4.455137
    13  C    5.151010   4.293157   4.818573   2.900996   2.956535
    14  H    4.854429   4.086820   4.644828   2.845263   2.857039
    15  N    4.774130   3.694374   3.918924   2.471690   3.141157
    16  C    3.607459   2.467638   2.675330   1.452153   2.545244
    17  H    2.220972   2.500905   3.741611   2.099285   1.086379
    18  H    4.427333   4.376886   5.511125   3.298142   2.003937
    19  H    5.111198   4.448339   5.091459   3.228956   3.089252
    20  H    6.289666   5.804893   6.612297   4.492054   3.883871
    21  H    6.673163   5.699304   5.963887   4.438346   4.723405
    22  H    7.713589   6.915452   7.380707   5.584144   5.480066
    23  H    8.397450   7.466966   7.807867   6.079122   6.104124
    24  H    7.860449   7.132750   7.738182   5.678440   5.317001
    25  H    6.997861   5.975406   6.162560   4.722624   5.052097
    26  H    7.153698   6.352344   6.828980   5.008060   4.878436
    27  H    3.830596   2.613118   2.340582   2.159414   3.423774
                    6          7          8          9         10
     6  N    0.000000
     7  C    1.453039   0.000000
     8  H    2.037443   1.097946   0.000000
     9  C    2.499324   1.535592   2.157073   0.000000
    10  C    3.826779   2.532536   2.916049   1.542932   0.000000
    11  C    4.169654   2.716647   2.657875   2.534345   1.530969
    12  C    3.763877   2.475175   2.545392   3.036917   2.538643
    13  C    2.486825   1.541632   2.140746   2.514448   2.766461
    14  H    2.601782   2.162579   2.548393   3.455617   3.853254
    15  N    3.170839   2.500630   3.399076   2.851273   2.930056
    16  C    3.103899   3.022586   4.050453   3.389373   3.869114
    17  H    2.055527   3.428186   4.055806   4.269466   5.615279
    18  H    1.012727   2.117929   2.244045   3.073657   4.461477
    19  H    2.630272   2.154637   3.034251   1.094684   2.183307
    20  H    2.849666   2.151952   2.367712   1.096757   2.190995
    21  H    4.224553   3.050845   3.673783   2.167032   1.092932
    22  H    4.635729   3.419348   3.655476   2.172577   1.095447
    23  H    5.250601   3.799410   3.725807   3.486163   2.168874
    24  H    4.205982   2.825270   2.355572   2.760492   2.157173
    25  H    4.583704   3.380848   3.608875   3.796753   3.052544
    26  H    4.094855   2.938606   2.632434   3.781346   3.431485
    27  H    4.115714   4.039310   5.085758   4.157947   4.465956
                   11         12         13         14         15
    11  C    0.000000
    12  C    1.542838   0.000000
    13  C    2.555216   1.537696   0.000000
    14  H    3.467832   2.184056   1.100684   0.000000
    15  N    3.219605   2.431289   1.459803   2.098423   0.000000
    16  C    4.404755   3.650229   2.372850   2.652722   1.295621
    17  H    6.092127   5.474358   3.992198   3.752565   4.200566
    18  H    4.724517   4.434380   3.323422   3.334757   4.160086
    19  H    3.419697   3.751700   2.937289   3.818742   2.780534
    20  H    3.080262   3.829534   3.435475   4.277883   3.933614
    21  H    2.147954   2.745992   2.857630   3.940776   2.480018
    22  H    2.172118   3.491501   3.847625   4.923784   3.977573
    23  H    1.095156   2.173727   3.443573   4.310891   3.896585
    24  H    1.098032   2.180499   3.083125   3.850243   4.038836
    25  H    2.182284   1.093706   2.131800   2.647035   2.451422
    26  H    2.176762   1.097178   2.168814   2.361837   3.331277
    27  H    5.129058   4.453312   3.351715   3.651290   2.028476
                   16         17         18         19         20
    16  C    0.000000
    17  H    3.476032   0.000000
    18  H    4.103785   2.251549   0.000000
    19  H    2.944904   3.954161   3.314025   0.000000
    20  H    4.392055   4.619056   3.080897   1.761578   0.000000
    21  H    3.395835   5.768119   5.016201   2.341375   3.024464
    22  H    4.841682   6.426315   5.147446   2.720922   2.360605
    23  H    5.142790   7.138364   5.819522   4.281225   3.989402
    24  H    5.135177   6.237181   4.534831   3.809447   2.941581
    25  H    3.708915   6.095361   5.351934   4.332609   4.694406
    26  H    4.450680   5.802546   4.590082   4.601820   4.403320
    27  H    1.089355   4.226927   5.101945   3.542009   5.161640
                   21         22         23         24         25
    21  H    0.000000
    22  H    1.762994   0.000000
    23  H    2.511453   2.473291   0.000000
    24  H    3.053411   2.513530   1.750769   0.000000
    25  H    2.888626   3.968225   2.363704   3.034392   0.000000
    26  H    3.798290   4.288180   2.694383   2.353044   1.766047
    27  H    3.772977   5.347762   5.732352   5.963385   4.307860
                   26         27
    26  H    0.000000
    27  H    5.323678   0.000000
 Stoichiometry    C9H13N3O2
 Framework group  C1[X(C9H13N3O2)]
 Deg. of freedom    75
 Full point group                 C1      NOp   1
 Largest Abelian subgroup         C1      NOp   1
 Largest concise Abelian subgroup C1      NOp   1
                         Standard orientation:                         
 ---------------------------------------------------------------------
 Center     Atomic      Atomic             Coordinates (Angstroms)
 Number     Number       Type             X           Y           Z
 ---------------------------------------------------------------------
      1          8           0        3.858380    0.712483   -0.024979
      2          7           0        3.076286   -0.251431    0.086939
      3          8           0        3.453499   -1.424521    0.274422
      4          6           0        1.641987   -0.025823   -0.018719
      5          6           0        1.277810    1.270849   -0.281406
      6          7           0        0.038709    1.774934   -0.378269
      7          6           0       -1.207064    1.033781   -0.277950
      8          1           0       -1.927873    1.600761   -0.881650
      9          6           0       -1.739871    0.924753    1.158112
     10          6           0       -2.824229   -0.168510    1.256004
     11          6           0       -3.524676   -0.371063   -0.090180
     12          6           0       -2.535509   -0.854020   -1.171221
     13          6           0       -1.100551   -0.373590   -0.898104
     14          1           0       -0.529312   -0.303677   -1.836349
     15          7           0       -0.454022   -1.335761   -0.010832
     16          6           0        0.791483   -1.159093    0.299229
     17          1           0        2.082837    1.987306   -0.418666
     18          1           0       -0.023712    2.757729   -0.614560
     19          1           0       -0.904684    0.699708    1.829044
     20          1           0       -2.137191    1.902205    1.457448
     21          1           0       -2.362435   -1.112213    1.557121
     22          1           0       -3.551256    0.100770    2.029906
     23          1           0       -4.342883   -1.091682    0.012841
     24          1           0       -3.991925    0.573335   -0.399153
     25          1           0       -2.506109   -1.946821   -1.204572
     26          1           0       -2.860459   -0.503681   -2.158880
     27          1           0        1.256885   -1.945335    0.892456
 ---------------------------------------------------------------------
 Rotational constants (GHZ):           1.6725081           0.4259029           0.3870389
[...]
 Rotational constants (GHZ):           1.6722557           0.4259912           0.3871100

 **********************************************************************

            Population analysis using the SCF Density.

 **********************************************************************

 Orbital symmetries:
       Occupied  (A) (A) (A) (A) (A) (A) (A) (A) (A) (A) (A) (A)
                 (A) (A) (A) (A) (A) (A) (A) (A) (A) (A) (A) (A)
                 (A) (A) (A) (A) (A) (A) (A) (A) (A) (A) (A) (A)
                 (A) (A) (A) (A) (A) (A) (A) (A) (A) (A) (A) (A)
                 (A) (A) (A) (A)
       Virtual   (A) (A) (A) (A) (A) (A) (A) (A) (A) (A) (A) (A)
                 (A) (A) (A) (A) (A) (A) (A) (A) (A) (A) (A) (A)
                 (A) (A) (A) (A) (A) (A) (A) (A) (A) (A) (A) (A)
                 (A) (A) (A) (A) (A) (A) (A) (A) (A) (A) (A) (A)
                 (A) (A) (A) (A) (A) (A) (A) (A) (A) (A) (A) (A)
                 (A) (A) (A) (A) (A) (A) (A) (A) (A) (A) (A) (A)
                 (A) (A) (A) (A) (A) (A) (A) (A) (A) (A) (A) (A)
                 (A) (A) (A) (A) (A) (A) (A) (A) (A) (A) (A) (A)
                 (A) (A) (A) (A) (A) (A) (A) (A) (A) (A) (A) (A)
                 (A) (A) (A) (A) (A) (A) (A) (A) (A) (A) (A) (A)
                 (A) (A) (A) (A) (A) (A) (A) (A) (A) (A) (A) (A)
                 (A) (A) (A) (A) (A) (A) (A) (A) (A) (A) (A) (A)
                 (A) (A) (A) (A) (A) (A) (A) (A) (A) (A) (A) (A)
                 (A) (A) (A) (A) (A) (A) (A) (A) (A) (A) (A) (A)
                 (A) (A) (A) (A) (A) (A) (A) (A) (A) (A) (A) (A)
                 (A) (A) (A) (A)
 The electronic state is 1-A.
 Alpha  occ. eigenvalues --  -20.59264 -20.58925 -15.84730 -15.64078 -15.56072
 Alpha  occ. eigenvalues --  -11.34953 -11.29526 -11.29464 -11.28745 -11.27003
 Alpha  occ. eigenvalues --  -11.23731 -11.22870 -11.22664 -11.22436  -1.57139
 Alpha  occ. eigenvalues --   -1.36732  -1.31078  -1.23022  -1.14514  -1.09641
 Alpha  occ. eigenvalues --   -1.02351  -1.00992  -0.94589  -0.90054  -0.85584
 Alpha  occ. eigenvalues --   -0.82554  -0.78644  -0.75982  -0.75326  -0.72471
 Alpha  occ. eigenvalues --   -0.69822  -0.69690  -0.68381  -0.65346  -0.63540
 Alpha  occ. eigenvalues --   -0.61579  -0.59497  -0.57890  -0.56966  -0.55328
 Alpha  occ. eigenvalues --   -0.54024  -0.51346  -0.50132  -0.48576  -0.48062
 Alpha  occ. eigenvalues --   -0.46933  -0.46196  -0.45730  -0.43681  -0.41378
 Alpha  occ. eigenvalues --   -0.39904  -0.33803
 Alpha virt. eigenvalues --    0.07433   0.11754   0.17205   0.21577   0.23998
 Alpha virt. eigenvalues --    0.26208   0.26973   0.27506   0.28887   0.29408
 Alpha virt. eigenvalues --    0.30381   0.31147   0.32209   0.33207   0.34796
 Alpha virt. eigenvalues --    0.35367   0.36520   0.37189   0.39044   0.40359
 Alpha virt. eigenvalues --    0.41118   0.43383   0.43898   0.45800   0.48514
 Alpha virt. eigenvalues --    0.48865   0.51408   0.54261   0.58237   0.60113
 Alpha virt. eigenvalues --    0.63887   0.70036   0.70934   0.73010   0.73749
 Alpha virt. eigenvalues --    0.74725   0.76695   0.77769   0.78976   0.79706
 Alpha virt. eigenvalues --    0.81256   0.83513   0.85460   0.86717   0.88959
 Alpha virt. eigenvalues --    0.89161   0.90675   0.91080   0.92542   0.94158
 Alpha virt. eigenvalues --    0.95286   0.96709   0.98742   1.01391   1.02557
 Alpha virt. eigenvalues --    1.04063   1.05269   1.07131   1.07779   1.08435
 Alpha virt. eigenvalues --    1.09686   1.11155   1.11808   1.12285   1.12999
 Alpha virt. eigenvalues --    1.14334   1.14861   1.15265   1.17222   1.19348
 Alpha virt. eigenvalues --    1.19783   1.21326   1.22317   1.22726   1.24024
 Alpha virt. eigenvalues --    1.24998   1.25821   1.26841   1.27301   1.28256
 Alpha virt. eigenvalues --    1.30644   1.32550   1.33368   1.36504   1.38895
 Alpha virt. eigenvalues --    1.43666   1.45662   1.46619   1.49919   1.52349
 Alpha virt. eigenvalues --    1.55338   1.57507   1.60280   1.63446   1.66154
 Alpha virt. eigenvalues --    1.68303   1.71879   1.73825   1.76108   1.80679
 Alpha virt. eigenvalues --    1.83539   1.88154   1.89855   1.90768   1.93246
 Alpha virt. eigenvalues --    1.95157   1.97676   1.99107   2.02430   2.03493
 Alpha virt. eigenvalues --    2.04591   2.07265   2.07449   2.09560   2.09993
 Alpha virt. eigenvalues --    2.12468   2.13693   2.17613   2.18404   2.19590
 Alpha virt. eigenvalues --    2.22968   2.23987   2.25415   2.29012   2.29267
 Alpha virt. eigenvalues --    2.32327   2.33555   2.35476   2.37270   2.41036
 Alpha virt. eigenvalues --    2.42737   2.43469   2.44071   2.46429   2.47665
 Alpha virt. eigenvalues --    2.51285   2.52526   2.55738   2.56396   2.60530
 Alpha virt. eigenvalues --    2.63501   2.66566   2.67115   2.69970   2.71719
 Alpha virt. eigenvalues --    2.74082   2.77420   2.79434   2.80955   2.83370
 Alpha virt. eigenvalues --    2.85404   2.89201   2.90633   2.93992   2.94744
 Alpha virt. eigenvalues --    2.99333   3.01207   3.04161   3.05138   3.07853
 Alpha virt. eigenvalues --    3.08734   3.17202   3.21099   3.24968   3.27196
 Alpha virt. eigenvalues --    3.33187   3.37567   3.38364   3.51863   3.65755
 Alpha virt. eigenvalues --    4.13716   4.27785   4.35531   4.39375   4.46901
 Alpha virt. eigenvalues --    4.56129   4.61946   4.63857   4.76729   4.83206
 Alpha virt. eigenvalues --    4.91335   4.97483   5.06088   5.20968
          Condensed to atoms (all electrons):
               1          2          3          4          5          6
     1  O    8.353648   0.301752  -0.082995  -0.092624   0.003589   0.000786
     2  N    0.301752   5.719447   0.306759   0.267021  -0.054536   0.000993
     3  O   -0.082995   0.306759   8.316128  -0.084864   0.004626  -0.000016
     4  C   -0.092624   0.267021  -0.084864   5.215677   0.563600  -0.049162
     5  C    0.003589  -0.054536   0.004626   0.563600   4.713364   0.318721
     6  N    0.000786   0.000993  -0.000016  -0.049162   0.318721   7.187164
     7  C    0.000002  -0.000185   0.000004   0.005519  -0.033776   0.174487
     8  H   -0.000000   0.000002  -0.000000  -0.000250   0.003567  -0.047300
     9  C    0.000000  -0.000007  -0.000000   0.000520  -0.000569  -0.064444
    10  C   -0.000000   0.000000  -0.000000  -0.000080  -0.000064   0.003956
    11  C   -0.000000   0.000000  -0.000000  -0.000038   0.000027  -0.000189
    12  C   -0.000000   0.000002  -0.000000  -0.000120  -0.000176   0.004179
    13  C   -0.000004  -0.000038  -0.000027  -0.010625  -0.000682  -0.050857
    14  H    0.000001  -0.000090  -0.000004   0.002952   0.005817  -0.007237
    15  N   -0.000016   0.002290   0.000370  -0.063698  -0.006267   0.001994
    16  C    0.002523  -0.027372   0.000112   0.328206  -0.049105  -0.001406
    17  H    0.017271  -0.007207   0.000220  -0.022462   0.374056  -0.033405
    18  H    0.000011  -0.000051   0.000001   0.001525  -0.030525   0.338956
    19  H   -0.000000  -0.000007   0.000000  -0.000727   0.002505  -0.004501
    20  H    0.000000   0.000000   0.000000  -0.000088  -0.000025   0.001600
    21  H    0.000000  -0.000000   0.000000   0.000084   0.000001  -0.000115
    22  H    0.000000  -0.000000   0.000000   0.000002  -0.000001  -0.000064
    23  H    0.000000   0.000000   0.000000   0.000000  -0.000000   0.000004
    24  H   -0.000000   0.000000   0.000000   0.000001  -0.000003  -0.000061
    25  H    0.000000  -0.000000   0.000000   0.000046   0.000001  -0.000101
    26  H    0.000000  -0.000000  -0.000000   0.000008  -0.000001  -0.000157
    27  H    0.000020  -0.001089   0.006173  -0.062658   0.002169   0.000013
               7          8          9         10         11         12
     1  O    0.000002  -0.000000   0.000000  -0.000000  -0.000000  -0.000000
     2  N   -0.000185   0.000002  -0.000007   0.000000   0.000000   0.000002
     3  O    0.000004  -0.000000  -0.000000  -0.000000  -0.000000  -0.000000
     4  C    0.005519  -0.000250   0.000520  -0.000080  -0.000038  -0.000120
     5  C   -0.033776   0.003567  -0.000569  -0.000064   0.000027  -0.000176
     6  N    0.174487  -0.047300  -0.064444   0.003956  -0.000189   0.004179
     7  C    5.037662   0.418012   0.351623  -0.048493  -0.021967  -0.054938
     8  H    0.418012   0.525977  -0.044695   0.000299   0.000579  -0.005216
     9  C    0.351623  -0.044695   5.132160   0.322484  -0.052218  -0.007829
    10  C   -0.048493   0.000299   0.322484   5.141192   0.334906  -0.055276
    11  C   -0.021967   0.000579  -0.052218   0.334906   5.131530   0.324491
    12  C   -0.054938  -0.005216  -0.007829  -0.055276   0.324491   5.117500
    13  C    0.334409  -0.039697  -0.059671  -0.006961  -0.043871   0.371481
    14  H   -0.047032  -0.000223   0.004185  -0.000038   0.003647  -0.036138
    15  N   -0.064476   0.003995  -0.008802  -0.014654   0.002053  -0.080239
    16  C   -0.001877   0.000036  -0.000147  -0.000628  -0.000077   0.003474
    17  H    0.001695  -0.000058  -0.000058   0.000001   0.000000   0.000001
    18  H   -0.021315  -0.004444   0.001785  -0.000067   0.000007  -0.000119
    19  H   -0.035465   0.003893   0.398801  -0.033850   0.003888   0.000109
    20  H   -0.042963  -0.004356   0.395714  -0.034398   0.000819  -0.000091
    21  H    0.000344  -0.000067  -0.036352   0.401118  -0.039514  -0.002210
    22  H    0.003767  -0.000192  -0.037985   0.400530  -0.037011   0.004185
    23  H    0.000354  -0.000022   0.003987  -0.033844   0.405918  -0.035650
    24  H   -0.001590   0.000718  -0.002356  -0.048343   0.399825  -0.041908
    25  H    0.005050   0.000107  -0.000237   0.000128  -0.032421   0.399383
    26  H   -0.000250   0.000987   0.000138   0.004322  -0.040206   0.396140
    27  H   -0.000479   0.000009  -0.000033   0.000025   0.000007  -0.000031
              13         14         15         16         17         18
     1  O   -0.000004   0.000001  -0.000016   0.002523   0.017271   0.000011
     2  N   -0.000038  -0.000090   0.002290  -0.027372  -0.007207  -0.000051
     3  O   -0.000027  -0.000004   0.000370   0.000112   0.000220   0.000001
     4  C   -0.010625   0.002952  -0.063698   0.328206  -0.022462   0.001525
     5  C   -0.000682   0.005817  -0.006267  -0.049105   0.374056  -0.030525
     6  N   -0.050857  -0.007237   0.001994  -0.001406  -0.033405   0.338956
     7  C    0.334409  -0.047032  -0.064476  -0.001877   0.001695  -0.021315
     8  H   -0.039697  -0.000223   0.003995   0.000036  -0.000058  -0.004444
     9  C   -0.059671   0.004185  -0.008802  -0.000147  -0.000058   0.001785
    10  C   -0.006961  -0.000038  -0.014654  -0.000628   0.000001  -0.000067
    11  C   -0.043871   0.003647   0.002053  -0.000077   0.000000   0.000007
    12  C    0.371481  -0.036138  -0.080239   0.003474   0.000001  -0.000119
    13  C    5.034326   0.404937   0.258371  -0.075434   0.000003   0.002840
    14  H    0.404937   0.525005  -0.038150  -0.005129   0.000086  -0.000077
    15  N    0.258371  -0.038150   6.955501   0.584410  -0.000088  -0.000137
    16  C   -0.075434  -0.005129   0.584410   4.723105   0.001830  -0.000196
    17  H    0.000003   0.000086  -0.000088   0.001830   0.374086  -0.002623
    18  H    0.002840  -0.000077  -0.000137  -0.000196  -0.002623   0.307783
    19  H   -0.004010  -0.000055   0.002892   0.001880   0.000006  -0.000012
    20  H    0.004489  -0.000076   0.000336   0.000020   0.000005   0.000279
    21  H   -0.002034   0.000032   0.005650   0.000118   0.000000   0.000001
    22  H   -0.000202   0.000013   0.000245   0.000015  -0.000000   0.000002
    23  H    0.003770  -0.000064  -0.000229   0.000002  -0.000000  -0.000000
    24  H   -0.000119  -0.000189   0.000002   0.000000  -0.000000   0.000004
    25  H   -0.043938  -0.000220   0.001691   0.000345   0.000000   0.000002
    26  H   -0.040789  -0.003033   0.004334  -0.000077   0.000000   0.000004
    27  H    0.005122  -0.000181  -0.039415   0.403234  -0.000081   0.000001
              19         20         21         22         23         24
     1  O   -0.000000   0.000000   0.000000   0.000000   0.000000  -0.000000
     2  N   -0.000007   0.000000  -0.000000  -0.000000   0.000000   0.000000
     3  O    0.000000   0.000000   0.000000   0.000000   0.000000   0.000000
     4  C   -0.000727  -0.000088   0.000084   0.000002   0.000000   0.000001
     5  C    0.002505  -0.000025   0.000001  -0.000001  -0.000000  -0.000003
     6  N   -0.004501   0.001600  -0.000115  -0.000064   0.000004  -0.000061
     7  C   -0.035465  -0.042963   0.000344   0.003767   0.000354  -0.001590
     8  H    0.003893  -0.004356  -0.000067  -0.000192  -0.000022   0.000718
     9  C    0.398801   0.395714  -0.036352  -0.037985   0.003987  -0.002356
    10  C   -0.033850  -0.034398   0.401118   0.400530  -0.033844  -0.048343
    11  C    0.003888   0.000819  -0.039514  -0.037011   0.405918   0.399825
    12  C    0.000109  -0.000091  -0.002210   0.004185  -0.035650  -0.041908
    13  C   -0.004010   0.004489  -0.002034  -0.000202   0.003770  -0.000119
    14  H   -0.000055  -0.000076   0.000032   0.000013  -0.000064  -0.000189
    15  N    0.002892   0.000336   0.005650   0.000245  -0.000229   0.000002
    16  C    0.001880   0.000020   0.000118   0.000015   0.000002   0.000000
    17  H    0.000006   0.000005   0.000000  -0.000000  -0.000000  -0.000000
    18  H   -0.000012   0.000279   0.000001   0.000002  -0.000000   0.000004
    19  H    0.513835  -0.026288  -0.005194   0.000557  -0.000082  -0.000023
    20  H   -0.026288   0.546858   0.003308  -0.005835  -0.000118   0.001471
    21  H   -0.005194   0.003308   0.487537  -0.024356  -0.002517   0.004250
    22  H    0.000557  -0.005835  -0.024356   0.535360  -0.002885  -0.002653
    23  H   -0.000082  -0.000118  -0.002517  -0.002885   0.517791  -0.028500
    24  H   -0.000023   0.001471   0.004250  -0.002653  -0.028500   0.572293
    25  H    0.000005   0.000017   0.001414  -0.000097  -0.005839   0.003475
    26  H    0.000007  -0.000000  -0.000017  -0.000086   0.000540  -0.005785
    27  H    0.000093   0.000001  -0.000093  -0.000001  -0.000000  -0.000000
              25         26         27
     1  O    0.000000   0.000000   0.000020
     2  N   -0.000000  -0.000000  -0.001089
     3  O    0.000000  -0.000000   0.006173
     4  C    0.000046   0.000008  -0.062658
     5  C    0.000001  -0.000001   0.002169
     6  N   -0.000101  -0.000157   0.000013
     7  C    0.005050  -0.000250  -0.000479
     8  H    0.000107   0.000987   0.000009
     9  C   -0.000237   0.000138  -0.000033
    10  C    0.000128   0.004322   0.000025
    11  C   -0.032421  -0.040206   0.000007
    12  C    0.399383   0.396140  -0.000031
    13  C   -0.043938  -0.040789   0.005122
    14  H   -0.000220  -0.003033  -0.000181
    15  N    0.001691   0.004334  -0.039415
    16  C    0.000345  -0.000077   0.403234
    17  H    0.000000   0.000000  -0.000081
    18  H    0.000002   0.000004   0.000001
    19  H    0.000005   0.000007   0.000093
    20  H    0.000017  -0.000000   0.000001
    21  H    0.001414  -0.000017  -0.000093
    22  H   -0.000097  -0.000086  -0.000001
    23  H   -0.005839   0.000540  -0.000000
    24  H    0.003475  -0.005785  -0.000000
    25  H    0.498829  -0.022824  -0.000037
    26  H   -0.022824   0.547268   0.000001
    27  H   -0.000037   0.000001   0.437626
 Mulliken charges:
               1
     1  O   -0.503962
     2  N    0.492317
     3  O   -0.466487
     4  C    0.002235
     5  C    0.183689
     6  N   -0.773838
     7  C    0.041879
     8  H    0.188340
     9  C   -0.295995
    10  C   -0.332265
    11  C   -0.340184
    12  C   -0.301005
    13  C   -0.040790
    14  H    0.191262
    15  N   -0.507964
    16  C    0.112140
    17  H    0.296720
    18  H    0.406366
    19  H    0.181743
    20  H    0.159321
    21  H    0.208611
    22  H    0.166693
    23  H    0.177383
    24  H    0.149491
    25  H    0.195221
    26  H    0.159475
    27  H    0.249607
 Sum of Mulliken charges =  -0.00000
 Mulliken charges with hydrogens summed into heavy atoms:
               1
     1  O   -0.503962
     2  N    0.492317
     3  O   -0.466487
     4  C    0.002235
     5  C    0.480409
     6  N   -0.367473
     7  C    0.230219
     9  C    0.045069
    10  C    0.043038
    11  C   -0.013311
    12  C    0.053691
    13  C    0.150472
    15  N   -0.507964
    16  C    0.361747
 Electronic spatial extent (au):  <R**2>=           2936.8368
 Charge=             -0.0000 electrons
 Dipole moment (field-independent basis, Debye):
    X=             -5.3680    Y=              4.9064    Z=             -1.1490  Tot=              7.3626
 Quadrupole moment (field-independent basis, Debye-Ang):
   XX=           -105.4549   YY=            -79.1236   ZZ=            -81.6220
   XY=              1.7898   XZ=             -0.1188   YZ=             -2.4250
 Traceless Quadrupole moment (field-independent basis, Debye-Ang):
   XX=            -16.7214   YY=              9.6099   ZZ=              7.1115
   XY=              1.7898   XZ=             -0.1188   YZ=             -2.4250
 Octapole moment (field-independent basis, Debye-Ang**2):
  XXX=            -89.4575  YYY=             36.8937  ZZZ=             -0.2381  XYY=              2.9285
  XXY=              9.7112  XXZ=             -4.0087  XZZ=             10.4670  YZZ=             -0.0421
  YYZ=             -7.0269  XYZ=             -0.5542
 Hexadecapole moment (field-independent basis, Debye-Ang**3):
 XXXX=          -3268.2206 YYYY=           -549.6157 ZZZZ=           -356.4427 XXXY=             23.6369
 XXXZ=            -17.2298 YYYX=              8.7404 YYYZ=            -28.4904 ZZZX=              5.9130
 ZZZY=             -6.1873 XXYY=           -596.5273 XXZZ=           -517.7173 YYZZ=           -159.6072
 XXYZ=              1.8747 YYXZ=              0.3064 ZZXY=             -5.9973
 N-N= 9.358046088906D+02 E-N=-3.418353146635D+03  KE= 6.596216764590D+02
 Unable to Open any file for archive entry.
 1\1\GINC-LOTUS\FOpt\RMP2-FC\6-31G(d)\C9H13N3O2\ALEXEY\03-Jun-2023\0\\#
  MP2/6-31G* Opt Scf=Tight\\Title\\0,1\O,3.6109413299,-1.0801541703,0.6
 044682587\N,2.9711559363,-0.1671416432,0.0474614443\O,3.5093229875,0.7
 679132575,-0.5765826005\C,1.5175426251,-0.1596602775,0.1274877501\C,0.
 9736690822,-1.1746856542,0.8737363821\N,-0.3246473092,-1.4441228268,1.
 0755871483\C,-1.4544867013,-0.6746247514,0.5831143728\H,-2.2591002239,
 -0.8485911705,1.3097081373\C,-1.9364101922,-1.1166601092,-0.8062443413
 \C,-2.8577176197,-0.0473991332,-1.4295354228\C,-3.5526354955,0.7803358
 768,-0.3451810048\C,-2.5300799473,1.5535150013,0.513197327\C,-1.169156
 1711,0.8403232041,0.5733253129\H,-0.6327348611,1.1045253607,1.49747549
 05\N,-0.3783338428,1.2599806419,-0.5797311081\C,0.8372863334,0.8264203
 095,-0.6934066401\H,1.6697729894,-1.8557095381,1.3554084889\H,-0.52626
 41663,-2.2225402193,1.6912671913\H,-1.0640573791,-1.292120461,-1.44391
 93703\H,-2.4577972471,-2.0762935087,-0.705163458\H,-2.2640905787,0.622
 7674351,-2.0565054143\H,-3.5980010452,-0.5298263613,-2.0770858936\H,-4
 .2615301117,1.4809694234,-0.799077303\H,-4.1519913147,0.1135161721,0.2
 88761411\H,-2.3516892087,2.5484383062,0.0953742164\H,-2.9211796304,1.6
 891195072,1.5293278663\H,1.4184686622,1.2321031287,-1.5207401412\\Vers
 ion=ES64L-G16RevC.02\State=1-A\HF=-661.2905293\MP2=-663.3268951\RMSD=4
 .437e-09\RMSF=2.452e-05\Dipole=-2.1836384,-1.158692,0.9491204\PG=C01 [
 X(C9H13N3O2)]\\@
 The archive entry for this job was punched.


 I think that all right-thinking people in this
 country are sick and tired of being told that
 ordinary, decent people are fed up in this country
 with being sick and tired.  I'm certainly not!
 But I'm sick and tired of being told that I am!
                               -- Monty Python
 Job cpu time:       0 days  0 hours 24 minutes 36.7 seconds.
 Elapsed time:       0 days  0 hours  4 minutes 11.1 seconds.
 File lengths (MBytes):  RWF=   6128 Int=      0 D2E=      0 Chk=      7 Scr=      1
 Normal termination of Gaussian 16 at Sat Jun  3 15:25:25 2023.
