 Entering Gaussian System, Link 0=g16
 Initial command:
 /home/alexey/programs//g16/l1.exe "/home/alexey/tmp/Gau-1619071.inp" -scrdir="/home/alexey/tmp/"
 Entering Link 1 = /home/alexey/programs//g16/l1.exe PID=   1619073.
  
 Copyright (c) 1988-2021, Gaussian, Inc.  All Rights Reserved.
  
 This is part of the Gaussian(R) 16 program.  It is based on
 the Gaussian(R) 09 system (copyright 2009, Gaussian, Inc.),
 the Gaussian(R) 03 system (copyright 2003, Gaussian, Inc.),
 the Gaussian(R) 98 system (copyright 1998, Gaussian, Inc.),
 the Gaussian(R) 94 system (copyright 1995, Gaussian, Inc.),
 the Gaussian 92(TM) system (copyright 1992, Gaussian, Inc.),
 the Gaussian 90(TM) system (copyright 1990, Gaussian, Inc.),
 the Gaussian 88(TM) system (copyright 1988, Gaussian, Inc.),
 the Gaussian 86(TM) system (copyright 1986, Carnegie Mellon
 University), and the Gaussian 82(TM) system (copyright 1983,
 Carnegie Mellon University). Gaussian is a federally registered
 trademark of Gaussian, Inc.
  
 This software contains proprietary and confidential information,
 including trade secrets, belonging to Gaussian, Inc.
  
 This software is provided under written license and may be
 used, copied, transmitted, or stored only in accord with that
 written license.
  
 The following legend is applicable only to US Government
 contracts under FAR:
  
                    RESTRICTED RIGHTS LEGEND
  
 Use, reproduction and disclosure by the US Government is
 subject to restrictions as set forth in subparagraphs (a)
 and (c) of the Commercial Computer Software - Restricted
 Rights clause in FAR 52.227-19.
  
 Gaussian, Inc.
 340 Quinnipiac St., Bldg. 40, Wallingford CT 06492
  
  
 ---------------------------------------------------------------
 Warning -- This program may not be used in any manner that
 competes with the business of Gaussian, Inc. or will provide
 assistance to any competitor of Gaussian, Inc.  The licensee
 of this program is prohibited from giving any competitor of
 Gaussian, Inc. access to this program.  By using this program,
 the user acknowledges that Gaussian, Inc. is engaged in the
 business of creating and licensing software in the field of
 computational chemistry and represents and warrants to the
 licensee that it is not a competitor of Gaussian, Inc. and that
 it will not use this program in any manner prohibited above.
 ---------------------------------------------------------------
  

 Cite this work as:
 Gaussian 16, Revision C.02,
 M. J. Frisch, G. W. Trucks, H. B. Schlegel, G. E. Scuseria, 
 M. A. Robb, J. R. Cheeseman, G. Scalmani, V. Barone, 
 G. A. Petersson, H. Nakatsuji, X. Li, M. Caricato, A. V. Marenich, 
 J. Bloino, B. G. Janesko, R. Gomperts, B. Mennucci, H. P. Hratchian, 
 J. V. Ortiz, A. F. Izmaylov, J. L. Sonnenberg, D. Williams-Young, 
 F. Ding, F. Lipparini, F. Egidi, J. Goings, B. Peng, A. Petrone, 
 T. Henderson, D. Ranasinghe, V. G. Zakrzewski, J. Gao, N. Rega, 
 G. Zheng, W. Liang, M. Hada, M. Ehara, K. Toyota, R. Fukuda, 
 J. Hasegawa, M. Ishida, T. Nakajima, Y. Honda, O. Kitao, H. Nakai, 
 T. Vreven, K. Throssell, J. A. Montgomery, Jr., J. E. Peralta, 
 F. Ogliaro, M. J. Bearpark, J. J. Heyd, E. N. Brothers, K. N. Kudin, 
 V. N. Staroverov, T. A. Keith, R. Kobayashi, J. Normand, 
 K. Raghavachari, A. P. Rendell, J. C. Burant, S. S. Iyengar, 
 J. Tomasi, M. Cossi, J. M. Millam, M. Klene, C. Adamo, R. Cammi, 
 J. W. Ochterski, R. L. Martin, K. Morokuma, O. Farkas, 
 J. B. Foresman, and D. J. Fox, Gaussian, Inc., Wallingford CT, 2019.
 
 ******************************************
 Gaussian 16:  ES64L-G16RevC.02  7-Dec-2021
                 3-Jul-2023 
 ******************************************
 %mem=8GB
 %NPROCS=4
 Will use up to    4 processors via shared memory.
 %NoSave
 ---------------------------------------------------------
 #MP2/6-31G* SCF=Tight Opt=(ModRedun, MaxCycle=20 ) NoSymm
 ---------------------------------------------------------
 1/6=20,18=120,19=15,38=1/1,3;
 2/9=110,12=2,15=1,17=6,18=5,40=1/2;
 3/5=1,6=6,7=1,11=9,25=1,30=1,71=1/1,2,3;
 4//1;
 5/5=2,32=2,38=5/2;
 8/6=4,10=2/1;
 9/15=2,16=-3/6;
 10/5=1,31=1/2;
 6/7=2,8=2,9=2,10=2/1;
 7/12=2,30=1/1,2,3,16;
 1/6=20,18=20,19=15/3(2);
 2/9=110,15=1/2;
 99//99;
 2/9=110,15=1/2;
 3/5=1,6=6,7=1,11=9,25=1,30=1,71=1/1,2,3;
 4/5=5,16=3,69=1/1;
 5/5=2,32=2,38=5/2;
 8/6=4,10=2/1;
 9/15=2,16=-3/6;
 10/5=1,31=1/2;
 7/12=2,30=1/1,2,3,16;
 1/6=20,18=20,19=15/3(-8);
 2/9=110,15=1/2;
 6/7=2,8=2,9=2,10=2/1;
 99/9=10/99;
 --------
 MolName:
 --------
 Symbolic Z-matrix:
 Charge =  0 Multiplicity = 1
 8                    0    -3.58977  -1.47797  -0.1229 
 7                    0    -3.24594  -0.31088   0.055 
 8                    0    -4.03247   0.60454   0.29971 
 6                    0    -1.75894   0.01442  -0.05383 
 6                    0    -1.37206   1.31653   0.28654 
 7                    0    -0.08241   1.78565   0.31099 
 6                    0     1.19535   1.00619   0.32127 
 1                    0     1.83409   1.49615   1.1012 
 6                    0     2.00791   1.06042  -0.99602 
 6                    0     3.40704   0.46038  -0.76079 
 6                    0     3.31109  -0.9592   -0.1799 
 6                    0     2.4166   -0.99475   1.07825 
 6                    0     0.99334  -0.4432    0.78872 
 1                    0     0.41737  -0.48537   1.74304 
 7                    0     0.3633   -1.29815  -0.22145 
 6                    0    -0.86536  -1.06546  -0.55117 
 1                    0    -2.15134   2.03142   0.59892 
 1                    0     0.14187   2.75778   0.08521 
 1                    0     1.48171   0.49389  -1.79364 
 1                    0     2.1158    2.11209  -1.33662 
 1                    0     3.9762    0.43872  -1.71586 
 1                    0     3.96453   1.1039   -0.04402 
 1                    0     2.88432  -1.63852  -0.95206 
 1                    0     4.3272   -1.33449   0.07079 
 1                    0     2.33581  -2.04337   1.43965 
 1                    0     2.88898  -0.39471   1.88414 
 1                    0    -1.40022  -1.871    -1.07815 
 
 The following ModRedundant input section has been read:
 D      16       4      15      27 F                                           
 D       1       2       4      16 F                                           
 D       7      13      15      16 F                                           
 D       7       9      10      11 F                                           
 D       9      10      11      12 F                                           
 D       6       7      13      15 F                                           
 

 GradGradGradGradGradGradGradGradGradGradGradGradGradGradGradGradGradGrad
 Berny optimization.
 Initialization pass.
                           ----------------------------
                           !    Initial Parameters    !
                           ! (Angstroms and Degrees)  !
 --------------------------                            --------------------------
 ! Name  Definition              Value          Derivative Info.                !
 --------------------------------------------------------------------------------
 ! R1    R(1,2)                  1.2296         estimate D2E/DX2                !
 ! R2    R(2,3)                  1.2315         estimate D2E/DX2                !
 ! R3    R(2,4)                  1.5261         estimate D2E/DX2                !
 ! R4    R(4,5)                  1.4004         estimate D2E/DX2                !
 ! R5    R(4,16)                 1.4873         estimate D2E/DX2                !
 ! R6    R(5,6)                  1.3725         estimate D2E/DX2                !
 ! R7    R(5,17)                 1.1027         estimate D2E/DX2                !
 ! R8    R(6,7)                  1.4968         estimate D2E/DX2                !
 ! R9    R(6,18)                 1.0229         estimate D2E/DX2                !
 ! R10   R(7,8)                  1.1209         estimate D2E/DX2                !
 ! R11   R(7,9)                  1.5487         estimate D2E/DX2                !
 ! R12   R(7,13)                 1.5362         estimate D2E/DX2                !
 ! R13   R(9,10)                 1.5404         estimate D2E/DX2                !
 ! R14   R(9,19)                 1.1109         estimate D2E/DX2                !
 ! R15   R(9,20)                 1.1107         estimate D2E/DX2                !
 ! R16   R(10,11)                1.5368         estimate D2E/DX2                !
 ! R17   R(10,21)                1.112          estimate D2E/DX2                !
 ! R18   R(10,22)                1.113          estimate D2E/DX2                !
 ! R19   R(11,12)                1.5441         estimate D2E/DX2                !
 ! R20   R(11,23)                1.1135         estimate D2E/DX2                !
 ! R21   R(11,24)                1.1118         estimate D2E/DX2                !
 ! R22   R(12,13)                1.5536         estimate D2E/DX2                !
 ! R23   R(12,25)                1.1121         estimate D2E/DX2                !
 ! R24   R(12,26)                1.1102         estimate D2E/DX2                !
 ! R25   R(13,14)                1.1155         estimate D2E/DX2                !
 ! R26   R(13,15)                1.4657         estimate D2E/DX2                !
 ! R27   R(15,16)                1.2932         estimate D2E/DX2                !
 ! R28   R(16,27)                1.1012         estimate D2E/DX2                !
 ! A1    A(1,2,3)              123.7598         estimate D2E/DX2                !
 ! A2    A(1,2,4)              117.6762         estimate D2E/DX2                !
 ! A3    A(3,2,4)              118.559          estimate D2E/DX2                !
 ! A4    A(2,4,5)              116.7486         estimate D2E/DX2                !
 ! A5    A(2,4,16)             117.0338         estimate D2E/DX2                !
 ! A6    A(5,4,16)             126.1873         estimate D2E/DX2                !
 ! A7    A(4,5,6)              125.5719         estimate D2E/DX2                !
 ! A8    A(4,5,17)             118.4531         estimate D2E/DX2                !
 ! A9    A(6,5,17)             115.9378         estimate D2E/DX2                !
 ! A10   A(5,6,7)              128.6273         estimate D2E/DX2                !
 ! A11   A(5,6,18)             121.7971         estimate D2E/DX2                !
 ! A12   A(7,6,18)             108.0143         estimate D2E/DX2                !
 ! A13   A(6,7,8)              105.2849         estimate D2E/DX2                !
 ! A14   A(6,7,9)              115.0763         estimate D2E/DX2                !
 ! A15   A(6,7,13)             112.4051         estimate D2E/DX2                !
 ! A16   A(8,7,9)              106.1146         estimate D2E/DX2                !
 ! A17   A(8,7,13)             105.999          estimate D2E/DX2                !
 ! A18   A(9,7,13)             111.1521         estimate D2E/DX2                !
 ! A19   A(7,9,10)             109.4521         estimate D2E/DX2                !
 ! A20   A(7,9,19)             110.1416         estimate D2E/DX2                !
 ! A21   A(7,9,20)             110.179          estimate D2E/DX2                !
 ! A22   A(10,9,19)            109.9512         estimate D2E/DX2                !
 ! A23   A(10,9,20)            109.1125         estimate D2E/DX2                !
 ! A24   A(19,9,20)            107.9817         estimate D2E/DX2                !
 ! A25   A(9,10,11)            111.1505         estimate D2E/DX2                !
 ! A26   A(9,10,21)            109.9569         estimate D2E/DX2                !
 ! A27   A(9,10,22)            109.1521         estimate D2E/DX2                !
 ! A28   A(11,10,21)           109.7914         estimate D2E/DX2                !
 ! A29   A(11,10,22)           108.7803         estimate D2E/DX2                !
 ! A30   A(21,10,22)           107.9395         estimate D2E/DX2                !
 ! A31   A(10,11,12)           111.4328         estimate D2E/DX2                !
 ! A32   A(10,11,23)           108.9871         estimate D2E/DX2                !
 ! A33   A(10,11,24)           109.8742         estimate D2E/DX2                !
 ! A34   A(12,11,23)           109.2058         estimate D2E/DX2                !
 ! A35   A(12,11,24)           109.7506         estimate D2E/DX2                !
 ! A36   A(23,11,24)           107.5001         estimate D2E/DX2                !
 ! A37   A(11,12,13)           111.7566         estimate D2E/DX2                !
 ! A38   A(11,12,25)           109.1827         estimate D2E/DX2                !
 ! A39   A(11,12,26)           109.4218         estimate D2E/DX2                !
 ! A40   A(13,12,25)           109.1936         estimate D2E/DX2                !
 ! A41   A(13,12,26)           109.4618         estimate D2E/DX2                !
 ! A42   A(25,12,26)           107.7361         estimate D2E/DX2                !
 ! A43   A(7,13,12)            105.7347         estimate D2E/DX2                !
 ! A44   A(7,13,14)            111.3393         estimate D2E/DX2                !
 ! A45   A(7,13,15)            113.3991         estimate D2E/DX2                !
 ! A46   A(12,13,14)           107.4679         estimate D2E/DX2                !
 ! A47   A(12,13,15)           108.3697         estimate D2E/DX2                !
 ! A48   A(14,13,15)           110.2203         estimate D2E/DX2                !
 ! A49   A(13,15,16)           118.6299         estimate D2E/DX2                !
 ! A50   A(4,16,15)            128.0393         estimate D2E/DX2                !
 ! A51   A(4,16,27)            113.5367         estimate D2E/DX2                !
 ! A52   A(15,16,27)           116.8615         estimate D2E/DX2                !
 ! D1    D(1,2,4,5)           -173.6184         estimate D2E/DX2                !
 ! D2    D(1,2,4,16)             8.2581         Frozen                          !
 ! D3    D(3,2,4,5)              7.1633         estimate D2E/DX2                !
 ! D4    D(3,2,4,16)          -170.9602         estimate D2E/DX2                !
 ! D5    D(2,4,5,6)            176.9698         estimate D2E/DX2                !
 ! D6    D(2,4,5,17)            -0.7158         estimate D2E/DX2                !
 ! D7    D(16,4,5,6)            -5.1013         estimate D2E/DX2                !
 ! D8    D(16,4,5,17)          177.2132         estimate D2E/DX2                !
 ! D9    D(16,4,15,27)          -8.7832         Frozen                          !
 ! D10   D(2,4,16,15)         -147.118          estimate D2E/DX2                !
 ! D11   D(2,4,16,27)           18.0197         estimate D2E/DX2                !
 ! D12   D(5,4,16,15)           34.9583         estimate D2E/DX2                !
 ! D13   D(5,4,16,27)         -159.904          estimate D2E/DX2                !
 ! D14   D(4,5,6,7)            -16.3144         estimate D2E/DX2                !
 ! D15   D(4,5,6,18)           147.6625         estimate D2E/DX2                !
 ! D16   D(17,5,6,7)           161.4228         estimate D2E/DX2                !
 ! D17   D(17,5,6,18)          -34.6003         estimate D2E/DX2                !
 ! D18   D(5,6,7,8)           -134.9802         estimate D2E/DX2                !
 ! D19   D(5,6,7,9)            108.5607         estimate D2E/DX2                !
 ! D20   D(5,6,7,13)           -20.0366         estimate D2E/DX2                !
 ! D21   D(18,6,7,8)            59.3017         estimate D2E/DX2                !
 ! D22   D(18,6,7,9)           -57.1575         estimate D2E/DX2                !
 ! D23   D(18,6,7,13)          174.2453         estimate D2E/DX2                !
 ! D24   D(6,7,9,10)           168.9194         estimate D2E/DX2                !
 ! D25   D(6,7,9,19)           -70.0843         estimate D2E/DX2                !
 ! D26   D(6,7,9,20)            48.9359         estimate D2E/DX2                !
 ! D27   D(8,7,9,10)            52.9337         estimate D2E/DX2                !
 ! D28   D(8,7,9,19)           173.93           estimate D2E/DX2                !
 ! D29   D(8,7,9,20)           -67.0498         estimate D2E/DX2                !
 ! D30   D(13,7,9,10)          -61.8632         estimate D2E/DX2                !
 ! D31   D(13,7,9,19)           59.1332         estimate D2E/DX2                !
 ! D32   D(13,7,9,20)          178.1534         estimate D2E/DX2                !
 ! D33   D(6,7,13,12)         -166.3801         estimate D2E/DX2                !
 ! D34   D(6,7,13,14)          -49.9644         estimate D2E/DX2                !
 ! D35   D(6,7,13,15)           75.0214         Frozen                          !
 ! D36   D(8,7,13,12)          -51.8706         estimate D2E/DX2                !
 ! D37   D(8,7,13,14)           64.545          estimate D2E/DX2                !
 ! D38   D(8,7,13,15)         -170.4691         estimate D2E/DX2                !
 ! D39   D(9,7,13,12)           62.9981         estimate D2E/DX2                !
 ! D40   D(9,7,13,14)          179.4138         estimate D2E/DX2                !
 ! D41   D(9,7,13,15)          -55.6004         estimate D2E/DX2                !
 ! D42   D(7,9,10,11)           54.812          Frozen                          !
 ! D43   D(7,9,10,21)          176.5969         estimate D2E/DX2                !
 ! D44   D(7,9,10,22)          -65.1737         estimate D2E/DX2                !
 ! D45   D(19,9,10,11)         -66.2997         estimate D2E/DX2                !
 ! D46   D(19,9,10,21)          55.4852         estimate D2E/DX2                !
 ! D47   D(19,9,10,22)         173.7146         estimate D2E/DX2                !
 ! D48   D(20,9,10,11)         175.4468         estimate D2E/DX2                !
 ! D49   D(20,9,10,21)         -62.7683         estimate D2E/DX2                !
 ! D50   D(20,9,10,22)          55.461          estimate D2E/DX2                !
 ! D51   D(9,10,11,12)         -52.8226         Frozen                          !
 ! D52   D(9,10,11,23)          67.7616         estimate D2E/DX2                !
 ! D53   D(9,10,11,24)        -174.688          estimate D2E/DX2                !
 ! D54   D(21,10,11,12)       -174.7039         estimate D2E/DX2                !
 ! D55   D(21,10,11,23)        -54.1197         estimate D2E/DX2                !
 ! D56   D(21,10,11,24)         63.4307         estimate D2E/DX2                !
 ! D57   D(22,10,11,12)         67.3836         estimate D2E/DX2                !
 ! D58   D(22,10,11,23)       -172.0322         estimate D2E/DX2                !
 ! D59   D(22,10,11,24)        -54.4818         estimate D2E/DX2                !
 ! D60   D(10,11,12,13)         56.5441         estimate D2E/DX2                !
 ! D61   D(10,11,12,25)        177.45           estimate D2E/DX2                !
 ! D62   D(10,11,12,26)        -64.8614         estimate D2E/DX2                !
 ! D63   D(23,11,12,13)        -63.9117         estimate D2E/DX2                !
 ! D64   D(23,11,12,25)         56.9942         estimate D2E/DX2                !
 ! D65   D(23,11,12,26)        174.6828         estimate D2E/DX2                !
 ! D66   D(24,11,12,13)        178.4811         estimate D2E/DX2                !
 ! D67   D(24,11,12,25)        -60.613          estimate D2E/DX2                !
 ! D68   D(24,11,12,26)         57.0756         estimate D2E/DX2                !
 ! D69   D(11,12,13,7)         -60.0475         estimate D2E/DX2                !
 ! D70   D(11,12,13,14)       -179.0595         estimate D2E/DX2                !
 ! D71   D(11,12,13,15)         61.8435         estimate D2E/DX2                !
 ! D72   D(25,12,13,7)         179.053          estimate D2E/DX2                !
 ! D73   D(25,12,13,14)         60.041          estimate D2E/DX2                !
 ! D74   D(25,12,13,15)        -59.056          estimate D2E/DX2                !
 ! D75   D(26,12,13,7)          61.3349         estimate D2E/DX2                !
 ! D76   D(26,12,13,14)        -57.6771         estimate D2E/DX2                !
 ! D77   D(26,12,13,15)       -176.7742         estimate D2E/DX2                !
 ! D78   D(7,13,15,16)         -67.1593         Frozen                          !
 ! D79   D(12,13,15,16)        175.7732         estimate D2E/DX2                !
 ! D80   D(14,13,15,16)         58.4266         estimate D2E/DX2                !
 ! D81   D(13,15,16,4)           1.7258         estimate D2E/DX2                !
 ! D82   D(13,15,16,27)       -162.9904         estimate D2E/DX2                !
 --------------------------------------------------------------------------------
 Trust Radius=3.00D-01 FncErr=1.00D-07 GrdErr=1.00D-07 EigMax=2.50D+02 EigMin=1.00D-04
 Number of steps in this run=     20 maximum allowed number of steps=    162.
 GradGradGradGradGradGradGradGradGradGradGradGradGradGradGradGradGradGrad

                          Input orientation:                          
 ---------------------------------------------------------------------
 Center     Atomic      Atomic             Coordinates (Angstroms)
 Number     Number       Type             X           Y           Z
 ---------------------------------------------------------------------
      1          8           0       -3.589770   -1.477970   -0.122900
      2          7           0       -3.245940   -0.310880    0.055000
      3          8           0       -4.032470    0.604540    0.299710
      4          6           0       -1.758940    0.014420   -0.053830
      5          6           0       -1.372060    1.316530    0.286540
      6          7           0       -0.082410    1.785650    0.310990
      7          6           0        1.195350    1.006190    0.321270
      8          1           0        1.834090    1.496150    1.101200
      9          6           0        2.007910    1.060420   -0.996020
     10          6           0        3.407040    0.460380   -0.760790
     11          6           0        3.311090   -0.959200   -0.179900
     12          6           0        2.416600   -0.994750    1.078250
     13          6           0        0.993340   -0.443200    0.788720
     14          1           0        0.417370   -0.485370    1.743040
     15          7           0        0.363300   -1.298150   -0.221450
     16          6           0       -0.865360   -1.065460   -0.551170
     17          1           0       -2.151340    2.031420    0.598920
     18          1           0        0.141870    2.757780    0.085210
     19          1           0        1.481710    0.493890   -1.793640
     20          1           0        2.115800    2.112090   -1.336620
     21          1           0        3.976200    0.438720   -1.715860
     22          1           0        3.964530    1.103900   -0.044020
     23          1           0        2.884320   -1.638520   -0.952060
     24          1           0        4.327200   -1.334490    0.070790
     25          1           0        2.335810   -2.043370    1.439650
     26          1           0        2.888980   -0.394710    1.884140
     27          1           0       -1.400220   -1.871000   -1.078150
 ---------------------------------------------------------------------
                    Distance matrix (angstroms):
                    1          2          3          4          5
     1  O    0.000000
     2  N    1.229620   0.000000
     3  O    2.170583   1.231465   0.000000
     4  C    2.363036   1.526051   2.375325   0.000000
     5  C    3.590976   2.492689   2.754067   1.400364   0.000000
     6  N    4.810515   3.803800   4.122878   2.465989   1.372541
     7  C    5.409779   4.640111   5.243271   3.138811   2.586332
     8  H    6.305717   5.492413   5.987811   4.054563   3.312904
     9  C    6.208042   5.530646   6.194589   4.021318   3.624190
    10  C    7.288309   6.747036   7.516099   5.233166   4.966859
    11  C    6.920566   6.593189   7.523509   5.164207   5.227658
    12  C    6.144326   5.794746   6.689870   4.442428   4.508078
    13  C    4.786094   4.304341   5.157098   2.914507   2.990644
    14  H    4.530360   4.037297   4.803351   2.866157   2.927507
    15  N    3.958385   3.752031   4.818156   2.500968   3.179006
    16  C    2.788546   2.569824   3.680147   1.487270   2.575341
    17  H    3.860819   2.642038   2.379950   2.156003   1.102690
    18  H    5.648896   4.571088   4.701868   3.340424   2.099933
    19  H    5.692057   5.139630   5.899198   3.709264   3.626002
    20  H    6.849465   6.046127   6.538464   4.589050   3.928452
    21  H    7.965872   7.473764   8.260073   5.986168   5.777892
    22  H    7.983716   7.348625   8.019945   5.826249   5.351044
    23  H    6.528945   6.352707   7.378362   5.009879   5.327591
    24  H    7.920639   7.642020   8.584656   6.235077   6.289358
    25  H    6.154164   6.006223   6.990413   4.819954   5.134870
    26  H    6.868469   6.402345   7.170453   5.052353   4.861803
    27  H    2.420972   2.669211   3.867239   2.175482   3.467495
                    6          7          8          9         10
     6  N    0.000000
     7  C    1.496775   0.000000
     8  H    2.093135   1.120866   0.000000
     9  C    2.569761   1.548692   2.149048   0.000000
    10  C    3.883467   2.521970   2.648395   1.540437   0.000000
    11  C    4.392154   2.930919   3.138708   2.538345   1.536830
    12  C    3.816328   2.463378   2.558208   2.948448   2.545671
    13  C    2.520563   1.536245   2.136722   2.544705   3.007222
    14  H    2.730948   2.202597   2.519023   3.524448   4.012697
    15  N    3.161008   2.509350   3.423556   2.977844   3.556356
    16  C    3.079798   3.049494   4.071757   3.601796   4.541534
    17  H    2.103278   3.511199   4.052462   4.559170   5.934018
    18  H    1.022895   2.057574   2.342553   2.744484   4.081066
    19  H    2.923112   2.194834   3.083633   1.110874   2.185131
    20  H    2.766461   2.195186   2.530160   1.110702   2.174173
    21  H    4.732299   3.493572   3.693592   2.186057   1.112012
    22  H    4.119289   2.794878   2.450339   2.176363   1.112957
    23  H    4.703374   3.386514   3.891660   2.838011   2.171452
    24  H    5.407183   3.917909   3.910226   3.500398   2.181692
    25  H    4.667232   3.442563   3.590888   3.958980   3.501176
    26  H    4.007235   2.696936   2.302420   3.344998   2.827582
    27  H    4.127641   4.119901   5.152478   4.496145   5.352177
                   11         12         13         14         15
    11  C    0.000000
    12  C    1.544124   0.000000
    13  C    2.564458   1.553610   0.000000
    14  H    3.506541   2.167564   1.115458   0.000000
    15  N    2.967504   2.448941   1.465719   2.126677   0.000000
    16  C    4.194266   3.664870   2.374295   2.691710   1.293238
    17  H    6.276027   5.500322   4.006093   3.773793   4.252347
    18  H    4.891848   4.499112   3.386178   3.652714   4.073529
    19  H    2.839412   3.367168   2.790202   3.820978   2.633255
    20  H    3.492784   3.946458   3.508061   4.372158   3.993069
    21  H    2.180762   3.506314   3.993514   5.048089   4.278203
    22  H    2.168370   2.838998   3.451803   4.278049   4.332457
    23  H    1.113481   2.180679   2.834592   3.831339   2.646731
    24  H    1.111831   2.186502   3.524832   4.336380   3.974824
    25  H    2.179343   1.112089   2.187802   2.489944   2.684288
    26  H    2.181075   1.110248   2.189919   2.477294   3.410099
    27  H    4.882077   4.470569   3.354541   3.630801   2.042571
                   16         17         18         19         20
    16  C    0.000000
    17  H    3.545013   0.000000
    18  H    4.004579   2.459738   0.000000
    19  H    3.079617   4.613826   3.232715   0.000000
    20  H    4.427310   4.686289   2.516926   1.797083   0.000000
    21  H    5.201900   6.741042   4.829491   2.496312   2.530826
    22  H    5.318944   6.219126   4.167103   3.098012   2.470843
    23  H    3.814343   6.421205   5.284356   2.687516   3.847803
    24  H    5.236592   7.319819   5.853535   3.862109   4.330128
    25  H    3.894504   6.119253   5.449672   4.197778   5.002392
    26  H    4.525009   5.739575   4.552028   4.036841   4.153932
    27  H    1.101217   4.313424   5.015681   3.796070   5.319230
                   21         22         23         24         25
    21  H    0.000000
    22  H    1.799347   0.000000
    23  H    2.467898   3.084195   0.000000
    24  H    2.541573   2.467885   1.794592   0.000000
    25  H    4.336922   3.841785   2.486975   2.518317   0.000000
    26  H    3.851838   2.668415   3.096953   2.497979   1.794895
    27  H    5.886202   6.220932   4.292695   5.866110   4.508542
                   26         27
    26  H    0.000000
    27  H    5.417733   0.000000
 Symmetry turned off by external request.
 Stoichiometry    C9H13N3O2
 Framework group  C1[X(C9H13N3O2)]
 Deg. of freedom    75
 Full point group                 C1      NOp   1
 Rotational constants (GHZ):           1.6836072           0.4012134           0.3557706
 Standard basis: 6-31G(d) (6D, 7F)
   236 basis functions,   444 primitive gaussians,   236 cartesian basis functions
    52 alpha electrons       52 beta electrons
       nuclear repulsion energy       918.0867020339 Hartrees.
 NAtoms=   27 NActive=   27 NUniq=   27 SFac= 1.00D+00 NAtFMM=   60 NAOKFM=F Big=F
 Integral buffers will be    131072 words long.
 Raffenetti 1 integral format.
 Two-electron integral symmetry is turned off.
 One-electron integrals computed using PRISM.
 NBasis=   236 RedAO= T EigKep=  1.29D-03  NBF=   236
 NBsUse=   236 1.00D-06 EigRej= -1.00D+00 NBFU=   236
 ExpMin= 1.61D-01 ExpMax= 5.48D+03 ExpMxC= 8.25D+02 IAcc=3 IRadAn=         5 AccDes= 0.00D+00
 Harris functional with IExCor=  205 and IRadAn=       5 diagonalized for initial guess.
 HarFok:  IExCor=  205 AccDes= 0.00D+00 IRadAn=         5 IDoV= 1 UseB2=F ITyADJ=14
 ICtDFT=  3500011 ScaDFX=  1.000000  1.000000  1.000000  1.000000
 FoFCou: FMM=F IPFlag=           0 FMFlag=      100000 FMFlg1=           0
         NFxFlg=           0 DoJE=T BraDBF=F KetDBF=T FulRan=T
         wScrn=  0.000000 ICntrl=       500 IOpCl=  0 I1Cent=   200000004 NGrid=           0
         NMat0=    1 NMatS0=      1 NMatT0=    0 NMatD0=    1 NMtDS0=    0 NMtDT0=    0
 Symmetry not used in FoFCou.
 Keep R1 ints in memory in canonical form, NReq=397720213.
 Requested convergence on RMS density matrix=1.00D-08 within 128 cycles.
 Requested convergence on MAX density matrix=1.00D-06.
 Requested convergence on             energy=1.00D-06.
 No special actions if energy rises.
 SCF Done:  E(RHF) =  -661.275102577     A.U. after   16 cycles
            NFock= 16  Conv=0.81D-08     -V/T= 2.0037
 ExpMin= 1.61D-01 ExpMax= 5.48D+03 ExpMxC= 8.25D+02 IAcc=3 IRadAn=         5 AccDes= 0.00D+00
 HarFok:  IExCor=  205 AccDes= 0.00D+00 IRadAn=         5 IDoV=-2 UseB2=F ITyADJ=14
 ICtDFT= 12500011 ScaDFX=  1.000000  1.000000  1.000000  1.000000
 Range of M.O.s used for correlation:    15   236
 NBasis=   236 NAE=    52 NBE=    52 NFC=    14 NFV=     0
 NROrb=    222 NOA=    38 NOB=    38 NVA=   184 NVB=   184
 Fully direct method using O(ONN) memory.
 JobTyp=1 Pass  1:  I=  15 to  52 NPSUse=  4 ParTrn=T ParDer=T DoDerP=T.
 Spin components of T(2) and E(2):
     alpha-alpha T2 =       0.9204181364D-01 E2=     -0.2718700943D+00
     alpha-beta  T2 =       0.5004937577D+00 E2=     -0.1494555043D+01
     beta-beta   T2 =       0.9204181364D-01 E2=     -0.2718700943D+00
 ANorm=    0.1297912703D+01
 E2 =    -0.2038295231D+01 EUMP2 =    -0.66331339780853D+03
          IDoAtm=111111111111111111111111111
          Differentiating once with respect to electric field.
                with respect to dipole field.
          Differentiating once with respect to nuclear coordinates.
 Keep R1 ints in memory in canonical form, NReq=397723379.
          There are     1 degrees of freedom in the 1st order CPHF.  IDoFFX=0 NUNeed=     1.
 LinEq1:  Iter=  0 NonCon=     1 RMS=4.60D-03 Max=1.10D-01 NDo=     1
 AX will form     1 AO Fock derivatives at one time.
 LinEq1:  Iter=  1 NonCon=     1 RMS=1.56D-03 Max=3.37D-02 NDo=     1
 LinEq1:  Iter=  2 NonCon=     1 RMS=6.40D-04 Max=1.76D-02 NDo=     1
 LinEq1:  Iter=  3 NonCon=     1 RMS=2.95D-04 Max=9.00D-03 NDo=     1
 LinEq1:  Iter=  4 NonCon=     1 RMS=9.07D-05 Max=2.10D-03 NDo=     1
 LinEq1:  Iter=  5 NonCon=     1 RMS=3.76D-05 Max=1.90D-03 NDo=     1
 LinEq1:  Iter=  6 NonCon=     1 RMS=1.54D-05 Max=5.94D-04 NDo=     1
 LinEq1:  Iter=  7 NonCon=     1 RMS=5.98D-06 Max=1.02D-04 NDo=     1
 LinEq1:  Iter=  8 NonCon=     1 RMS=2.39D-06 Max=5.75D-05 NDo=     1
 LinEq1:  Iter=  9 NonCon=     1 RMS=8.80D-07 Max=2.50D-05 NDo=     1
 LinEq1:  Iter= 10 NonCon=     1 RMS=4.35D-07 Max=1.51D-05 NDo=     1
 LinEq1:  Iter= 11 NonCon=     1 RMS=1.57D-07 Max=5.82D-06 NDo=     1
 LinEq1:  Iter= 12 NonCon=     1 RMS=5.57D-08 Max=8.53D-07 NDo=     1
 LinEq1:  Iter= 13 NonCon=     1 RMS=1.77D-08 Max=3.64D-07 NDo=     1
 LinEq1:  Iter= 14 NonCon=     1 RMS=5.76D-09 Max=1.54D-07 NDo=     1
 LinEq1:  Iter= 15 NonCon=     1 RMS=2.20D-09 Max=5.05D-08 NDo=     1
 LinEq1:  Iter= 16 NonCon=     1 RMS=8.54D-10 Max=1.36D-08 NDo=     1
 LinEq1:  Iter= 17 NonCon=     1 RMS=2.78D-10 Max=4.15D-09 NDo=     1
 LinEq1:  Iter= 18 NonCon=     1 RMS=9.35D-11 Max=1.16D-09 NDo=     1
 LinEq1:  Iter= 19 NonCon=     0 RMS=3.01D-11 Max=3.56D-10 NDo=     1
 Linear equations converged to 1.000D-10 1.000D-09 after    19 iterations.
 End of Minotr F.D. properties file   721 does not exist.
 End of Minotr F.D. properties file   722 does not exist.
 End of Minotr F.D. properties file   788 does not exist.

 **********************************************************************

            Population analysis using the SCF Density.

 **********************************************************************

 Alpha  occ. eigenvalues --  -20.59958 -20.59510 -15.85402 -15.62931 -15.57063
 Alpha  occ. eigenvalues --  -11.35757 -11.30411 -11.30148 -11.30006 -11.27707
 Alpha  occ. eigenvalues --  -11.24590 -11.23850 -11.23399 -11.22847  -1.58612
 Alpha  occ. eigenvalues --   -1.38121  -1.28362  -1.22762  -1.13233  -1.08338
 Alpha  occ. eigenvalues --   -1.01790  -1.00608  -0.93509  -0.88944  -0.84899
 Alpha  occ. eigenvalues --   -0.81519  -0.78083  -0.76884  -0.74228  -0.71002
 Alpha  occ. eigenvalues --   -0.70413  -0.69896  -0.67453  -0.64238  -0.63341
 Alpha  occ. eigenvalues --   -0.61520  -0.60490  -0.57451  -0.56298  -0.54934
 Alpha  occ. eigenvalues --   -0.53307  -0.50684  -0.49238  -0.48557  -0.47797
 Alpha  occ. eigenvalues --   -0.47533  -0.46227  -0.45563  -0.44101  -0.42178
 Alpha  occ. eigenvalues --   -0.40074  -0.33743
 Alpha virt. eigenvalues --    0.07077   0.11539   0.18570   0.21407   0.23383
 Alpha virt. eigenvalues --    0.24184   0.25985   0.27494   0.28581   0.28911
 Alpha virt. eigenvalues --    0.30062   0.31167   0.31879   0.32248   0.33355
 Alpha virt. eigenvalues --    0.33712   0.34558   0.35526   0.37536   0.38554
 Alpha virt. eigenvalues --    0.40680   0.42112   0.44675   0.45358   0.45696
 Alpha virt. eigenvalues --    0.45855   0.49520   0.53069   0.57653   0.58941
 Alpha virt. eigenvalues --    0.63189   0.69136   0.69458   0.72182   0.73895
 Alpha virt. eigenvalues --    0.75148   0.75756   0.75889   0.77554   0.79449
 Alpha virt. eigenvalues --    0.80523   0.83498   0.85086   0.85273   0.88030
 Alpha virt. eigenvalues --    0.88711   0.90147   0.90479   0.91452   0.93905
 Alpha virt. eigenvalues --    0.95662   0.97371   0.98811   1.00293   1.01935
 Alpha virt. eigenvalues --    1.02645   1.05162   1.06247   1.07104   1.08937
 Alpha virt. eigenvalues --    1.09153   1.10448   1.11708   1.12554   1.13273
 Alpha virt. eigenvalues --    1.13770   1.14182   1.15034   1.16345   1.17413
 Alpha virt. eigenvalues --    1.17964   1.19500   1.20999   1.22151   1.23032
 Alpha virt. eigenvalues --    1.24107   1.24383   1.25699   1.27367   1.27469
 Alpha virt. eigenvalues --    1.29537   1.31443   1.32761   1.35601   1.39975
 Alpha virt. eigenvalues --    1.42584   1.45893   1.47144   1.48515   1.52296
 Alpha virt. eigenvalues --    1.53161   1.55438   1.60698   1.61481   1.66089
 Alpha virt. eigenvalues --    1.68815   1.70107   1.72581   1.73074   1.76848
 Alpha virt. eigenvalues --    1.78563   1.79907   1.83757   1.89733   1.93127
 Alpha virt. eigenvalues --    1.93472   1.96555   1.97279   1.98562   2.00582
 Alpha virt. eigenvalues --    2.03202   2.03923   2.06133   2.09548   2.11762
 Alpha virt. eigenvalues --    2.12479   2.14745   2.17758   2.18725   2.18966
 Alpha virt. eigenvalues --    2.21245   2.21705   2.23952   2.24913   2.26812
 Alpha virt. eigenvalues --    2.28979   2.32138   2.34179   2.35878   2.36520
 Alpha virt. eigenvalues --    2.38408   2.39948   2.41210   2.43110   2.46202
 Alpha virt. eigenvalues --    2.48688   2.50258   2.51667   2.56150   2.57293
 Alpha virt. eigenvalues --    2.60788   2.62640   2.66602   2.68749   2.68980
 Alpha virt. eigenvalues --    2.70135   2.71092   2.75295   2.77344   2.80820
 Alpha virt. eigenvalues --    2.84012   2.86388   2.90215   2.91387   2.95621
 Alpha virt. eigenvalues --    2.97482   2.98573   3.02050   3.02890   3.05338
 Alpha virt. eigenvalues --    3.06930   3.12100   3.19642   3.22719   3.27141
 Alpha virt. eigenvalues --    3.29599   3.33349   3.36533   3.43329   3.58733
 Alpha virt. eigenvalues --    4.09931   4.22942   4.32063   4.36016   4.42297
 Alpha virt. eigenvalues --    4.52787   4.59749   4.60006   4.70736   4.77329
 Alpha virt. eigenvalues --    4.95347   4.99253   5.02382   5.10447
          Condensed to atoms (all electrons):
               1          2          3          4          5          6
     1  O    8.300768   0.310921  -0.089208  -0.077282   0.003461  -0.000015
     2  N    0.310921   5.689359   0.308749   0.262139  -0.044612   0.000951
     3  O   -0.089208   0.308749   8.328000  -0.085873   0.007802   0.000447
     4  C   -0.077282   0.262139  -0.085873   5.239953   0.563755  -0.048352
     5  C    0.003461  -0.044612   0.007802   0.563755   4.672518   0.305489
     6  N   -0.000015   0.000951   0.000447  -0.048352   0.305489   7.203228
     7  C    0.000003  -0.000089   0.000002   0.003112  -0.029830   0.197369
     8  H   -0.000000   0.000002  -0.000000  -0.000152   0.001949  -0.051744
     9  C   -0.000000  -0.000002   0.000000   0.000463   0.001918  -0.054269
    10  C   -0.000000   0.000000  -0.000000  -0.000016  -0.000068   0.003279
    11  C   -0.000000  -0.000000  -0.000000  -0.000019   0.000015  -0.000156
    12  C   -0.000000   0.000002  -0.000000   0.000002  -0.000107   0.003623
    13  C   -0.000022  -0.000029  -0.000003  -0.012237   0.000479  -0.043801
    14  H   -0.000005  -0.000053  -0.000001   0.003317   0.005869  -0.005881
    15  N    0.000078   0.001685  -0.000014  -0.062964  -0.003573   0.001761
    16  C    0.001057  -0.026375   0.001840   0.318428  -0.040281  -0.001356
    17  H    0.000107  -0.003765   0.011081  -0.029694   0.379786  -0.035071
    18  H    0.000000  -0.000036   0.000008   0.000780  -0.023298   0.327088
    19  H    0.000000   0.000000   0.000000  -0.000662   0.000467   0.000906
    20  H    0.000000  -0.000000   0.000000  -0.000023   0.000038  -0.002082
    21  H   -0.000000  -0.000000   0.000000   0.000000   0.000001  -0.000056
    22  H   -0.000000   0.000000  -0.000000   0.000000  -0.000002  -0.000098
    23  H    0.000000  -0.000000   0.000000   0.000024  -0.000000  -0.000024
    24  H   -0.000000   0.000000   0.000000   0.000000  -0.000000   0.000004
    25  H    0.000000  -0.000000   0.000000   0.000018  -0.000001  -0.000071
    26  H    0.000000  -0.000000   0.000000   0.000007  -0.000001  -0.000068
    27  H    0.006921  -0.000587   0.000034  -0.064224   0.002363   0.000037
               7          8          9         10         11         12
     1  O    0.000003  -0.000000  -0.000000  -0.000000  -0.000000  -0.000000
     2  N   -0.000089   0.000002  -0.000002   0.000000  -0.000000   0.000002
     3  O    0.000002  -0.000000   0.000000  -0.000000  -0.000000  -0.000000
     4  C    0.003112  -0.000152   0.000463  -0.000016  -0.000019   0.000002
     5  C   -0.029830   0.001949   0.001918  -0.000068   0.000015  -0.000107
     6  N    0.197369  -0.051744  -0.054269   0.003279  -0.000156   0.003623
     7  C    4.992132   0.416885   0.340608  -0.049329  -0.007609  -0.063367
     8  H    0.416885   0.551449  -0.061316   0.001644  -0.000337  -0.002880
     9  C    0.340608  -0.061316   5.182116   0.317527  -0.053071  -0.006401
    10  C   -0.049329   0.001644   0.317527   5.126830   0.332736  -0.059965
    11  C   -0.007609  -0.000337  -0.053071   0.332736   5.123257   0.330999
    12  C   -0.063367  -0.002880  -0.006401  -0.059965   0.330999   5.136834
    13  C    0.336206  -0.041562  -0.048719  -0.001984  -0.047890   0.367010
    14  H   -0.039761  -0.000764   0.003810  -0.000384   0.003924  -0.041044
    15  N   -0.058328   0.004136  -0.012999   0.001514  -0.007662  -0.073974
    16  C   -0.002636   0.000036  -0.001186   0.000001  -0.000018   0.002839
    17  H    0.001457  -0.000007  -0.000065   0.000001   0.000000   0.000001
    18  H   -0.027755  -0.002140   0.000777  -0.000122   0.000012  -0.000130
    19  H   -0.035187   0.004184   0.385092  -0.032442  -0.002315   0.000631
    20  H   -0.041410  -0.001890   0.397293  -0.037412   0.004148  -0.000354
    21  H    0.004032  -0.000082  -0.035856   0.400222  -0.035881   0.004202
    22  H   -0.004146   0.003503  -0.045613   0.395973  -0.045563  -0.001269
    23  H    0.000417   0.000033  -0.002000  -0.040163   0.396742  -0.036787
    24  H   -0.000135  -0.000095   0.004388  -0.038478   0.400305  -0.037788
    25  H    0.004976  -0.000010  -0.000364   0.004096  -0.034006   0.395560
    26  H   -0.004630   0.001714   0.001034  -0.002399  -0.042203   0.394571
    27  H   -0.000339   0.000010  -0.000069   0.000005   0.000003  -0.000025
              13         14         15         16         17         18
     1  O   -0.000022  -0.000005   0.000078   0.001057   0.000107   0.000000
     2  N   -0.000029  -0.000053   0.001685  -0.026375  -0.003765  -0.000036
     3  O   -0.000003  -0.000001  -0.000014   0.001840   0.011081   0.000008
     4  C   -0.012237   0.003317  -0.062964   0.318428  -0.029694   0.000780
     5  C    0.000479   0.005869  -0.003573  -0.040281   0.379786  -0.023298
     6  N   -0.043801  -0.005881   0.001761  -0.001356  -0.035071   0.327088
     7  C    0.336206  -0.039761  -0.058328  -0.002636   0.001457  -0.027755
     8  H   -0.041562  -0.000764   0.004136   0.000036  -0.000007  -0.002140
     9  C   -0.048719   0.003810  -0.012999  -0.001186  -0.000065   0.000777
    10  C   -0.001984  -0.000384   0.001514   0.000001   0.000001  -0.000122
    11  C   -0.047890   0.003924  -0.007662  -0.000018   0.000000   0.000012
    12  C    0.367010  -0.041044  -0.073974   0.002839   0.000001  -0.000130
    13  C    5.027080   0.401255   0.241632  -0.069377  -0.000039   0.003593
    14  H    0.401255   0.519199  -0.035411  -0.005843   0.000087   0.000019
    15  N    0.241632  -0.035411   6.927630   0.581572  -0.000079  -0.000121
    16  C   -0.069377  -0.005843   0.581572   4.728086   0.001685  -0.000214
    17  H   -0.000039   0.000087  -0.000079   0.001685   0.390346  -0.001571
    18  H    0.003593   0.000019  -0.000121  -0.000214  -0.001571   0.323159
    19  H   -0.006269   0.000072   0.007164   0.002748   0.000010  -0.000116
    20  H    0.003840  -0.000048   0.000074  -0.000025  -0.000000   0.003071
    21  H   -0.000363   0.000009  -0.000026   0.000001  -0.000000  -0.000000
    22  H    0.000330  -0.000044   0.000003  -0.000001   0.000000   0.000002
    23  H   -0.005783   0.000006   0.006671   0.000037   0.000000   0.000000
    24  H    0.004115  -0.000058   0.000043   0.000005   0.000000  -0.000000
    25  H   -0.034664  -0.002658   0.000673  -0.000048  -0.000000   0.000002
    26  H   -0.044533  -0.000840   0.004167  -0.000067   0.000000  -0.000001
    27  H    0.004781  -0.000173  -0.041241   0.400470  -0.000049   0.000002
              19         20         21         22         23         24
     1  O    0.000000   0.000000  -0.000000  -0.000000   0.000000  -0.000000
     2  N    0.000000  -0.000000  -0.000000   0.000000  -0.000000   0.000000
     3  O    0.000000   0.000000   0.000000  -0.000000   0.000000   0.000000
     4  C   -0.000662  -0.000023   0.000000   0.000000   0.000024   0.000000
     5  C    0.000467   0.000038   0.000001  -0.000002  -0.000000  -0.000000
     6  N    0.000906  -0.002082  -0.000056  -0.000098  -0.000024   0.000004
     7  C   -0.035187  -0.041410   0.004032  -0.004146   0.000417  -0.000135
     8  H    0.004184  -0.001890  -0.000082   0.003503   0.000033  -0.000095
     9  C    0.385092   0.397293  -0.035856  -0.045613  -0.002000   0.004388
    10  C   -0.032442  -0.037412   0.400222   0.395973  -0.040163  -0.038478
    11  C   -0.002315   0.004148  -0.035881  -0.045563   0.396742   0.400305
    12  C    0.000631  -0.000354   0.004202  -0.001269  -0.036787  -0.037788
    13  C   -0.006269   0.003840  -0.000363   0.000330  -0.005783   0.004115
    14  H    0.000072  -0.000048   0.000009  -0.000044   0.000006  -0.000058
    15  N    0.007164   0.000074  -0.000026   0.000003   0.006671   0.000043
    16  C    0.002748  -0.000025   0.000001  -0.000001   0.000037   0.000005
    17  H    0.000010  -0.000000  -0.000000   0.000000   0.000000   0.000000
    18  H   -0.000116   0.003071  -0.000000   0.000002   0.000000  -0.000000
    19  H    0.507522  -0.024088  -0.002599   0.003759   0.001645  -0.000068
    20  H   -0.024088   0.550434  -0.002589  -0.002978  -0.000050  -0.000090
    21  H   -0.002599  -0.002589   0.526237  -0.024693  -0.002819  -0.002053
    22  H    0.003759  -0.002978  -0.024693   0.568312   0.004064  -0.003587
    23  H    0.001645  -0.000050  -0.002819   0.004064   0.510419  -0.024989
    24  H   -0.000068  -0.000090  -0.002053  -0.003587  -0.024989   0.540886
    25  H   -0.000028   0.000011  -0.000086  -0.000082  -0.002106  -0.002373
    26  H    0.000025  -0.000035  -0.000074   0.002463   0.003827  -0.002766
    27  H    0.000092   0.000000  -0.000000   0.000000  -0.000020  -0.000000
              25         26         27
     1  O    0.000000   0.000000   0.006921
     2  N   -0.000000  -0.000000  -0.000587
     3  O    0.000000   0.000000   0.000034
     4  C    0.000018   0.000007  -0.064224
     5  C   -0.000001  -0.000001   0.002363
     6  N   -0.000071  -0.000068   0.000037
     7  C    0.004976  -0.004630  -0.000339
     8  H   -0.000010   0.001714   0.000010
     9  C   -0.000364   0.001034  -0.000069
    10  C    0.004096  -0.002399   0.000005
    11  C   -0.034006  -0.042203   0.000003
    12  C    0.395560   0.394571  -0.000025
    13  C   -0.034664  -0.044533   0.004781
    14  H   -0.002658  -0.000840  -0.000173
    15  N    0.000673   0.004167  -0.041241
    16  C   -0.000048  -0.000067   0.400470
    17  H   -0.000000   0.000000  -0.000049
    18  H    0.000002  -0.000001   0.000002
    19  H   -0.000028   0.000025   0.000092
    20  H    0.000011  -0.000035   0.000000
    21  H   -0.000086  -0.000074  -0.000000
    22  H   -0.000082   0.002463   0.000000
    23  H   -0.002106   0.003827  -0.000020
    24  H   -0.002373  -0.002766  -0.000000
    25  H    0.511111  -0.023173  -0.000010
    26  H   -0.023173   0.560369   0.000001
    27  H   -0.000010   0.000001   0.447914
 Mulliken charges:
               1
     1  O   -0.456784
     2  N    0.501740
     3  O   -0.482864
     4  C   -0.010501
     5  C    0.195864
     6  N   -0.801138
     7  C    0.067352
     8  H    0.177437
     9  C   -0.313094
    10  C   -0.321065
    11  C   -0.315411
    12  C   -0.312183
    13  C   -0.033043
    14  H    0.195403
    15  N   -0.482411
    16  C    0.108620
    17  H    0.285779
    18  H    0.396992
    19  H    0.189459
    20  H    0.154166
    21  H    0.172473
    22  H    0.149670
    23  H    0.190856
    24  H    0.162735
    25  H    0.183231
    26  H    0.152612
    27  H    0.244105
 Sum of Mulliken charges =  -0.00000
 Mulliken charges with hydrogens summed into heavy atoms:
               1
     1  O   -0.456784
     2  N    0.501740
     3  O   -0.482864
     4  C   -0.010501
     5  C    0.481644
     6  N   -0.404146
     7  C    0.244790
     9  C    0.030531
    10  C    0.001078
    11  C    0.038180
    12  C    0.023659
    13  C    0.162359
    15  N   -0.482411
    16  C    0.352725
 Electronic spatial extent (au):  <R**2>=           3119.3534
 Charge=             -0.0000 electrons
 Dipole moment (field-independent basis, Debye):
    X=              5.2381    Y=              4.4299    Z=              0.3504  Tot=              6.8691
 Quadrupole moment (field-independent basis, Debye-Ang):
   XX=           -105.0176   YY=            -80.3372   ZZ=            -82.3481
   XY=             -2.1145   XZ=              1.7200   YZ=             -0.3646
 Traceless Quadrupole moment (field-independent basis, Debye-Ang):
   XX=            -15.7833   YY=              8.8971   ZZ=              6.8862
   XY=             -2.1145   XZ=              1.7200   YZ=             -0.3646
 Octapole moment (field-independent basis, Debye-Ang**2):
  XXX=             98.3859  YYY=             35.6123  ZZZ=             -4.5004  XYY=             -1.7510
  XXY=             12.5772  XXZ=             -5.0483  XZZ=             -8.4213  YZZ=             -2.5985
  YYZ=             -0.0845  XYZ=             -1.7845
 Hexadecapole moment (field-independent basis, Debye-Ang**3):
 XXXX=          -3542.9181 YYYY=           -620.1021 ZZZZ=           -297.9520 XXXY=            -54.0610
 XXXZ=             65.4051 YYYX=            -29.7233 YYYZ=              7.4493 ZZZX=             39.9481
 ZZZY=              8.9500 XXYY=           -655.2815 XXZZ=           -543.4794 YYZZ=           -164.3954
 XXYZ=              1.5978 YYXZ=             16.5203 ZZXY=             -0.3173
 N-N= 9.180867020339D+02 E-N=-3.382191256496D+03  KE= 6.588578388172D+02
 Calling FoFJK, ICntrl=  10002127 FMM=F ISym2X=0 I1Cent= 0 IOpClX= 0 NMat=1 NMatS=1 NMatT=0.
 -------------------------------------------------------------------
 Center     Atomic                   Forces (Hartrees/Bohr)
 Number     Number              X              Y              Z
 -------------------------------------------------------------------
      1        8           0.002047030   -0.019458896   -0.004262487
      2        7           0.038680069    0.014771839   -0.003326680
      3        8          -0.005279419    0.015178706    0.004497597
      4        6          -0.000435004    0.012388428    0.007318331
      5        6           0.001655087   -0.016922860   -0.007854612
      6        7           0.015433880   -0.012319606   -0.005124143
      7        6          -0.005326290    0.005955380    0.003664144
      8        1          -0.009071558   -0.001623902   -0.007817610
      9        6          -0.004277513   -0.000182953   -0.002040788
     10        6           0.002901872   -0.000752825    0.001142750
     11        6          -0.001271483   -0.004578627   -0.002495112
     12        6           0.001092672   -0.008681460   -0.002849291
     13        6           0.012685671   -0.000341296    0.001931609
     14        1           0.000041167    0.004424699   -0.010533783
     15        7           0.002104821    0.003329704    0.000162143
     16        6          -0.027630663   -0.004825247    0.021938190
     17        1           0.006428155   -0.004917787   -0.008363714
     18        1          -0.017035818   -0.001334522    0.008213992
     19        1           0.002939379    0.005899974    0.007831550
     20        1          -0.003388126   -0.007243131    0.002442868
     21        1          -0.004667931    0.002370752    0.009488218
     22        1          -0.003752208   -0.003943030   -0.007588359
     23        1           0.003769445    0.006026357    0.009428358
     24        1          -0.009290765    0.002702565   -0.002411824
     25        1          -0.000585056    0.010555288   -0.002342795
     26        1          -0.004746749   -0.004786765   -0.004533318
     27        1           0.006979337    0.008309215   -0.006515236
 -------------------------------------------------------------------
 Cartesian Forces:  Max     0.038680069 RMS     0.009151822

 GradGradGradGradGradGradGradGradGradGradGradGradGradGradGradGradGradGrad
 Berny optimization.
 FormGI is forming the generalized inverse of G from B-inverse, IUseBI=4.
 Internal  Forces:  Max     0.036997500 RMS     0.006868783
 Search for a local minimum.
 Step number   1 out of a maximum of   20
 All quantities printed in internal units (Hartrees-Bohrs-Radians)
 Mixed Optimization -- RFO/linear search
 Second derivative matrix not updated -- first step.
 ITU=  0
     Eigenvalues ---    0.00231   0.00767   0.01036   0.01141   0.01187
     Eigenvalues ---    0.01528   0.01543   0.01754   0.02006   0.02072
     Eigenvalues ---    0.02685   0.03641   0.04500   0.04685   0.04840
     Eigenvalues ---    0.05088   0.05136   0.05305   0.05899   0.06260
     Eigenvalues ---    0.07210   0.07702   0.07726   0.07883   0.07989
     Eigenvalues ---    0.08052   0.08080   0.10457   0.11729   0.12248
     Eigenvalues ---    0.13549   0.15061   0.15695   0.15823   0.15994
     Eigenvalues ---    0.20044   0.21773   0.22418   0.24986   0.25000
     Eigenvalues ---    0.25000   0.25371   0.26165   0.26650   0.27985
     Eigenvalues ---    0.28091   0.28468   0.29791   0.31074   0.31476
     Eigenvalues ---    0.32029   0.32234   0.32289   0.32380   0.32388
     Eigenvalues ---    0.32407   0.32508   0.32526   0.32574   0.33140
     Eigenvalues ---    0.33386   0.33455   0.35207   0.43879   0.44046
     Eigenvalues ---    0.48490   0.66216   0.90479   0.912451000.00000
     Eigenvalues --- 1000.000001000.000001000.000001000.000001000.00000
     Eigenvalues --- 1000.000001000.000001000.000001000.000001000.00000
     Eigenvalues --- 1000.000001000.000001000.000001000.000001000.00000
     Eigenvalues --- 1000.000001000.000001000.000001000.000001000.00000
     Eigenvalues --- 1000.000001000.000001000.000001000.000001000.00000
     Eigenvalues --- 1000.000001000.000001000.000001000.000001000.00000
     Eigenvalues --- 1000.000001000.000001000.000001000.000001000.00000
     Eigenvalues --- 1000.000001000.000001000.000001000.000001000.00000
     Eigenvalues --- 1000.000001000.000001000.000001000.000001000.00000
     Eigenvalues --- 1000.000001000.000001000.000001000.000001000.00000
     Eigenvalues --- 1000.000001000.000001000.000001000.000001000.00000
     Eigenvalues --- 1000.000001000.000001000.000001000.000001000.00000
     Eigenvalues --- 1000.000001000.000001000.000001000.000001000.00000
     Eigenvalues --- 1000.000001000.000001000.000001000.000001000.00000
     Eigenvalues --- 1000.000001000.000001000.000001000.000001000.00000
     Eigenvalues --- 1000.000001000.000001000.000001000.000001000.00000
     Eigenvalues --- 1000.000001000.000001000.000001000.000001000.00000
     Eigenvalues --- 1000.000001000.000001000.000001000.000001000.00000
     Eigenvalues --- 1000.000001000.00000
 RFO step:  Lambda=-2.36713676D-02 EMin= 2.30672514D-03
 Linear search not attempted -- first point.
 Iteration  1 RMS(Cart)=  0.05286364 RMS(Int)=  0.00113221
 Iteration  2 RMS(Cart)=  0.00118319 RMS(Int)=  0.00031177
 Iteration  3 RMS(Cart)=  0.00000124 RMS(Int)=  0.00031177
 Iteration  4 RMS(Cart)=  0.00000000 RMS(Int)=  0.00031177
 Iteration  1 RMS(Cart)=  0.00002808 RMS(Int)=  0.00002060
 Iteration  2 RMS(Cart)=  0.00001486 RMS(Int)=  0.00002275
 Iteration  3 RMS(Cart)=  0.00000878 RMS(Int)=  0.00002525
 Iteration  4 RMS(Cart)=  0.00000579 RMS(Int)=  0.00002700
 Iteration  5 RMS(Cart)=  0.00000416 RMS(Int)=  0.00002825
 Iteration  6 RMS(Cart)=  0.00000319 RMS(Int)=  0.00002922
 Iteration  7 RMS(Cart)=  0.00000255 RMS(Int)=  0.00003001
 Iteration  8 RMS(Cart)=  0.00000211 RMS(Int)=  0.00003069
 Iteration  9 RMS(Cart)=  0.00000178 RMS(Int)=  0.00003128
 Iteration 10 RMS(Cart)=  0.00000153 RMS(Int)=  0.00003180
 Iteration 11 RMS(Cart)=  0.00000132 RMS(Int)=  0.00003225
 Iteration 12 RMS(Cart)=  0.00000116 RMS(Int)=  0.00003265
 Iteration 13 RMS(Cart)=  0.00000101 RMS(Int)=  0.00003300
 Iteration 14 RMS(Cart)=  0.00000089 RMS(Int)=  0.00003332
 Variable       Old X    -DE/DX   Delta X   Delta X   Delta X     New X
                                 (Linear)    (Quad)   (Total)
    R1        2.32365   0.01851   0.00000   0.01978   0.01978   2.34342
    R2        2.32713   0.01555   0.00000   0.01675   0.01675   2.34388
    R3        2.88382  -0.03700   0.00000  -0.11505  -0.11505   2.76877
    R4        2.64630  -0.03512   0.00000  -0.07570  -0.07550   2.57081
    R5        2.81053  -0.02143   0.00000  -0.06456  -0.06440   2.74613
    R6        2.59373  -0.02305   0.00000  -0.04307  -0.04294   2.55078
    R7        2.08378  -0.01010   0.00000  -0.02825  -0.02825   2.05553
    R8        2.82849  -0.01964   0.00000  -0.05206  -0.05201   2.77649
    R9        1.93299  -0.00682   0.00000  -0.01474  -0.01474   1.91825
   R10        2.11813  -0.01132   0.00000  -0.03345  -0.03345   2.08468
   R11        2.92660  -0.01331   0.00000  -0.04582  -0.04586   2.88075
   R12        2.90308  -0.00549   0.00000  -0.01314  -0.01303   2.89006
   R13        2.91100  -0.00472   0.00000  -0.01413  -0.01416   2.89684
   R14        2.09925  -0.01002   0.00000  -0.02874  -0.02874   2.07050
   R15        2.09892  -0.00794   0.00000  -0.02274  -0.02274   2.07618
   R16        2.90419  -0.00182   0.00000  -0.00676  -0.00679   2.89740
   R17        2.10140  -0.01058   0.00000  -0.03045  -0.03045   2.07094
   R18        2.10318  -0.00905   0.00000  -0.02610  -0.02610   2.07708
   R19        2.91797  -0.00920   0.00000  -0.02870  -0.02866   2.88931
   R20        2.10417  -0.01166   0.00000  -0.03370  -0.03370   2.07048
   R21        2.10106  -0.00995   0.00000  -0.02860  -0.02860   2.07245
   R22        2.93590  -0.01040   0.00000  -0.03640  -0.03636   2.89953
   R23        2.10154  -0.01067   0.00000  -0.03071  -0.03071   2.07083
   R24        2.09806  -0.00790   0.00000  -0.02260  -0.02260   2.07546
   R25        2.10791  -0.00920   0.00000  -0.02675  -0.02675   2.08116
   R26        2.76981  -0.00559   0.00000  -0.01232  -0.01274   2.75707
   R27        2.44387  -0.00339   0.00000  -0.00642  -0.00664   2.43723
   R28        2.08100  -0.00619   0.00000  -0.01517  -0.01515   2.06584
    A1        2.16002   0.01050   0.00000   0.03847   0.03837   2.19839
    A2        2.05384  -0.00721   0.00000  -0.02624  -0.02634   2.02749
    A3        2.06925  -0.00329   0.00000  -0.01191  -0.01201   2.05723
    A4        2.03765  -0.00673   0.00000  -0.01883  -0.01920   2.01845
    A5        2.04263  -0.00360   0.00000  -0.00757  -0.00802   2.03461
    A6        2.20238   0.01028   0.00000   0.02494   0.02473   2.22711
    A7        2.19164   0.00566   0.00000   0.01780   0.01800   2.20964
    A8        2.06740  -0.00299   0.00000  -0.00949  -0.00964   2.05776
    A9        2.02350  -0.00262   0.00000  -0.00771  -0.00790   2.01560
   A10        2.24497  -0.00415   0.00000  -0.01199  -0.01212   2.23285
   A11        2.12576  -0.01290   0.00000  -0.07215  -0.07274   2.05302
   A12        1.88520   0.01717   0.00000   0.09296   0.09304   1.97824
   A13        1.83757  -0.00099   0.00000  -0.01444  -0.01423   1.82334
   A14        2.00846  -0.00184   0.00000  -0.00899  -0.00909   1.99937
   A15        1.96184   0.00124   0.00000  -0.00515  -0.00561   1.95623
   A16        1.85205   0.00271   0.00000   0.02336   0.02324   1.87529
   A17        1.85003   0.00048   0.00000   0.01829   0.01800   1.86803
   A18        1.93997  -0.00124   0.00000  -0.00861  -0.00826   1.93171
   A19        1.91030   0.00016   0.00000  -0.00608  -0.00625   1.90405
   A20        1.92233  -0.00077   0.00000  -0.01222  -0.01218   1.91016
   A21        1.92299  -0.00161   0.00000  -0.00703  -0.00699   1.91600
   A22        1.91901  -0.00037   0.00000   0.00619   0.00615   1.92516
   A23        1.90437   0.00301   0.00000   0.02461   0.02463   1.92900
   A24        1.88464  -0.00039   0.00000  -0.00502  -0.00528   1.87935
   A25        1.93994  -0.00084   0.00000   0.00519   0.00509   1.94503
   A26        1.91911  -0.00070   0.00000  -0.00661  -0.00663   1.91248
   A27        1.90506   0.00032   0.00000  -0.00270  -0.00276   1.90231
   A28        1.91622   0.00085   0.00000   0.00721   0.00725   1.92347
   A29        1.89857   0.00161   0.00000   0.01102   0.01104   1.90962
   A30        1.88390  -0.00122   0.00000  -0.01457  -0.01465   1.86925
   A31        1.94487   0.00027   0.00000   0.00514   0.00525   1.95012
   A32        1.90218   0.00086   0.00000   0.00580   0.00577   1.90795
   A33        1.91767   0.00037   0.00000   0.00536   0.00532   1.92298
   A34        1.90600  -0.00099   0.00000  -0.01376  -0.01381   1.89219
   A35        1.91551  -0.00038   0.00000  -0.00013  -0.00021   1.91530
   A36        1.87623  -0.00014   0.00000  -0.00278  -0.00281   1.87342
   A37        1.95052  -0.00288   0.00000  -0.01917  -0.01917   1.93135
   A38        1.90560   0.00267   0.00000   0.01728   0.01714   1.92274
   A39        1.90977   0.00124   0.00000   0.01372   0.01366   1.92343
   A40        1.90579   0.00003   0.00000  -0.00244  -0.00230   1.90349
   A41        1.91047  -0.00012   0.00000  -0.00486  -0.00478   1.90569
   A42        1.88035  -0.00087   0.00000  -0.00401  -0.00420   1.87615
   A43        1.84542   0.00435   0.00000   0.02311   0.02310   1.86852
   A44        1.94324  -0.00469   0.00000  -0.03293  -0.03346   1.90978
   A45        1.97919   0.00186   0.00000   0.01637   0.01673   1.99592
   A46        1.87567   0.00279   0.00000   0.03546   0.03581   1.91147
   A47        1.89141  -0.00349   0.00000  -0.02813  -0.02827   1.86313
   A48        1.92371  -0.00053   0.00000  -0.01096  -0.01085   1.91286
   A49        2.07048  -0.00630   0.00000  -0.01896  -0.01941   2.05107
   A50        2.23471  -0.00390   0.00000  -0.01848  -0.01815   2.21656
   A51        1.98159   0.00525   0.00000   0.02027   0.02009   2.00168
   A52        2.03962   0.00056   0.00000  -0.00268  -0.00281   2.03681
    D1       -3.03021  -0.00115   0.00000  -0.04482  -0.04426  -3.07447
    D2        0.14413   0.00019   0.00000   0.00000   0.00000   0.14413
    D3        0.12502  -0.00191   0.00000  -0.06995  -0.06967   0.05535
    D4       -2.98382  -0.00056   0.00000  -0.02513  -0.02541  -3.00923
    D5        3.08870   0.00102   0.00000   0.00105   0.00082   3.08952
    D6       -0.01249  -0.00047   0.00000  -0.01738  -0.01772  -0.03021
    D7       -0.08903  -0.00081   0.00000  -0.04921  -0.05000  -0.13903
    D8        3.09295  -0.00230   0.00000  -0.06765  -0.06853   3.02442
    D9       -0.15330   0.00593   0.00000   0.00000   0.00001  -0.15328
   D10       -2.56769  -0.00474   0.00000  -0.02348  -0.02413  -2.59182
   D11        0.31450   0.00446   0.00000  -0.02714  -0.02777   0.28673
   D12        0.61014  -0.00285   0.00000   0.02712   0.02729   0.63742
   D13       -2.79085   0.00635   0.00000   0.02346   0.02365  -2.76721
   D14       -0.28474   0.00108   0.00000   0.03262   0.03273  -0.25201
   D15        2.57720   0.00412   0.00000   0.09010   0.08849   2.66569
   D16        2.81736   0.00253   0.00000   0.05059   0.05082   2.86818
   D17       -0.60389   0.00556   0.00000   0.10807   0.10659  -0.49730
   D18       -2.35585  -0.00137   0.00000  -0.01424  -0.01371  -2.36956
   D19        1.89474  -0.00304   0.00000  -0.02859  -0.02802   1.86672
   D20       -0.34970  -0.00077   0.00000  -0.00344  -0.00333  -0.35303
   D21        1.03501  -0.00060   0.00000  -0.04611  -0.04706   0.98795
   D22       -0.99759  -0.00227   0.00000  -0.06045  -0.06137  -1.05896
   D23        3.04115   0.00000   0.00000  -0.03530  -0.03668   3.00448
   D24        2.94820   0.00246   0.00000   0.02899   0.02891   2.97710
   D25       -1.22320   0.00162   0.00000   0.02503   0.02496  -1.19824
   D26        0.85409  -0.00035   0.00000   0.00683   0.00683   0.86093
   D27        0.92387   0.00291   0.00000   0.03628   0.03623   0.96010
   D28        3.03565   0.00207   0.00000   0.03233   0.03229   3.06794
   D29       -1.17024   0.00009   0.00000   0.01412   0.01416  -1.15608
   D30       -1.07972   0.00145   0.00000   0.00587   0.00588  -1.07384
   D31        1.03207   0.00060   0.00000   0.00191   0.00194   1.03401
   D32        3.10936  -0.00137   0.00000  -0.01629  -0.01619   3.09317
   D33       -2.90388  -0.00158   0.00000  -0.01037  -0.01003  -2.91391
   D34       -0.87204   0.00186   0.00000   0.02832   0.02819  -0.84385
   D35        1.30937  -0.00116   0.00000   0.00000   0.00001   1.30938
   D36       -0.90531  -0.00187   0.00000  -0.01951  -0.01941  -0.92472
   D37        1.12652   0.00158   0.00000   0.01918   0.01882   1.14534
   D38       -2.97525  -0.00145   0.00000  -0.00914  -0.00937  -2.98462
   D39        1.09952   0.00098   0.00000   0.01406   0.01417   1.11370
   D40        3.13136   0.00442   0.00000   0.05275   0.05240  -3.09942
   D41       -0.97041   0.00140   0.00000   0.02442   0.02421  -0.94620
   D42        0.95665   0.00051   0.00000   0.00000   0.00000   0.95665
   D43        3.08220   0.00054   0.00000   0.00807   0.00803   3.09023
   D44       -1.13750  -0.00117   0.00000  -0.01516  -0.01513  -1.15263
   D45       -1.15715   0.00160   0.00000   0.01509   0.01516  -1.14199
   D46        0.96840   0.00163   0.00000   0.02316   0.02319   0.99159
   D47        3.03189  -0.00008   0.00000  -0.00008   0.00003   3.03192
   D48        3.06212   0.00049   0.00000   0.00282   0.00277   3.06489
   D49       -1.09551   0.00053   0.00000   0.01089   0.01080  -1.08472
   D50        0.96798  -0.00118   0.00000  -0.01234  -0.01237   0.95561
   D51       -0.92193  -0.00084   0.00000   0.00000   0.00000  -0.92192
   D52        1.18266  -0.00134   0.00000  -0.01009  -0.01009   1.17257
   D53       -3.04888  -0.00079   0.00000  -0.00695  -0.00698  -3.05586
   D54       -3.04916   0.00003   0.00000  -0.00001   0.00001  -3.04915
   D55       -0.94457  -0.00048   0.00000  -0.01009  -0.01009  -0.95465
   D56        1.10707   0.00007   0.00000  -0.00696  -0.00698   1.10010
   D57        1.17607   0.00007   0.00000   0.00698   0.00701   1.18308
   D58       -3.00253  -0.00043   0.00000  -0.00310  -0.00308  -3.00561
   D59       -0.95089   0.00012   0.00000   0.00003   0.00002  -0.95086
   D60        0.98688  -0.00056   0.00000  -0.01203  -0.01204   0.97484
   D61        3.09709  -0.00057   0.00000  -0.01581  -0.01594   3.08115
   D62       -1.13204   0.00064   0.00000  -0.00268  -0.00263  -1.13467
   D63       -1.11547  -0.00114   0.00000  -0.01344  -0.01341  -1.12888
   D64        0.99474  -0.00116   0.00000  -0.01722  -0.01731   0.97742
   D65        3.04879   0.00006   0.00000  -0.00409  -0.00400   3.04479
   D66        3.11508  -0.00017   0.00000  -0.00191  -0.00190   3.11318
   D67       -1.05790  -0.00019   0.00000  -0.00569  -0.00580  -1.06370
   D68        0.99616   0.00103   0.00000   0.00744   0.00751   1.00367
   D69       -1.04803  -0.00027   0.00000  -0.00097  -0.00089  -1.04892
   D70       -3.12518   0.00153   0.00000   0.00770   0.00729  -3.11788
   D71        1.07937   0.00251   0.00000   0.01635   0.01637   1.09574
   D72        3.12506  -0.00179   0.00000  -0.00865  -0.00852   3.11655
   D73        1.04791   0.00001   0.00000   0.00001  -0.00033   1.04758
   D74       -1.03072   0.00100   0.00000   0.00866   0.00874  -1.02198
   D75        1.07050  -0.00068   0.00000   0.00042   0.00060   1.07110
   D76       -1.00666   0.00112   0.00000   0.00909   0.00879  -0.99787
   D77       -3.08529   0.00210   0.00000   0.01774   0.01786  -3.06743
   D78       -1.17215   0.00401   0.00000   0.00000   0.00001  -1.17214
   D79        3.06782  -0.00021   0.00000  -0.01996  -0.01974   3.04808
   D80        1.01974  -0.00123   0.00000  -0.04004  -0.04031   0.97943
   D81        0.03012   0.00444   0.00000  -0.00037  -0.00031   0.02981
   D82       -2.84472  -0.00558   0.00000   0.00062   0.00057  -2.84415
         Item               Value     Threshold  Converged?
 Maximum Force            0.036997     0.000450     NO 
 RMS     Force            0.006848     0.000300     NO 
 Maximum Displacement     0.279479     0.001800     NO 
 RMS     Displacement     0.053174     0.001200     NO 
 Predicted change in Energy=-1.340527D-02
 GradGradGradGradGradGradGradGradGradGradGradGradGradGradGradGradGradGrad

                          Input orientation:                          
 ---------------------------------------------------------------------
 Center     Atomic      Atomic             Coordinates (Angstroms)
 Number     Number       Type             X           Y           Z
 ---------------------------------------------------------------------
      1          8           0       -3.454319   -1.465525   -0.152856
      2          7           0       -3.120670   -0.288894    0.052157
      3          8           0       -3.884576    0.645487    0.338149
      4          6           0       -1.687732    0.002052   -0.041455
      5          6           0       -1.324444    1.276772    0.264870
      6          7           0       -0.067711    1.767585    0.306421
      7          6           0        1.195057    1.016715    0.324176
      8          1           0        1.803704    1.519161    1.094938
      9          6           0        1.979826    1.065993   -0.981803
     10          6           0        3.366267    0.451795   -0.757184
     11          6           0        3.264844   -0.964392   -0.178445
     12          6           0        2.390467   -1.002400    1.075242
     13          6           0        0.997804   -0.429274    0.781477
     14          1           0        0.392637   -0.443086    1.701505
     15          7           0        0.387702   -1.298779   -0.218696
     16          6           0       -0.838885   -1.065890   -0.542179
     17          1           0       -2.111124    1.981999    0.523656
     18          1           0        0.056458    2.759302    0.128941
     19          1           0        1.437885    0.509064   -1.754207
     20          1           0        2.070115    2.106675   -1.322235
     21          1           0        3.918307    0.435263   -1.703739
     22          1           0        3.932254    1.090034   -0.064057
     23          1           0        2.824579   -1.631506   -0.927827
     24          1           0        4.264526   -1.350006    0.055381
     25          1           0        2.285355   -2.033406    1.431380
     26          1           0        2.857551   -0.420661    1.881249
     27          1           0       -1.371877   -1.869067   -1.057840
 ---------------------------------------------------------------------
                    Distance matrix (angstroms):
                    1          2          3          4          5
     1  O    0.000000
     2  N    1.240086   0.000000
     3  O    2.209656   1.240327   0.000000
     4  C    2.299353   1.465171   2.320395   0.000000
     5  C    3.497292   2.392275   2.637833   1.360413   0.000000
     6  N    4.704578   3.689758   3.978513   2.421279   1.349815
     7  C    5.292048   4.517091   5.093199   3.077938   2.533581
     8  H    6.173504   5.348450   5.804530   3.972800   3.245471
     9  C    6.051914   5.377718   6.025803   3.932836   3.537912
    10  C    7.110677   6.579058   7.335666   5.124202   4.871135
    11  C    6.737874   6.425283   7.346617   5.047850   5.126491
    12  C    5.990346   5.650525   6.529549   4.345992   4.433046
    13  C    4.665640   4.184907   5.018893   2.841718   2.927509
    14  H    4.391254   3.884257   4.619338   2.750271   2.823154
    15  N    3.846201   3.660861   4.726797   2.455810   3.130294
    16  C    2.674280   2.482640   3.602780   1.453192   2.524908
    17  H    3.761284   2.529515   2.228409   2.102094   1.087741
    18  H    5.500376   4.403582   4.477023   3.267057   2.030582
    19  H    5.513347   4.967908   5.720591   3.600009   3.506638
    20  H    6.681874   5.879792   6.352188   4.493467   3.838056
    21  H    7.770062   7.290732   8.068364   5.863321   5.663038
    22  H    7.816664   7.187398   7.839785   5.724374   5.270289
    23  H    6.328720   6.173246   7.197232   4.880073   5.205286
    24  H    7.722518   7.461038   8.394630   6.104655   6.179032
    25  H    5.981317   5.845569   6.814666   4.700824   5.034746
    26  H    6.713347   6.253165   6.998150   4.953289   4.794063
    27  H    2.306167   2.605248   3.819087   2.152647   3.412933
                    6          7          8          9         10
     6  N    0.000000
     7  C    1.469254   0.000000
     8  H    2.045891   1.103167   0.000000
     9  C    2.518762   1.524425   2.132893   0.000000
    10  C    3.828154   2.490507   2.647872   1.532942   0.000000
    11  C    4.336441   2.908853   3.150313   2.533598   1.533236
    12  C    3.782400   2.463722   2.589005   2.945897   2.534690
    13  C    2.487407   1.529351   2.131697   2.511841   2.958611
    14  H    2.654288   2.161465   2.491876   3.463614   3.960863
    15  N    3.144160   2.511582   3.416356   2.951159   3.496617
    16  C    3.056700   3.037225   4.043009   3.561366   4.475813
    17  H    2.066083   3.449986   3.983273   4.454362   5.829570
    18  H    1.015095   2.090726   2.350312   2.792918   4.130937
    19  H    2.845503   2.153219   3.044955   1.095663   2.171634
    20  H    2.708838   2.159724   2.501774   1.098666   2.176676
    21  H    4.658773   3.444796   3.671372   2.162573   1.095896
    22  H    4.073826   2.765565   2.461330   2.157502   1.099143
    23  H    4.630608   3.352003   3.880782   2.827193   2.159326
    24  H    5.343283   3.885261   3.920260   3.483196   2.171087
    25  H    4.609771   3.423139   3.600821   3.939933   3.483448
    26  H    3.978148   2.693401   2.343456   3.343293   2.825119
    27  H    4.097230   4.102055   5.118483   4.455813   5.284582
                   11         12         13         14         15
    11  C    0.000000
    12  C    1.528957   0.000000
    13  C    2.519379   1.534367   0.000000
    14  H    3.472109   2.167109   1.101303   0.000000
    15  N    2.896788   2.402746   1.458976   2.102238   0.000000
    16  C    4.121067   3.612312   2.351760   2.634131   1.289726
    17  H    6.170510   5.429108   3.942860   3.679291   4.190313
    18  H    4.924847   4.526973   3.388060   3.583470   4.086392
    19  H    2.826991   3.346299   2.739315   3.733775   2.594027
    20  H    3.488135   3.939146   3.465039   4.296302   3.955431
    21  H    2.170846   3.481940   3.931039   4.979712   4.204454
    22  H    2.163144   2.837849   3.410898   4.242235   4.277172
    23  H    1.095649   2.143948   2.775642   3.773602   2.559677
    24  H    1.096694   2.161722   3.470798   4.303923   3.886838
    25  H    2.166501   1.095836   2.157174   2.486859   2.619831
    26  H    2.168841   1.098287   2.160609   2.471561   3.358723
    27  H    4.805305   4.410940   3.327384   3.572243   2.031135
                   16         17         18         19         20
    16  C    0.000000
    17  H    3.470479   0.000000
    18  H    3.985491   2.336325   0.000000
    19  H    3.022115   4.466952   3.243171   0.000000
    20  H    4.374465   4.572266   2.566446   1.771631   0.000000
    21  H    5.121872   6.611182   4.865568   2.482033   2.520908
    22  H    5.257412   6.137054   4.224393   3.068552   2.466604
    23  H    3.726877   6.286922   5.297022   2.681019   3.833898
    24  H    5.146126   7.209053   5.882147   3.836750   4.319943
    25  H    3.819934   6.022995   5.443746   4.162970   4.976846
    26  H    4.466874   5.683623   4.585724   4.012030   4.155694
    27  H    1.093197   4.228277   4.987022   3.746358   5.265334
                   21         22         23         24         25
    21  H    0.000000
    22  H    1.765638   0.000000
    23  H    2.463700   3.062650   0.000000
    24  H    2.530130   2.465454   1.766179   0.000000
    25  H    4.311593   3.834643   2.453191   2.505500   0.000000
    26  H    3.835355   2.687266   3.059108   2.485368   1.769390
    27  H    5.806305   6.154486   4.205185   5.768685   4.427027
                   26         27
    26  H    0.000000
    27  H    5.350158   0.000000
 Symmetry turned off by external request.
 Stoichiometry    C9H13N3O2
 Framework group  C1[X(C9H13N3O2)]
 Deg. of freedom    75
 Full point group                 C1      NOp   1
 Rotational constants (GHZ):           1.6982803           0.4219640           0.3721558
 Standard basis: 6-31G(d) (6D, 7F)
   236 basis functions,   444 primitive gaussians,   236 cartesian basis functions
    52 alpha electrons       52 beta electrons
       nuclear repulsion energy       932.5290104306 Hartrees.
 NAtoms=   27 NActive=   27 NUniq=   27 SFac= 1.00D+00 NAtFMM=   60 NAOKFM=F Big=F
 Integral buffers will be    131072 words long.
 Raffenetti 1 integral format.
 Two-electron integral symmetry is turned off.
 One-electron integrals computed using PRISM.
 NBasis=   236 RedAO= T EigKep=  1.03D-03  NBF=   236
 NBsUse=   236 1.00D-06 EigRej= -1.00D+00 NBFU=   236
 Initial guess from the checkpoint file:  "/home/alexey/tmp/Gau-1619073.chk"
 B after Tr=     0.054698    0.003161    0.001615
         Rot=    0.999999   -0.000951   -0.000351    0.000615 Ang=  -0.14 deg.
 ExpMin= 1.61D-01 ExpMax= 5.48D+03 ExpMxC= 8.25D+02 IAcc=3 IRadAn=         5 AccDes= 0.00D+00
 Harris functional with IExCor=  205 and IRadAn=       5 diagonalized for initial guess.
 HarFok:  IExCor=  205 AccDes= 0.00D+00 IRadAn=         5 IDoV= 1 UseB2=F ITyADJ=14
 ICtDFT=  3500011 ScaDFX=  1.000000  1.000000  1.000000  1.000000
 FoFCou: FMM=F IPFlag=           0 FMFlag=      100000 FMFlg1=           0
         NFxFlg=           0 DoJE=T BraDBF=F KetDBF=T FulRan=T
         wScrn=  0.000000 ICntrl=       500 IOpCl=  0 I1Cent=   200000004 NGrid=           0
         NMat0=    1 NMatS0=      1 NMatT0=    0 NMatD0=    1 NMtDS0=    0 NMtDT0=    0
 Symmetry not used in FoFCou.
 Keep R1 ints in memory in canonical form, NReq=397720213.
 Requested convergence on RMS density matrix=1.00D-08 within 128 cycles.
 Requested convergence on MAX density matrix=1.00D-06.
 Requested convergence on             energy=1.00D-06.
 No special actions if energy rises.
 SCF Done:  E(RHF) =  -661.292403139     A.U. after   15 cycles
            NFock= 15  Conv=0.41D-08     -V/T= 2.0024
 ExpMin= 1.61D-01 ExpMax= 5.48D+03 ExpMxC= 8.25D+02 IAcc=3 IRadAn=         5 AccDes= 0.00D+00
 HarFok:  IExCor=  205 AccDes= 0.00D+00 IRadAn=         5 IDoV=-2 UseB2=F ITyADJ=14
 ICtDFT= 12500011 ScaDFX=  1.000000  1.000000  1.000000  1.000000
 Range of M.O.s used for correlation:    15   236
 NBasis=   236 NAE=    52 NBE=    52 NFC=    14 NFV=     0
 NROrb=    222 NOA=    38 NOB=    38 NVA=   184 NVB=   184
 Fully direct method using O(ONN) memory.
 JobTyp=1 Pass  1:  I=  15 to  52 NPSUse=  4 ParTrn=T ParDer=T DoDerP=T.
 Spin components of T(2) and E(2):
     alpha-alpha T2 =       0.9135768084D-01 E2=     -0.2724921417D+00
     alpha-beta  T2 =       0.4922245746D+00 E2=     -0.1489029559D+01
     beta-beta   T2 =       0.9135768084D-01 E2=     -0.2724921417D+00
 ANorm=    0.1294194706D+01
 E2 =    -0.2034013842D+01 EUMP2 =    -0.66332641698135D+03
          IDoAtm=111111111111111111111111111
          Differentiating once with respect to electric field.
                with respect to dipole field.
          Differentiating once with respect to nuclear coordinates.
 Keep R1 ints in memory in canonical form, NReq=397723379.
          There are     1 degrees of freedom in the 1st order CPHF.  IDoFFX=0 NUNeed=     1.
 LinEq1:  Iter=  0 NonCon=     1 RMS=4.57D-03 Max=1.06D-01 NDo=     1
 AX will form     1 AO Fock derivatives at one time.
 LinEq1:  Iter=  1 NonCon=     1 RMS=1.54D-03 Max=2.91D-02 NDo=     1
 LinEq1:  Iter=  2 NonCon=     1 RMS=6.42D-04 Max=1.78D-02 NDo=     1
[...]
                   16         17         18         19         20
    16  C    0.000000
    17  H    3.453397   0.000000
    18  H    4.055656   2.232617   0.000000
    19  H    2.991901   4.386973   3.507110   0.000000
    20  H    4.367454   4.528601   2.881279   1.768815   0.000000
    21  H    5.101039   6.569192   5.085326   2.499510   2.521577
    22  H    5.244263   6.117309   4.314252   3.070545   2.462121
    23  H    3.706188   6.256119   5.416399   2.703154   3.842518
    24  H    5.138628   7.198293   5.934686   3.849239   4.317521
    25  H    3.819459   6.034510   5.366804   4.170421   4.985861
    26  H    4.486157   5.723743   4.486974   4.037874   4.186131
    27  H    1.091452   4.222677   5.083202   3.705163   5.247006
                   21         22         23         24         25
    21  H    0.000000
    22  H    1.758788   0.000000
    23  H    2.468912   3.062210   0.000000
    24  H    2.517113   2.460188   1.764558   0.000000
    25  H    4.312064   3.841309   2.443002   2.520041   0.000000
    26  H    3.848999   2.708058   3.060411   2.491754   1.767788
    27  H    5.762915   6.123789   4.159475   5.737963   4.410121
                   26         27
    26  H    0.000000
    27  H    5.354261   0.000000
 Symmetry turned off by external request.
 Stoichiometry    C9H13N3O2
 Framework group  C1[X(C9H13N3O2)]
 Deg. of freedom    75
 Full point group                 C1      NOp   1
 Rotational constants (GHZ):           1.6958801           0.4182641           0.3713159

 **********************************************************************

            Population analysis using the SCF Density.

 **********************************************************************

 Alpha  occ. eigenvalues --  -20.59287 -20.58946 -15.84802 -15.64144 -15.56196
 Alpha  occ. eigenvalues --  -11.35086 -11.29671 -11.29426 -11.28567 -11.27085
 Alpha  occ. eigenvalues --  -11.23721 -11.23215 -11.22695 -11.22100  -1.57187
 Alpha  occ. eigenvalues --   -1.36772  -1.30923  -1.23094  -1.14707  -1.09809
 Alpha  occ. eigenvalues --   -1.02802  -1.01278  -0.94434  -0.89685  -0.85574
 Alpha  occ. eigenvalues --   -0.82403  -0.78575  -0.77394  -0.75139  -0.72023
 Alpha  occ. eigenvalues --   -0.69717  -0.69586  -0.67857  -0.64742  -0.63792
 Alpha  occ. eigenvalues --   -0.62387  -0.60203  -0.57645  -0.56878  -0.55003
 Alpha  occ. eigenvalues --   -0.54713  -0.50688  -0.50062  -0.48713  -0.48087
 Alpha  occ. eigenvalues --   -0.47402  -0.46257  -0.45918  -0.43733  -0.41829
 Alpha  occ. eigenvalues --   -0.39928  -0.33739
 Alpha virt. eigenvalues --    0.07390   0.11586   0.17348   0.21842   0.24130
 Alpha virt. eigenvalues --    0.25581   0.27021   0.28295   0.29077   0.29513
 Alpha virt. eigenvalues --    0.30767   0.31819   0.32130   0.32758   0.33932
 Alpha virt. eigenvalues --    0.34345   0.35988   0.37282   0.38590   0.40210
 Alpha virt. eigenvalues --    0.41443   0.42726   0.45160   0.46151   0.46652
 Alpha virt. eigenvalues --    0.47034   0.48963   0.53797   0.57526   0.59321
 Alpha virt. eigenvalues --    0.63846   0.69505   0.70069   0.72837   0.74109
 Alpha virt. eigenvalues --    0.75280   0.75760   0.76802   0.78431   0.79596
 Alpha virt. eigenvalues --    0.81239   0.84699   0.85461   0.85917   0.88429
 Alpha virt. eigenvalues --    0.89231   0.90383   0.91482   0.92612   0.94490
 Alpha virt. eigenvalues --    0.96139   0.98319   0.99349   1.01658   1.02507
 Alpha virt. eigenvalues --    1.02967   1.05823   1.06868   1.07998   1.08982
 Alpha virt. eigenvalues --    1.09928   1.11744   1.12145   1.12788   1.13974
 Alpha virt. eigenvalues --    1.14647   1.14884   1.15922   1.16599   1.18654
 Alpha virt. eigenvalues --    1.19450   1.20665   1.22306   1.23636   1.24581
 Alpha virt. eigenvalues --    1.25142   1.26533   1.26901   1.27633   1.29598
 Alpha virt. eigenvalues --    1.29736   1.33001   1.35745   1.37117   1.40788
 Alpha virt. eigenvalues --    1.41018   1.46063   1.47305   1.49784   1.53592
 Alpha virt. eigenvalues --    1.56439   1.58961   1.60156   1.62905   1.66768
 Alpha virt. eigenvalues --    1.68435   1.70180   1.73395   1.74132   1.76685
 Alpha virt. eigenvalues --    1.81614   1.84068   1.86751   1.91495   1.94805
 Alpha virt. eigenvalues --    1.95254   1.96889   1.99407   2.01094   2.03294
 Alpha virt. eigenvalues --    2.04944   2.05677   2.08820   2.10696   2.12329
 Alpha virt. eigenvalues --    2.13806   2.15146   2.17660   2.20052   2.22009
 Alpha virt. eigenvalues --    2.22290   2.24796   2.26246   2.28331   2.29847
 Alpha virt. eigenvalues --    2.31600   2.33801   2.35211   2.36333   2.39535
 Alpha virt. eigenvalues --    2.40105   2.42053   2.43355   2.45139   2.48071
 Alpha virt. eigenvalues --    2.50275   2.51771   2.53172   2.55270   2.62027
 Alpha virt. eigenvalues --    2.62628   2.64792   2.68048   2.70604   2.72038
 Alpha virt. eigenvalues --    2.72314   2.73408   2.77166   2.78691   2.84054
 Alpha virt. eigenvalues --    2.87994   2.88367   2.92495   2.93361   2.96391
 Alpha virt. eigenvalues --    2.99170   3.01513   3.03845   3.04772   3.07775
 Alpha virt. eigenvalues --    3.09139   3.14479   3.21332   3.25388   3.27173
 Alpha virt. eigenvalues --    3.33476   3.37210   3.38861   3.51776   3.64259
 Alpha virt. eigenvalues --    4.13691   4.27972   4.33550   4.37958   4.45448
 Alpha virt. eigenvalues --    4.56740   4.62105   4.62273   4.73440   4.79356
 Alpha virt. eigenvalues --    4.98683   5.00879   5.03967   5.12125
          Condensed to atoms (all electrons):
               1          2          3          4          5          6
     1  O    8.316490   0.304974  -0.081826  -0.082598   0.004621  -0.000016
     2  N    0.304974   5.731558   0.299431   0.260955  -0.050805   0.001086
     3  O   -0.081826   0.299431   8.351720  -0.090988   0.003275   0.000766
     4  C   -0.082598   0.260955  -0.090988   5.224593   0.548306  -0.046596
     5  C    0.004621  -0.050805   0.003275   0.548306   4.715623   0.317641
     6  N   -0.000016   0.001086   0.000766  -0.046596   0.317641   7.195431
     7  C    0.000003  -0.000123   0.000003   0.003767  -0.030012   0.167804
     8  H   -0.000000   0.000002  -0.000000  -0.000290   0.002914  -0.051472
     9  C   -0.000000  -0.000002  -0.000000   0.000997   0.000653  -0.059338
    10  C    0.000000   0.000000   0.000000  -0.000039  -0.000050   0.003689
    11  C   -0.000000  -0.000000  -0.000000  -0.000029   0.000025  -0.000197
    12  C   -0.000000   0.000003  -0.000000  -0.000032  -0.000156   0.003938
    13  C   -0.000025  -0.000063  -0.000005  -0.013463  -0.000393  -0.047899
    14  H   -0.000006  -0.000139  -0.000000   0.003349   0.007189  -0.007828
    15  N    0.000310   0.002350  -0.000016  -0.065641  -0.005413   0.001653
    16  C   -0.002461  -0.027062   0.002535   0.329847  -0.049789  -0.002577
    17  H    0.000204  -0.007417   0.016868  -0.023736   0.375813  -0.035214
    18  H    0.000001  -0.000050   0.000011   0.001619  -0.031634   0.338070
    19  H    0.000000  -0.000003   0.000000  -0.001169   0.001030  -0.000093
    20  H    0.000000  -0.000000   0.000000  -0.000070   0.000156  -0.000686
    21  H   -0.000000   0.000000   0.000000   0.000001   0.000001  -0.000074
    22  H   -0.000000   0.000000  -0.000000   0.000000  -0.000003  -0.000117
    23  H    0.000000  -0.000000   0.000000   0.000038  -0.000001  -0.000030
    24  H    0.000000   0.000000   0.000000   0.000000  -0.000000   0.000006
    25  H    0.000000  -0.000000   0.000000   0.000021   0.000000  -0.000092
    26  H    0.000000  -0.000000   0.000000   0.000008  -0.000002  -0.000057
    27  H    0.008669  -0.001662   0.000068  -0.061705   0.002678  -0.000022
               7          8          9         10         11         12
     1  O    0.000003  -0.000000  -0.000000   0.000000  -0.000000  -0.000000
     2  N   -0.000123   0.000002  -0.000002   0.000000  -0.000000   0.000003
     3  O    0.000003  -0.000000  -0.000000   0.000000  -0.000000  -0.000000
     4  C    0.003767  -0.000290   0.000997  -0.000039  -0.000029  -0.000032
     5  C   -0.030012   0.002914   0.000653  -0.000050   0.000025  -0.000156
     6  N    0.167804  -0.051472  -0.059338   0.003689  -0.000197   0.003938
     7  C    5.015019   0.417805   0.349497  -0.054947  -0.009002  -0.060322
     8  H    0.417805   0.540098  -0.055534   0.000930  -0.000342  -0.002310
     9  C    0.349497  -0.055534   5.158339   0.324106  -0.050273  -0.005417
    10  C   -0.054947   0.000930   0.324106   5.120796   0.336772  -0.060669
    11  C   -0.009002  -0.000342  -0.050273   0.336772   5.119885   0.336310
    12  C   -0.060322  -0.002310  -0.005417  -0.060669   0.336310   5.117331
    13  C    0.341790  -0.038206  -0.059794  -0.000426  -0.051308   0.370467
    14  H   -0.046728  -0.000532   0.004385  -0.000398   0.004149  -0.035730
    15  N   -0.057730   0.003919  -0.014608   0.001602  -0.012779  -0.081868
    16  C   -0.002141   0.000034  -0.001693   0.000005  -0.000004   0.003030
    17  H    0.001636  -0.000038  -0.000076   0.000001   0.000000  -0.000000
    18  H   -0.021178  -0.004264   0.001218  -0.000085   0.000004  -0.000117
    19  H   -0.037243   0.004423   0.389665  -0.031881  -0.002240   0.000669
    20  H   -0.042118  -0.002055   0.399469  -0.035387   0.003925  -0.000406
    21  H    0.004613  -0.000079  -0.036321   0.402481  -0.034854   0.004322
    22  H   -0.004867   0.003558  -0.046794   0.397627  -0.045415  -0.001018
    23  H    0.000562   0.000034  -0.001916  -0.039107   0.399255  -0.037904
    24  H   -0.000125  -0.000101   0.004369  -0.038415   0.402311  -0.038639
    25  H    0.005175  -0.000028  -0.000423   0.004178  -0.033437   0.398459
    26  H   -0.004153   0.001736   0.000988  -0.002217  -0.041323   0.396702
    27  H   -0.000314   0.000010  -0.000078   0.000007   0.000007  -0.000041
              13         14         15         16         17         18
     1  O   -0.000025  -0.000006   0.000310  -0.002461   0.000204   0.000001
     2  N   -0.000063  -0.000139   0.002350  -0.027062  -0.007417  -0.000050
     3  O   -0.000005  -0.000000  -0.000016   0.002535   0.016868   0.000011
     4  C   -0.013463   0.003349  -0.065641   0.329847  -0.023736   0.001619
     5  C   -0.000393   0.007189  -0.005413  -0.049789   0.375813  -0.031634
     6  N   -0.047899  -0.007828   0.001653  -0.002577  -0.035214   0.338070
     7  C    0.341790  -0.046728  -0.057730  -0.002141   0.001636  -0.021178
     8  H   -0.038206  -0.000532   0.003919   0.000034  -0.000038  -0.004264
     9  C   -0.059794   0.004385  -0.014608  -0.001693  -0.000076   0.001218
    10  C   -0.000426  -0.000398   0.001602   0.000005   0.000001  -0.000085
    11  C   -0.051308   0.004149  -0.012779  -0.000004   0.000000   0.000004
    12  C    0.370467  -0.035730  -0.081868   0.003030  -0.000000  -0.000117
    13  C    5.042210   0.402592   0.249762  -0.071437   0.000019   0.003021
    14  H    0.402592   0.527433  -0.038343  -0.005959   0.000133  -0.000115
    15  N    0.249762  -0.038343   6.958049   0.576447  -0.000105  -0.000126
    16  C   -0.071437  -0.005959   0.576447   4.749778   0.002251  -0.000190
    17  H    0.000019   0.000133  -0.000105   0.002251   0.379838  -0.002900
    18  H    0.003021  -0.000115  -0.000126  -0.000190  -0.002900   0.312263
    19  H   -0.007272   0.000128   0.007998   0.003369   0.000016  -0.000147
    20  H    0.004314  -0.000064   0.000122  -0.000028   0.000004   0.000817
    21  H   -0.000420   0.000010  -0.000039   0.000003  -0.000000   0.000001
    22  H    0.000061  -0.000055   0.000017  -0.000002   0.000000   0.000001
    23  H   -0.007462   0.000003   0.008509   0.000057   0.000000   0.000000
    24  H    0.004701  -0.000055   0.000134   0.000007   0.000000  -0.000000
    25  H   -0.035647  -0.002806   0.000302   0.000005  -0.000000   0.000002
    26  H   -0.047134  -0.000978   0.004851  -0.000078   0.000000  -0.000000
    27  H    0.004884  -0.000188  -0.041015   0.401236  -0.000068   0.000001
              19         20         21         22         23         24
     1  O    0.000000   0.000000  -0.000000  -0.000000   0.000000   0.000000
     2  N   -0.000003  -0.000000   0.000000   0.000000  -0.000000   0.000000
     3  O    0.000000   0.000000   0.000000  -0.000000   0.000000   0.000000
     4  C   -0.001169  -0.000070   0.000001   0.000000   0.000038   0.000000
     5  C    0.001030   0.000156   0.000001  -0.000003  -0.000001  -0.000000
     6  N   -0.000093  -0.000686  -0.000074  -0.000117  -0.000030   0.000006
     7  C   -0.037243  -0.042118   0.004613  -0.004867   0.000562  -0.000125
     8  H    0.004423  -0.002055  -0.000079   0.003558   0.000034  -0.000101
     9  C    0.389665   0.399469  -0.036321  -0.046794  -0.001916   0.004369
    10  C   -0.031881  -0.035387   0.402481   0.397627  -0.039107  -0.038415
    11  C   -0.002240   0.003925  -0.034854  -0.045415   0.399255   0.402311
    12  C    0.000669  -0.000406   0.004322  -0.001018  -0.037904  -0.038639
    13  C   -0.007272   0.004314  -0.000420   0.000061  -0.007462   0.004701
    14  H    0.000128  -0.000064   0.000010  -0.000055   0.000003  -0.000055
    15  N    0.007998   0.000122  -0.000039   0.000017   0.008509   0.000134
    16  C    0.003369  -0.000028   0.000003  -0.000002   0.000057   0.000007
    17  H    0.000016   0.000004  -0.000000   0.000000   0.000000   0.000000
    18  H   -0.000147   0.000817   0.000001   0.000001   0.000000  -0.000000
    19  H    0.503850  -0.024550  -0.002790   0.003940   0.001510  -0.000064
    20  H   -0.024550   0.540947  -0.002664  -0.002978  -0.000046  -0.000083
    21  H   -0.002790  -0.002664   0.523641  -0.027369  -0.002899  -0.002238
    22  H    0.003940  -0.002978  -0.027369   0.571182   0.004138  -0.003654
    23  H    0.001510  -0.000046  -0.002899   0.004138   0.499144  -0.025433
    24  H   -0.000064  -0.000083  -0.002238  -0.003654  -0.025433   0.537965
    25  H   -0.000030   0.000012  -0.000086  -0.000080  -0.002344  -0.002281
    26  H    0.000020  -0.000030  -0.000081   0.002364   0.004061  -0.003034
    27  H    0.000110   0.000000  -0.000000   0.000000  -0.000032  -0.000000
              25         26         27
     1  O    0.000000   0.000000   0.008669
     2  N   -0.000000  -0.000000  -0.001662
     3  O    0.000000   0.000000   0.000068
     4  C    0.000021   0.000008  -0.061705
     5  C    0.000000  -0.000002   0.002678
     6  N   -0.000092  -0.000057  -0.000022
     7  C    0.005175  -0.004153  -0.000314
     8  H   -0.000028   0.001736   0.000010
     9  C   -0.000423   0.000988  -0.000078
    10  C    0.004178  -0.002217   0.000007
    11  C   -0.033437  -0.041323   0.000007
    12  C    0.398459   0.396702  -0.000041
    13  C   -0.035647  -0.047134   0.004884
    14  H   -0.002806  -0.000978  -0.000188
    15  N    0.000302   0.004851  -0.041015
    16  C    0.000005  -0.000078   0.401236
    17  H   -0.000000   0.000000  -0.000068
    18  H    0.000002  -0.000000   0.000001
    19  H   -0.000030   0.000020   0.000110
    20  H    0.000012  -0.000030   0.000000
    21  H   -0.000086  -0.000081  -0.000000
    22  H   -0.000080   0.002364   0.000000
    23  H   -0.002344   0.004061  -0.000032
    24  H   -0.002281  -0.003034  -0.000000
    25  H    0.506280  -0.024173  -0.000012
    26  H   -0.024173   0.561998   0.000001
    27  H   -0.000012   0.000001   0.431934
 Mulliken charges:
               1
     1  O   -0.468340
     2  N    0.486968
     3  O   -0.501842
     4  C    0.012855
     5  C    0.188332
     6  N   -0.777776
     7  C    0.063329
     8  H    0.179786
     9  C   -0.301421
    10  C   -0.328572
    11  C   -0.321440
    12  C   -0.306601
    13  C   -0.042868
    14  H    0.190553
    15  N   -0.498342
    16  C    0.094816
    17  H    0.292769
    18  H    0.403776
    19  H    0.190753
    20  H    0.161398
    21  H    0.174843
    22  H    0.149463
    23  H    0.199862
    24  H    0.164629
    25  H    0.187006
    26  H    0.150532
    27  H    0.255531
 Sum of Mulliken charges =  -0.00000
 Mulliken charges with hydrogens summed into heavy atoms:
               1
     1  O   -0.468340
     2  N    0.486968
     3  O   -0.501842
     4  C    0.012855
     5  C    0.481102
     6  N   -0.374001
     7  C    0.243115
     9  C    0.050730
    10  C   -0.004266
    11  C    0.043051
    12  C    0.030937
    13  C    0.147685
    15  N   -0.498342
    16  C    0.350347
 Electronic spatial extent (au):  <R**2>=           3008.8205
 Charge=              0.0000 electrons
 Dipole moment (field-independent basis, Debye):
    X=              5.3752    Y=              4.8309    Z=              1.1449  Tot=              7.3172
 Quadrupole moment (field-independent basis, Debye-Ang):
   XX=           -106.0018   YY=            -78.9572   ZZ=            -81.8797
   XY=             -2.0062   XZ=              0.7745   YZ=              1.3595
 Traceless Quadrupole moment (field-independent basis, Debye-Ang):
   XX=            -17.0555   YY=              9.9890   ZZ=              7.0665
   XY=             -2.0062   XZ=              0.7745   YZ=              1.3595
 Octapole moment (field-independent basis, Debye-Ang**2):
  XXX=             92.0631  YYY=             35.7541  ZZZ=             -0.9093  XYY=             -5.3324
  XXY=             10.7203  XXZ=              0.5156  XZZ=             -9.3810  YZZ=             -0.2281
  YYZ=              8.0836  XYZ=              1.0123
 Hexadecapole moment (field-independent basis, Debye-Ang**3):
 XXXX=          -3393.0676 YYYY=           -596.0360 ZZZZ=           -300.9916 XXXY=            -34.5489
 XXXZ=             21.8655 YYYX=            -17.0368 YYYZ=             21.7551 ZZZX=             18.8951
 ZZZY=              5.3113 XXYY=           -626.8687 XXZZ=           -526.4374 YYZZ=           -157.4632
 XXYZ=             -8.5463 YYXZ=              7.8026 ZZXY=              2.0779
 N-N= 9.314002829977D+02 E-N=-3.409509207057D+03  KE= 6.596289407098D+02
 Unable to Open any file for archive entry.
 1\1\GINC-LOTUS\FOpt\RMP2-FC\6-31G(d)\C9H13N3O2\ALEXEY\03-Jul-2023\0\\#
 MP2/6-31G* SCF=Tight Opt=(ModRedun, MaxCycle=20 ) NoSymm\\MolName:\\0,
 1\O,-3.5087137982,-1.4024453663,-0.359655943\N,-3.1240525562,-0.258749
 5741,-0.0483284296\O,-3.8987762899,0.6736395122,0.2406693021\C,-1.6904
 875237,-0.0313492803,0.0039153465\C,-1.306344542,1.2590147614,0.272306
 1697\N,-0.0599722212,1.7580428715,0.313699133\C,1.2086453604,1.0318615
 713,0.3198305644\H,1.8340761369,1.5574896679,1.0578056431\C,1.95461960
 98,1.0465187262,-1.0115470846\C,3.3431876322,0.4308836729,-0.802146803
 5\C,3.2651780254,-0.967833271,-0.1838961219\C,2.4255036766,-0.98082423
 6,1.0955725889\C,1.0290065435,-0.4151397809,0.8141932717\H,0.417409593
 3,-0.3950838422,1.7305991851\N,0.4065578485,-1.3014306461,-0.164989587
 5\C,-0.8317052343,-1.0909078518,-0.4849598637\H,-2.0972714257,1.980493
 6901,0.4588542629\H,-0.0008996307,2.744210661,0.5397217021\H,1.3817013
 123,0.475366722,-1.7495102899\H,2.0392166955,2.075769765,-1.3819645899
 \H,3.879862288,0.3935855808,-1.7569703104\H,3.9249858532,1.0906369786,
 -0.1428397718\H,2.8073083774,-1.6581293482,-0.8992867782\H,4.275455215
 6,-1.3386010114,0.0259751838\H,2.3200840776,-2.0046060304,1.4694314225
 \H,2.912742593,-0.391758999,1.8848299062\H,-1.3433176172,-1.9156449433
 ,-0.9842881079\\Version=ES64L-G16RevC.02\HF=-661.2960492\MP2=-663.3316
 142\RMSD=6.737e-09\RMSF=3.527e-03\Dipole=1.9568676,1.697709,0.436624\P
 G=C01 [X(C9H13N3O2)]\\@
 The archive entry for this job was punched.


 WE ARE REACHING THE STAGE WHERE THE PROBLEMS WE MUST SOLVE ARE 
 GOING TO BECOME INSOLUBLE WITHOUT COMPUTERS.
 I DO NOT FEAR COMPUTERS.  I FEAR THE LACK OF THEM.

                                   -- ISSAC ASIMOV
 Job cpu time:       0 days  1 hours  5 minutes 25.7 seconds.
 Elapsed time:       0 days  0 hours 19 minutes 36.3 seconds.
 File lengths (MBytes):  RWF=     36 Int=      0 D2E=      0 Chk=      7 Scr=      1
 Normal termination of Gaussian 16 at Mon Jul  3 02:27:33 2023.
