 Entering Gaussian System, Link 0=g16
 Initial command:
 /home/alexey/programs//g16/l1.exe "/home/alexey/tmp/Gau-1616506.inp" -scrdir="/home/alexey/tmp/"
 Entering Link 1 = /home/alexey/programs//g16/l1.exe PID=   1616508.
  
 Copyright (c) 1988-2021, Gaussian, Inc.  All Rights Reserved.
  
 This is part of the Gaussian(R) 16 program.  It is based on
 the Gaussian(R) 09 system (copyright 2009, Gaussian, Inc.),
 the Gaussian(R) 03 system (copyright 2003, Gaussian, Inc.),
 the Gaussian(R) 98 system (copyright 1998, Gaussian, Inc.),
 the Gaussian(R) 94 system (copyright 1995, Gaussian, Inc.),
 the Gaussian 92(TM) system (copyright 1992, Gaussian, Inc.),
 the Gaussian 90(TM) system (copyright 1990, Gaussian, Inc.),
 the Gaussian 88(TM) system (copyright 1988, Gaussian, Inc.),
 the Gaussian 86(TM) system (copyright 1986, Carnegie Mellon
 University), and the Gaussian 82(TM) system (copyright 1983,
 Carnegie Mellon University). Gaussian is a federally registered
 trademark of Gaussian, Inc.
  
 This software contains proprietary and confidential information,
 including trade secrets, belonging to Gaussian, Inc.
  
 This software is provided under written license and may be
 used, copied, transmitted, or stored only in accord with that
 written license.
  
 The following legend is applicable only to US Government
 contracts under FAR:
  
                    RESTRICTED RIGHTS LEGEND
  
 Use, reproduction and disclosure by the US Government is
 subject to restrictions as set forth in subparagraphs (a)
 and (c) of the Commercial Computer Software - Restricted
 Rights clause in FAR 52.227-19.
  
 Gaussian, Inc.
 340 Quinnipiac St., Bldg. 40, Wallingford CT 06492
  
  
 ---------------------------------------------------------------
 Warning -- This program may not be used in any manner that
 competes with the business of Gaussian, Inc. or will provide
 assistance to any competitor of Gaussian, Inc.  The licensee
 of this program is prohibited from giving any competitor of
 Gaussian, Inc. access to this program.  By using this program,
 the user acknowledges that Gaussian, Inc. is engaged in the
 business of creating and licensing software in the field of
 computational chemistry and represents and warrants to the
 licensee that it is not a competitor of Gaussian, Inc. and that
 it will not use this program in any manner prohibited above.
 ---------------------------------------------------------------
  

 Cite this work as:
 Gaussian 16, Revision C.02,
 M. J. Frisch, G. W. Trucks, H. B. Schlegel, G. E. Scuseria, 
 M. A. Robb, J. R. Cheeseman, G. Scalmani, V. Barone, 
 G. A. Petersson, H. Nakatsuji, X. Li, M. Caricato, A. V. Marenich, 
 J. Bloino, B. G. Janesko, R. Gomperts, B. Mennucci, H. P. Hratchian, 
 J. V. Ortiz, A. F. Izmaylov, J. L. Sonnenberg, D. Williams-Young, 
 F. Ding, F. Lipparini, F. Egidi, J. Goings, B. Peng, A. Petrone, 
 T. Henderson, D. Ranasinghe, V. G. Zakrzewski, J. Gao, N. Rega, 
 G. Zheng, W. Liang, M. Hada, M. Ehara, K. Toyota, R. Fukuda, 
 J. Hasegawa, M. Ishida, T. Nakajima, Y. Honda, O. Kitao, H. Nakai, 
 T. Vreven, K. Throssell, J. A. Montgomery, Jr., J. E. Peralta, 
 F. Ogliaro, M. J. Bearpark, J. J. Heyd, E. N. Brothers, K. N. Kudin, 
 V. N. Staroverov, T. A. Keith, R. Kobayashi, J. Normand, 
 K. Raghavachari, A. P. Rendell, J. C. Burant, S. S. Iyengar, 
 J. Tomasi, M. Cossi, J. M. Millam, M. Klene, C. Adamo, R. Cammi, 
 J. W. Ochterski, R. L. Martin, K. Morokuma, O. Farkas, 
 J. B. Foresman, and D. J. Fox, Gaussian, Inc., Wallingford CT, 2019.
 
 ******************************************
 Gaussian 16:  ES64L-G16RevC.02  7-Dec-2021
                 3-Jul-2023 
 ******************************************
 %mem=8GB
 %NPROCS=4
 Will use up to    4 processors via shared memory.
 %NoSave
 ---------------------------------------------------------
 #MP2/6-31G* SCF=Tight Opt=(ModRedun, MaxCycle=20 ) NoSymm
 ---------------------------------------------------------
 1/6=20,18=120,19=15,38=1/1,3;
 2/9=110,12=2,15=1,17=6,18=5,40=1/2;
 3/5=1,6=6,7=1,11=9,25=1,30=1,71=1/1,2,3;
 4//1;
 5/5=2,32=2,38=5/2;
 8/6=4,10=2/1;
 9/15=2,16=-3/6;
 10/5=1,31=1/2;
 6/7=2,8=2,9=2,10=2/1;
 7/12=2,30=1/1,2,3,16;
 1/6=20,18=20,19=15/3(2);
 2/9=110,15=1/2;
 99//99;
 2/9=110,15=1/2;
 3/5=1,6=6,7=1,11=9,25=1,30=1,71=1/1,2,3;
 4/5=5,16=3,69=1/1;
 5/5=2,32=2,38=5/2;
 8/6=4,10=2/1;
 9/15=2,16=-3/6;
 10/5=1,31=1/2;
 7/12=2,30=1/1,2,3,16;
 1/6=20,18=20,19=15/3(-8);
 2/9=110,15=1/2;
 6/7=2,8=2,9=2,10=2/1;
 99/9=10/99;
 --------
 MolName:
 --------
 Symbolic Z-matrix:
 Charge =  0 Multiplicity = 1
 8                    0    -3.60575  -1.46114  -0.15428 
 7                    0    -3.25339  -0.29521   0.0152 
 8                    0    -4.03711   0.63368   0.21427 
 6                    0    -1.75848   0.00972  -0.04572 
 6                    0    -1.37127   1.31488   0.28044 
 7                    0    -0.08175   1.7768    0.35215 
 6                    0     1.19649   1.00037   0.34211 
 1                    0     1.84842   1.49421   1.1087 
 6                    0     1.98437   1.05328  -0.99044 
 6                    0     3.39037   0.46018  -0.77896 
 6                    0     3.31195  -0.95769  -0.19122 
 6                    0     2.44124  -0.99256   1.08341 
 6                    0     1.01079  -0.44906   0.81593 
 1                    0     0.44845  -0.48965   1.7783 
 7                    0     0.36715  -1.3112   -0.17865 
 6                    0    -0.86834  -1.09448  -0.49199 
 1                    0    -2.15593   2.0428    0.54564 
 1                    0     0.14699   2.75441   0.15659 
 1                    0     1.44601   0.48177  -1.77625 
 1                    0     2.08129   2.10417  -1.33668 
 1                    0     3.94179   0.43756  -1.74435 
 1                    0     3.95815   1.10887  -0.07505 
 1                    0     2.8745   -1.64203  -0.95288 
 1                    0     4.33435  -1.32711   0.04206 
 1                    0     2.37188  -2.04009   1.45028 
 1                    0     2.92497  -0.38699   1.87829 
 1                    0    -1.38414  -1.86148  -1.08989 
 
 The following ModRedundant input section has been read:
 D      16       4      15      27 F                                           
 D       1       2       4      16 F                                           
 D       7      13      15      16 F                                           
 D       7       9      10      11 F                                           
 D       9      10      11      12 F                                           
 D       6       7      13      15 F                                           
 

 GradGradGradGradGradGradGradGradGradGradGradGradGradGradGradGradGradGrad
 Berny optimization.
 Initialization pass.
                           ----------------------------
                           !    Initial Parameters    !
                           ! (Angstroms and Degrees)  !
 --------------------------                            --------------------------
 ! Name  Definition              Value          Derivative Info.                !
 --------------------------------------------------------------------------------
 ! R1    R(1,2)                  1.2297         estimate D2E/DX2                !
 ! R2    R(2,3)                  1.2315         estimate D2E/DX2                !
 ! R3    R(2,4)                  1.5269         estimate D2E/DX2                !
 ! R4    R(4,5)                  1.3999         estimate D2E/DX2                !
 ! R5    R(4,16)                 1.4869         estimate D2E/DX2                !
 ! R6    R(5,6)                  1.3716         estimate D2E/DX2                !
 ! R7    R(5,17)                 1.1027         estimate D2E/DX2                !
 ! R8    R(6,7)                  1.4956         estimate D2E/DX2                !
 ! R9    R(6,18)                 1.0229         estimate D2E/DX2                !
 ! R10   R(7,8)                  1.121          estimate D2E/DX2                !
 ! R11   R(7,9)                  1.5489         estimate D2E/DX2                !
 ! R12   R(7,13)                 1.5362         estimate D2E/DX2                !
 ! R13   R(9,10)                 1.5406         estimate D2E/DX2                !
 ! R14   R(9,19)                 1.1108         estimate D2E/DX2                !
 ! R15   R(9,20)                 1.1107         estimate D2E/DX2                !
 ! R16   R(10,11)                1.5369         estimate D2E/DX2                !
 ! R17   R(10,21)                1.112          estimate D2E/DX2                !
 ! R18   R(10,22)                1.113          estimate D2E/DX2                !
 ! R19   R(11,12)                1.544          estimate D2E/DX2                !
 ! R20   R(11,23)                1.1135         estimate D2E/DX2                !
 ! R21   R(11,24)                1.1118         estimate D2E/DX2                !
 ! R22   R(12,13)                1.5534         estimate D2E/DX2                !
 ! R23   R(12,25)                1.1121         estimate D2E/DX2                !
 ! R24   R(12,26)                1.1102         estimate D2E/DX2                !
 ! R25   R(13,14)                1.1154         estimate D2E/DX2                !
 ! R26   R(13,15)                1.4652         estimate D2E/DX2                !
 ! R27   R(15,16)                1.2929         estimate D2E/DX2                !
 ! R28   R(16,27)                1.1008         estimate D2E/DX2                !
 ! A1    A(1,2,3)              123.714          estimate D2E/DX2                !
 ! A2    A(1,2,4)              117.6694         estimate D2E/DX2                !
 ! A3    A(3,2,4)              118.6111         estimate D2E/DX2                !
 ! A4    A(2,4,5)              116.5956         estimate D2E/DX2                !
 ! A5    A(2,4,16)             116.7303         estimate D2E/DX2                !
 ! A6    A(5,4,16)             126.6347         estimate D2E/DX2                !
 ! A7    A(4,5,6)              125.8872         estimate D2E/DX2                !
 ! A8    A(4,5,17)             118.3378         estimate D2E/DX2                !
 ! A9    A(6,5,17)             115.7287         estimate D2E/DX2                !
 ! A10   A(5,6,7)              128.9262         estimate D2E/DX2                !
 ! A11   A(5,6,18)             121.4734         estimate D2E/DX2                !
 ! A12   A(7,6,18)             107.6834         estimate D2E/DX2                !
 ! A13   A(6,7,8)              105.2932         estimate D2E/DX2                !
 ! A14   A(6,7,9)              115.0096         estimate D2E/DX2                !
 ! A15   A(6,7,13)             112.6089         estimate D2E/DX2                !
 ! A16   A(8,7,9)              106.1084         estimate D2E/DX2                !
 ! A17   A(8,7,13)             105.9647         estimate D2E/DX2                !
 ! A18   A(9,7,13)             111.043          estimate D2E/DX2                !
 ! A19   A(7,9,10)             109.4497         estimate D2E/DX2                !
 ! A20   A(7,9,19)             110.1503         estimate D2E/DX2                !
 ! A21   A(7,9,20)             110.1748         estimate D2E/DX2                !
 ! A22   A(10,9,19)            109.9591         estimate D2E/DX2                !
 ! A23   A(10,9,20)            109.1119         estimate D2E/DX2                !
 ! A24   A(19,9,20)            107.9721         estimate D2E/DX2                !
 ! A25   A(9,10,11)            111.1684         estimate D2E/DX2                !
 ! A26   A(9,10,21)            109.9514         estimate D2E/DX2                !
 ! A27   A(9,10,22)            109.149          estimate D2E/DX2                !
 ! A28   A(11,10,21)           109.7881         estimate D2E/DX2                !
 ! A29   A(11,10,22)           108.7769         estimate D2E/DX2                !
 ! A30   A(21,10,22)           107.9364         estimate D2E/DX2                !
 ! A31   A(10,11,12)           111.4268         estimate D2E/DX2                !
 ! A32   A(10,11,23)           108.9938         estimate D2E/DX2                !
 ! A33   A(10,11,24)           109.8679         estimate D2E/DX2                !
 ! A34   A(12,11,23)           109.2241         estimate D2E/DX2                !
 ! A35   A(12,11,24)           109.7457         estimate D2E/DX2                !
 ! A36   A(23,11,24)           107.4925         estimate D2E/DX2                !
 ! A37   A(11,12,13)           111.6683         estimate D2E/DX2                !
 ! A38   A(11,12,25)           109.1947         estimate D2E/DX2                !
 ! A39   A(11,12,26)           109.4527         estimate D2E/DX2                !
 ! A40   A(13,12,25)           109.2042         estimate D2E/DX2                !
 ! A41   A(13,12,26)           109.4913         estimate D2E/DX2                !
 ! A42   A(25,12,26)           107.7447         estimate D2E/DX2                !
 ! A43   A(7,13,12)            105.778          estimate D2E/DX2                !
 ! A44   A(7,13,14)            111.1873         estimate D2E/DX2                !
 ! A45   A(7,13,15)            113.5108         estimate D2E/DX2                !
 ! A46   A(12,13,14)           107.6357         estimate D2E/DX2                !
 ! A47   A(12,13,15)           108.3926         estimate D2E/DX2                !
 ! A48   A(14,13,15)           110.048          estimate D2E/DX2                !
 ! A49   A(13,15,16)           119.0561         estimate D2E/DX2                !
 ! A50   A(4,16,15)            128.5963         estimate D2E/DX2                !
 ! A51   A(4,16,27)            113.5743         estimate D2E/DX2                !
 ! A52   A(15,16,27)           117.5545         estimate D2E/DX2                !
 ! D1    D(1,2,4,5)           -173.8708         estimate D2E/DX2                !
 ! D2    D(1,2,4,16)             8.2581         Frozen                          !
 ! D3    D(3,2,4,5)              6.9536         estimate D2E/DX2                !
 ! D4    D(3,2,4,16)          -170.9176         estimate D2E/DX2                !
 ! D5    D(2,4,5,6)            176.5962         estimate D2E/DX2                !
 ! D6    D(2,4,5,17)            -0.8154         estimate D2E/DX2                !
 ! D7    D(16,4,5,6)            -5.7733         estimate D2E/DX2                !
 ! D8    D(16,4,5,17)          176.8151         estimate D2E/DX2                !
 ! D9    D(16,4,15,27)          -3.7038         Frozen                          !
 ! D10   D(2,4,16,15)         -151.2237         estimate D2E/DX2                !
 ! D11   D(2,4,16,27)           22.5336         estimate D2E/DX2                !
 ! D12   D(5,4,16,15)           31.1486         estimate D2E/DX2                !
 ! D13   D(5,4,16,27)         -155.0941         estimate D2E/DX2                !
 ! D14   D(4,5,6,7)            -11.5639         estimate D2E/DX2                !
 ! D15   D(4,5,6,18)           150.6535         estimate D2E/DX2                !
 ! D16   D(17,5,6,7)           165.9072         estimate D2E/DX2                !
 ! D17   D(17,5,6,18)          -31.8753         estimate D2E/DX2                !
 ! D18   D(5,6,7,8)           -138.8626         estimate D2E/DX2                !
 ! D19   D(5,6,7,9)            104.7163         estimate D2E/DX2                !
 ! D20   D(5,6,7,13)           -23.8542         estimate D2E/DX2                !
 ! D21   D(18,6,7,8)            57.0036         estimate D2E/DX2                !
 ! D22   D(18,6,7,9)           -59.4174         estimate D2E/DX2                !
 ! D23   D(18,6,7,13)          172.012          estimate D2E/DX2                !
 ! D24   D(6,7,9,10)           168.7769         estimate D2E/DX2                !
 ! D25   D(6,7,9,19)           -70.213          estimate D2E/DX2                !
 ! D26   D(6,7,9,20)            48.7983         estimate D2E/DX2                !
 ! D27   D(8,7,9,10)            52.8218         estimate D2E/DX2                !
 ! D28   D(8,7,9,19)           173.8319         estimate D2E/DX2                !
 ! D29   D(8,7,9,20)           -67.1568         estimate D2E/DX2                !
 ! D30   D(13,7,9,10)          -61.8769         estimate D2E/DX2                !
 ! D31   D(13,7,9,19)           59.1332         estimate D2E/DX2                !
 ! D32   D(13,7,9,20)          178.1445         estimate D2E/DX2                !
 ! D33   D(6,7,13,12)         -166.2607         estimate D2E/DX2                !
 ! D34   D(6,7,13,14)          -49.6982         estimate D2E/DX2                !
 ! D35   D(6,7,13,15)           75.0222         Frozen                          !
 ! D36   D(8,7,13,12)          -51.6588         estimate D2E/DX2                !
 ! D37   D(8,7,13,14)           64.9037         estimate D2E/DX2                !
 ! D38   D(8,7,13,15)         -170.3759         estimate D2E/DX2                !
 ! D39   D(9,7,13,12)           63.1296         estimate D2E/DX2                !
 ! D40   D(9,7,13,14)          179.6921         estimate D2E/DX2                !
 ! D41   D(9,7,13,15)          -55.5876         estimate D2E/DX2                !
 ! D42   D(7,9,10,11)           54.812          Frozen                          !
 ! D43   D(7,9,10,21)          176.6009         estimate D2E/DX2                !
 ! D44   D(7,9,10,22)          -65.1786         estimate D2E/DX2                !
 ! D45   D(19,9,10,11)         -66.314          estimate D2E/DX2                !
 ! D46   D(19,9,10,21)          55.4749         estimate D2E/DX2                !
 ! D47   D(19,9,10,22)         173.6954         estimate D2E/DX2                !
 ! D48   D(20,9,10,11)         175.4398         estimate D2E/DX2                !
 ! D49   D(20,9,10,21)         -62.7713         estimate D2E/DX2                !
 ! D50   D(20,9,10,22)          55.4492         estimate D2E/DX2                !
 ! D51   D(9,10,11,12)         -52.8224         Frozen                          !
 ! D52   D(9,10,11,23)          67.7852         estimate D2E/DX2                !
 ! D53   D(9,10,11,24)        -174.6733         estimate D2E/DX2                !
 ! D54   D(21,10,11,12)       -174.7064         estimate D2E/DX2                !
 ! D55   D(21,10,11,23)        -54.0987         estimate D2E/DX2                !
 ! D56   D(21,10,11,24)         63.4428         estimate D2E/DX2                !
 ! D57   D(22,10,11,12)         67.3887         estimate D2E/DX2                !
 ! D58   D(22,10,11,23)       -172.0036         estimate D2E/DX2                !
 ! D59   D(22,10,11,24)        -54.4621         estimate D2E/DX2                !
 ! D60   D(10,11,12,13)         56.5756         estimate D2E/DX2                !
 ! D61   D(10,11,12,25)        177.446          estimate D2E/DX2                !
 ! D62   D(10,11,12,26)        -64.8301         estimate D2E/DX2                !
 ! D63   D(23,11,12,13)        -63.8968         estimate D2E/DX2                !
 ! D64   D(23,11,12,25)         56.9736         estimate D2E/DX2                !
 ! D65   D(23,11,12,26)        174.6975         estimate D2E/DX2                !
 ! D66   D(24,11,12,13)        178.4972         estimate D2E/DX2                !
 ! D67   D(24,11,12,25)        -60.6324         estimate D2E/DX2                !
 ! D68   D(24,11,12,26)         57.0915         estimate D2E/DX2                !
 ! D69   D(11,12,13,7)         -60.1966         estimate D2E/DX2                !
 ! D70   D(11,12,13,14)       -179.1381         estimate D2E/DX2                !
 ! D71   D(11,12,13,15)         61.8636         estimate D2E/DX2                !
 ! D72   D(25,12,13,7)         178.9385         estimate D2E/DX2                !
 ! D73   D(25,12,13,14)         59.9971         estimate D2E/DX2                !
 ! D74   D(25,12,13,15)        -59.0013         estimate D2E/DX2                !
 ! D75   D(26,12,13,7)          61.1867         estimate D2E/DX2                !
 ! D76   D(26,12,13,14)        -57.7547         estimate D2E/DX2                !
 ! D77   D(26,12,13,15)       -176.753          estimate D2E/DX2                !
 ! D78   D(7,13,15,16)         -67.1602         Frozen                          !
 ! D79   D(12,13,15,16)        175.6367         estimate D2E/DX2                !
 ! D80   D(14,13,15,16)         58.1717         estimate D2E/DX2                !
 ! D81   D(13,15,16,4)           4.8953         estimate D2E/DX2                !
 ! D82   D(13,15,16,27)       -168.65           estimate D2E/DX2                !
 --------------------------------------------------------------------------------
 Trust Radius=3.00D-01 FncErr=1.00D-07 GrdErr=1.00D-07 EigMax=2.50D+02 EigMin=1.00D-04
 Number of steps in this run=     20 maximum allowed number of steps=    162.
 GradGradGradGradGradGradGradGradGradGradGradGradGradGradGradGradGradGrad

                          Input orientation:                          
 ---------------------------------------------------------------------
 Center     Atomic      Atomic             Coordinates (Angstroms)
 Number     Number       Type             X           Y           Z
 ---------------------------------------------------------------------
      1          8           0       -3.605750   -1.461140   -0.154280
      2          7           0       -3.253390   -0.295210    0.015200
      3          8           0       -4.037110    0.633680    0.214270
      4          6           0       -1.758480    0.009720   -0.045720
      5          6           0       -1.371270    1.314880    0.280440
      6          7           0       -0.081750    1.776800    0.352150
      7          6           0        1.196490    1.000370    0.342110
      8          1           0        1.848420    1.494210    1.108700
      9          6           0        1.984370    1.053280   -0.990440
     10          6           0        3.390370    0.460180   -0.778960
     11          6           0        3.311950   -0.957690   -0.191220
     12          6           0        2.441240   -0.992560    1.083410
     13          6           0        1.010790   -0.449060    0.815930
     14          1           0        0.448450   -0.489650    1.778300
     15          7           0        0.367150   -1.311200   -0.178650
     16          6           0       -0.868340   -1.094480   -0.491990
     17          1           0       -2.155930    2.042800    0.545640
     18          1           0        0.146990    2.754410    0.156590
     19          1           0        1.446010    0.481770   -1.776250
     20          1           0        2.081290    2.104170   -1.336680
     21          1           0        3.941790    0.437560   -1.744350
     22          1           0        3.958150    1.108870   -0.075050
     23          1           0        2.874500   -1.642030   -0.952880
     24          1           0        4.334350   -1.327110    0.042060
     25          1           0        2.371880   -2.040090    1.450280
     26          1           0        2.924970   -0.386990    1.878290
     27          1           0       -1.384140   -1.861480   -1.089890
 ---------------------------------------------------------------------
                    Distance matrix (angstroms):
                    1          2          3          4          5
     1  O    0.000000
     2  N    1.229745   0.000000
     3  O    2.170293   1.231537   0.000000
     4  C    2.363815   1.526908   2.376778   0.000000
     5  C    3.590010   2.491007   2.752293   1.399912   0.000000
     6  N    4.812411   3.803428   4.119540   2.468258   1.371632
     7  C    5.419128   4.646163   5.247988   3.140644   2.587685
     8  H    6.330654   5.515998   6.014980   4.067693   3.329351
     9  C    6.186349   5.501260   6.155129   3.998805   3.597762
    10  C    7.281991   6.733562   7.495603   5.220269   4.952379
    11  C    6.936094   6.601907   7.530310   5.163944   5.226814
    12  C    6.190116   5.835767   6.735657   4.462863   4.528164
    13  C    4.824734   4.341436   5.197655   2.936286   3.012050
    14  H    4.595127   4.104869   4.881425   2.906365   2.968382
    15  N    3.975803   3.765385   4.830575   2.506153   3.182635
    16  C    2.782427   2.566035   3.677831   1.486864   2.579652
    17  H    3.856094   2.636679   2.373660   2.154318   1.102674
    18  H    5.652483   4.569766   4.691217   3.347397   2.095877
    19  H    5.650307   5.088944   5.835225   3.672373   3.586239
    20  H    6.815565   6.003617   6.480942   4.560387   3.893357
    21  H    7.943472   7.443358   8.218120   5.963344   5.753092
    22  H    7.988981   7.347509   8.014593   5.821413   5.345234
    23  H    6.531778   6.348397   7.369630   5.001572   5.318925
    24  H    7.943658   7.657633   8.599750   6.238381   6.292141
    25  H    6.216257   6.061990   7.053504   4.847640   5.160961
    26  H    6.923543   6.453810   7.230580   5.078769   4.889495
    27  H    2.443602   2.677409   3.868450   2.175273   3.459369
                    6          7          8          9         10
     6  N    0.000000
     7  C    1.495608   0.000000
     8  H    2.092315   1.120960   0.000000
     9  C    2.568050   1.548949   2.149253   0.000000
    10  C    3.881819   2.522244   2.647657   1.540561   0.000000
    11  C    4.392025   2.931486   3.137439   2.538744   1.536862
    12  C    3.817011   2.463879   2.556580   2.948736   2.545530
    13  C    2.522536   1.536176   2.136267   2.543198   3.005460
    14  H    2.729801   2.200537   2.518726   3.522159   4.012063
    15  N    3.165281   2.510449   3.423705   2.977443   3.554999
    16  C    3.094438   3.057391   4.079744   3.605451   4.542679
    17  H    2.100099   3.516647   4.080785   4.525569   5.917829
    18  H    1.022882   2.052443   2.321526   2.754176   4.081453
    19  H    2.922540   2.195144   3.083813   1.110834   2.185312
    20  H    2.763704   2.195354   2.531040   1.110696   2.174269
    21  H    4.730513   3.493815   3.693048   2.186089   1.112004
    22  H    4.116968   2.795096   2.449635   2.176427   1.112952
    23  H    4.704351   3.387476   3.890881   2.838739   2.171556
    24  H    5.406695   3.918336   3.908633   3.500674   2.181646
    25  H    4.668494   3.442961   3.589145   3.959320   3.501169
    26  H    4.006427   2.696713   2.300031   3.344954   2.827591
    27  H    4.124655   4.111017   5.152077   4.455623   5.318151
                   11         12         13         14         15
    11  C    0.000000
    12  C    1.544032   0.000000
    13  C    2.562888   1.553424   0.000000
    14  H    3.506808   2.169563   1.115361   0.000000
    15  N    2.965969   2.448709   1.465178   2.123960   0.000000
    16  C    4.193328   3.666823   2.378729   2.693320   1.292898
    17  H    6.280415   5.535032   4.038631   3.836085   4.259090
    18  H    4.890565   4.490252   3.382765   3.639333   4.085345
    19  H    2.840088   3.367757   2.788415   3.817540   2.632680
    20  H    3.493077   3.946661   3.506948   4.370031   3.993002
    21  H    2.180742   3.506155   3.991477   5.047000   4.276404
    22  H    2.168350   2.838847   3.450786   4.278804   4.331599
    23  H    1.113467   2.180826   2.832893   3.830541   2.644936
    24  H    1.111842   2.186367   3.523620   4.337751   3.973367
    25  H    2.179414   1.112081   2.187771   2.492197   2.683959
    26  H    2.181358   1.110200   2.190102   2.480663   3.409928
    27  H    4.865974   4.484617   3.370871   3.669716   2.049435
                   16         17         18         19         20
    16  C    0.000000
    17  H    3.546419   0.000000
    18  H    4.033052   2.441555   0.000000
    19  H    3.080601   4.560917   3.253954   0.000000
    20  H    4.432288   4.636909   2.528672   1.796937   0.000000
    21  H    5.201241   6.708430   4.835481   2.496375   2.530858
    22  H    5.321992   6.216064   4.157692   3.098093   2.470817
    23  H    3.810654   6.413171   5.291400   2.688689   3.848441
    24  H    5.235199   7.330322   5.848582   3.862746   4.330229
    25  H    3.894306   6.163556   5.441599   4.198513   5.002647
    26  H    4.528573   5.787519   4.533191   4.037045   4.153758
    27  H    1.100828   4.302792   5.020410   3.737868   5.272238
                   21         22         23         24         25
    21  H    0.000000
    22  H    1.799302   0.000000
    23  H    2.467839   3.084207   0.000000
    24  H    2.541540   2.467638   1.794503   0.000000
    25  H    4.336938   3.841723   2.487219   2.518474   0.000000
    26  H    3.851925   2.668444   3.097289   2.498383   1.794949
    27  H    5.837759   6.196204   4.266491   5.853887   4.537847
                   26         27
    26  H    0.000000
    27  H    5.436234   0.000000
 Symmetry turned off by external request.
 Stoichiometry    C9H13N3O2
 Framework group  C1[X(C9H13N3O2)]
 Deg. of freedom    75
 Full point group                 C1      NOp   1
 Rotational constants (GHZ):           1.6800501           0.4005014           0.3552969
 Standard basis: 6-31G(d) (6D, 7F)
   236 basis functions,   444 primitive gaussians,   236 cartesian basis functions
    52 alpha electrons       52 beta electrons
       nuclear repulsion energy       917.6923547154 Hartrees.
 NAtoms=   27 NActive=   27 NUniq=   27 SFac= 1.00D+00 NAtFMM=   60 NAOKFM=F Big=F
 Integral buffers will be    131072 words long.
 Raffenetti 1 integral format.
 Two-electron integral symmetry is turned off.
 One-electron integrals computed using PRISM.
 NBasis=   236 RedAO= T EigKep=  1.28D-03  NBF=   236
 NBsUse=   236 1.00D-06 EigRej= -1.00D+00 NBFU=   236
 ExpMin= 1.61D-01 ExpMax= 5.48D+03 ExpMxC= 8.25D+02 IAcc=3 IRadAn=         5 AccDes= 0.00D+00
 Harris functional with IExCor=  205 and IRadAn=       5 diagonalized for initial guess.
 HarFok:  IExCor=  205 AccDes= 0.00D+00 IRadAn=         5 IDoV= 1 UseB2=F ITyADJ=14
 ICtDFT=  3500011 ScaDFX=  1.000000  1.000000  1.000000  1.000000
 FoFCou: FMM=F IPFlag=           0 FMFlag=      100000 FMFlg1=           0
         NFxFlg=           0 DoJE=T BraDBF=F KetDBF=T FulRan=T
         wScrn=  0.000000 ICntrl=       500 IOpCl=  0 I1Cent=   200000004 NGrid=           0
         NMat0=    1 NMatS0=      1 NMatT0=    0 NMatD0=    1 NMtDS0=    0 NMtDT0=    0
 Symmetry not used in FoFCou.
 Keep R1 ints in memory in canonical form, NReq=397720213.
 Requested convergence on RMS density matrix=1.00D-08 within 128 cycles.
 Requested convergence on MAX density matrix=1.00D-06.
 Requested convergence on             energy=1.00D-06.
 No special actions if energy rises.
 SCF Done:  E(RHF) =  -661.279192899     A.U. after   16 cycles
            NFock= 16  Conv=0.81D-08     -V/T= 2.0037
 ExpMin= 1.61D-01 ExpMax= 5.48D+03 ExpMxC= 8.25D+02 IAcc=3 IRadAn=         5 AccDes= 0.00D+00
 HarFok:  IExCor=  205 AccDes= 0.00D+00 IRadAn=         5 IDoV=-2 UseB2=F ITyADJ=14
 ICtDFT= 12500011 ScaDFX=  1.000000  1.000000  1.000000  1.000000
 Range of M.O.s used for correlation:    15   236
 NBasis=   236 NAE=    52 NBE=    52 NFC=    14 NFV=     0
 NROrb=    222 NOA=    38 NOB=    38 NVA=   184 NVB=   184
 Fully direct method using O(ONN) memory.
 JobTyp=1 Pass  1:  I=  15 to  52 NPSUse=  4 ParTrn=T ParDer=T DoDerP=T.
 Spin components of T(2) and E(2):
     alpha-alpha T2 =       0.9198610164D-01 E2=     -0.2717840335D+00
     alpha-beta  T2 =       0.4999402298D+00 E2=     -0.1493999952D+01
     beta-beta   T2 =       0.9198610164D-01 E2=     -0.2717840335D+00
 ANorm=    0.1297656516D+01
 E2 =    -0.2037568019D+01 EUMP2 =    -0.66331676091846D+03
          IDoAtm=111111111111111111111111111
          Differentiating once with respect to electric field.
                with respect to dipole field.
          Differentiating once with respect to nuclear coordinates.
 Keep R1 ints in memory in canonical form, NReq=397723379.
          There are     1 degrees of freedom in the 1st order CPHF.  IDoFFX=0 NUNeed=     1.
 LinEq1:  Iter=  0 NonCon=     1 RMS=4.61D-03 Max=1.11D-01 NDo=     1
 AX will form     1 AO Fock derivatives at one time.
 LinEq1:  Iter=  1 NonCon=     1 RMS=1.56D-03 Max=3.11D-02 NDo=     1
 LinEq1:  Iter=  2 NonCon=     1 RMS=6.40D-04 Max=1.79D-02 NDo=     1
 LinEq1:  Iter=  3 NonCon=     1 RMS=2.94D-04 Max=9.07D-03 NDo=     1
 LinEq1:  Iter=  4 NonCon=     1 RMS=9.04D-05 Max=2.09D-03 NDo=     1
 LinEq1:  Iter=  5 NonCon=     1 RMS=3.75D-05 Max=1.90D-03 NDo=     1
 LinEq1:  Iter=  6 NonCon=     1 RMS=1.54D-05 Max=5.85D-04 NDo=     1
 LinEq1:  Iter=  7 NonCon=     1 RMS=5.94D-06 Max=1.02D-04 NDo=     1
 LinEq1:  Iter=  8 NonCon=     1 RMS=2.38D-06 Max=5.95D-05 NDo=     1
 LinEq1:  Iter=  9 NonCon=     1 RMS=8.83D-07 Max=2.52D-05 NDo=     1
 LinEq1:  Iter= 10 NonCon=     1 RMS=4.35D-07 Max=1.51D-05 NDo=     1
 LinEq1:  Iter= 11 NonCon=     1 RMS=1.55D-07 Max=5.76D-06 NDo=     1
 LinEq1:  Iter= 12 NonCon=     1 RMS=5.47D-08 Max=7.98D-07 NDo=     1
 LinEq1:  Iter= 13 NonCon=     1 RMS=1.73D-08 Max=3.58D-07 NDo=     1
 LinEq1:  Iter= 14 NonCon=     1 RMS=5.57D-09 Max=1.51D-07 NDo=     1
 LinEq1:  Iter= 15 NonCon=     1 RMS=2.09D-09 Max=4.92D-08 NDo=     1
 LinEq1:  Iter= 16 NonCon=     1 RMS=7.97D-10 Max=1.31D-08 NDo=     1
 LinEq1:  Iter= 17 NonCon=     1 RMS=2.65D-10 Max=3.89D-09 NDo=     1
 LinEq1:  Iter= 18 NonCon=     1 RMS=9.06D-11 Max=1.05D-09 NDo=     1
 LinEq1:  Iter= 19 NonCon=     0 RMS=2.98D-11 Max=3.74D-10 NDo=     1
 Linear equations converged to 1.000D-10 1.000D-09 after    19 iterations.
 End of Minotr F.D. properties file   721 does not exist.
 End of Minotr F.D. properties file   722 does not exist.
 End of Minotr F.D. properties file   788 does not exist.

 **********************************************************************

            Population analysis using the SCF Density.

 **********************************************************************

 Alpha  occ. eigenvalues --  -20.59886 -20.59443 -15.85332 -15.63163 -15.56932
 Alpha  occ. eigenvalues --  -11.35825 -11.30462 -11.30110 -11.30048 -11.27701
 Alpha  occ. eigenvalues --  -11.24610 -11.23865 -11.23401 -11.22849  -1.58539
 Alpha  occ. eigenvalues --   -1.38045  -1.28484  -1.22743  -1.13258  -1.08358
 Alpha  occ. eigenvalues --   -1.01802  -1.00642  -0.93555  -0.88959  -0.84919
 Alpha  occ. eigenvalues --   -0.81532  -0.78051  -0.76922  -0.74286  -0.71072
 Alpha  occ. eigenvalues --   -0.70370  -0.69827  -0.67422  -0.64330  -0.63298
 Alpha  occ. eigenvalues --   -0.61584  -0.60447  -0.57437  -0.56395  -0.54905
 Alpha  occ. eigenvalues --   -0.53467  -0.50712  -0.49296  -0.48510  -0.47773
 Alpha  occ. eigenvalues --   -0.47642  -0.46172  -0.45649  -0.44048  -0.42129
 Alpha  occ. eigenvalues --   -0.40026  -0.33772
 Alpha virt. eigenvalues --    0.07243   0.11714   0.18355   0.21395   0.23409
 Alpha virt. eigenvalues --    0.24219   0.26175   0.27659   0.28573   0.28889
 Alpha virt. eigenvalues --    0.29989   0.31085   0.31866   0.32261   0.33352
 Alpha virt. eigenvalues --    0.33750   0.34350   0.35490   0.37562   0.38571
 Alpha virt. eigenvalues --    0.40661   0.41908   0.44568   0.45303   0.45707
 Alpha virt. eigenvalues --    0.45928   0.49626   0.53139   0.57628   0.58951
 Alpha virt. eigenvalues --    0.63248   0.69133   0.69346   0.72187   0.73968
 Alpha virt. eigenvalues --    0.75011   0.75742   0.75854   0.77663   0.79382
 Alpha virt. eigenvalues --    0.80527   0.83585   0.85162   0.85272   0.88028
 Alpha virt. eigenvalues --    0.88985   0.90117   0.90727   0.91666   0.93850
 Alpha virt. eigenvalues --    0.95382   0.97280   0.98844   1.00334   1.01953
 Alpha virt. eigenvalues --    1.02701   1.05109   1.06380   1.07038   1.08798
 Alpha virt. eigenvalues --    1.09392   1.10447   1.11718   1.11945   1.13264
 Alpha virt. eigenvalues --    1.13806   1.14199   1.15251   1.16372   1.17371
 Alpha virt. eigenvalues --    1.17960   1.19899   1.21110   1.22242   1.23078
 Alpha virt. eigenvalues --    1.23788   1.24273   1.25771   1.27236   1.27434
 Alpha virt. eigenvalues --    1.29406   1.31257   1.32917   1.35807   1.39839
 Alpha virt. eigenvalues --    1.42828   1.46205   1.47503   1.48490   1.52513
 Alpha virt. eigenvalues --    1.53922   1.55351   1.60899   1.61212   1.66157
 Alpha virt. eigenvalues --    1.69149   1.70227   1.72662   1.73111   1.77188
 Alpha virt. eigenvalues --    1.77885   1.79700   1.84005   1.89392   1.92932
 Alpha virt. eigenvalues --    1.93551   1.96440   1.97317   1.98921   2.00489
 Alpha virt. eigenvalues --    2.03062   2.03889   2.06031   2.09055   2.11853
 Alpha virt. eigenvalues --    2.12767   2.14235   2.17763   2.18800   2.19187
 Alpha virt. eigenvalues --    2.20981   2.21968   2.24047   2.25003   2.26592
 Alpha virt. eigenvalues --    2.29056   2.32288   2.33786   2.35842   2.36142
 Alpha virt. eigenvalues --    2.38470   2.39846   2.41317   2.43088   2.46221
 Alpha virt. eigenvalues --    2.48698   2.50309   2.51075   2.56499   2.57260
 Alpha virt. eigenvalues --    2.60775   2.62717   2.66239   2.68652   2.68902
 Alpha virt. eigenvalues --    2.69892   2.70564   2.74960   2.77343   2.80882
 Alpha virt. eigenvalues --    2.84438   2.86572   2.90093   2.91413   2.95430
 Alpha virt. eigenvalues --    2.97578   2.98504   3.02145   3.03229   3.05549
 Alpha virt. eigenvalues --    3.06959   3.12401   3.19419   3.22693   3.27178
 Alpha virt. eigenvalues --    3.30238   3.33646   3.36957   3.43401   3.59411
 Alpha virt. eigenvalues --    4.09951   4.23148   4.32062   4.36200   4.42860
 Alpha virt. eigenvalues --    4.52700   4.59779   4.59993   4.70803   4.77466
 Alpha virt. eigenvalues --    4.95959   4.99244   5.02588   5.10162
          Condensed to atoms (all electrons):
               1          2          3          4          5          6
     1  O    8.300049   0.312506  -0.089503  -0.078543   0.003488  -0.000014
     2  N    0.312506   5.685765   0.308744   0.263907  -0.045404   0.000899
     3  O   -0.089503   0.308744   8.329863  -0.086791   0.007923   0.000456
     4  C   -0.078543   0.263907  -0.086791   5.242199   0.566069  -0.047999
     5  C    0.003488  -0.045404   0.007923   0.566069   4.670915   0.306566
     6  N   -0.000014   0.000899   0.000456  -0.047999   0.306566   7.196218
     7  C    0.000003  -0.000092   0.000002   0.003705  -0.029511   0.197722
     8  H   -0.000000   0.000002  -0.000000  -0.000166   0.002138  -0.050805
     9  C   -0.000000  -0.000003   0.000000   0.000465   0.001794  -0.055344
    10  C   -0.000000   0.000000  -0.000000  -0.000018  -0.000065   0.003310
    11  C   -0.000000  -0.000000  -0.000000  -0.000016   0.000015  -0.000155
    12  C   -0.000000   0.000002  -0.000000  -0.000059  -0.000118   0.003602
    13  C   -0.000020  -0.000026  -0.000003  -0.011145   0.000463  -0.043902
    14  H   -0.000004  -0.000055  -0.000000   0.003135   0.005272  -0.005706
    15  N    0.000127   0.001659  -0.000013  -0.061969  -0.003615   0.001836
    16  C    0.002568  -0.026785   0.001902   0.318571  -0.040625  -0.001441
    17  H    0.000117  -0.003962   0.011577  -0.028246   0.378349  -0.034422
    18  H    0.000000  -0.000035   0.000008   0.000858  -0.023873   0.327768
    19  H    0.000000   0.000000   0.000000  -0.000717   0.000564   0.000770
    20  H    0.000000  -0.000000   0.000000  -0.000025   0.000034  -0.001891
    21  H   -0.000000  -0.000000   0.000000   0.000000   0.000001  -0.000058
    22  H   -0.000000   0.000000  -0.000000  -0.000000  -0.000002  -0.000098
    23  H    0.000000  -0.000000   0.000000   0.000025  -0.000000  -0.000024
    24  H    0.000000   0.000000   0.000000   0.000000  -0.000000   0.000004
    25  H    0.000000  -0.000000   0.000000   0.000019  -0.000001  -0.000071
    26  H    0.000000  -0.000000   0.000000   0.000007  -0.000001  -0.000067
    27  H    0.005925  -0.000354   0.000013  -0.065102   0.002211   0.000043
               7          8          9         10         11         12
     1  O    0.000003  -0.000000  -0.000000  -0.000000  -0.000000  -0.000000
     2  N   -0.000092   0.000002  -0.000003   0.000000  -0.000000   0.000002
     3  O    0.000002  -0.000000   0.000000  -0.000000  -0.000000  -0.000000
     4  C    0.003705  -0.000166   0.000465  -0.000018  -0.000016  -0.000059
     5  C   -0.029511   0.002138   0.001794  -0.000065   0.000015  -0.000118
     6  N    0.197722  -0.050805  -0.055344   0.003310  -0.000155   0.003602
     7  C    4.998078   0.416900   0.340606  -0.049326  -0.007666  -0.063785
     8  H    0.416900   0.549156  -0.060953   0.001559  -0.000336  -0.002848
     9  C    0.340606  -0.060953   5.181776   0.317731  -0.053038  -0.006312
    10  C   -0.049326   0.001559   0.317731   5.126773   0.332752  -0.060060
    11  C   -0.007666  -0.000336  -0.053038   0.332752   5.123646   0.330805
    12  C   -0.063785  -0.002848  -0.006312  -0.060060   0.330805   5.136724
    13  C    0.334220  -0.040910  -0.049597  -0.001856  -0.047907   0.367778
    14  H   -0.040068  -0.000872   0.003847  -0.000388   0.003943  -0.040832
    15  N   -0.058143   0.004085  -0.012959   0.001488  -0.007716  -0.074027
    16  C   -0.002502   0.000033  -0.001036  -0.000013  -0.000005   0.002660
    17  H    0.001438  -0.000014  -0.000065   0.000001   0.000000   0.000001
    18  H   -0.028118  -0.002423   0.000814  -0.000122   0.000011  -0.000133
    19  H   -0.035058   0.004136   0.385549  -0.032493  -0.002289   0.000632
    20  H   -0.041547  -0.001868   0.397260  -0.037399   0.004143  -0.000358
    21  H    0.004037  -0.000081  -0.035842   0.400178  -0.035859   0.004207
    22  H   -0.004182   0.003506  -0.045663   0.395978  -0.045601  -0.001245
    23  H    0.000423   0.000033  -0.002002  -0.040115   0.396716  -0.036686
    24  H   -0.000139  -0.000097   0.004392  -0.038482   0.400297  -0.037842
    25  H    0.004975  -0.000006  -0.000367   0.004096  -0.033962   0.395502
    26  H   -0.004520   0.001649   0.001037  -0.002401  -0.042270   0.394653
    27  H   -0.000375   0.000009  -0.000064   0.000005   0.000004  -0.000020
              13         14         15         16         17         18
     1  O   -0.000020  -0.000004   0.000127   0.002568   0.000117   0.000000
     2  N   -0.000026  -0.000055   0.001659  -0.026785  -0.003962  -0.000035
     3  O   -0.000003  -0.000000  -0.000013   0.001902   0.011577   0.000008
     4  C   -0.011145   0.003135  -0.061969   0.318571  -0.028246   0.000858
     5  C    0.000463   0.005272  -0.003615  -0.040625   0.378349  -0.023873
     6  N   -0.043902  -0.005706   0.001836  -0.001441  -0.034422   0.327768
     7  C    0.334220  -0.040068  -0.058143  -0.002502   0.001438  -0.028118
     8  H   -0.040910  -0.000872   0.004085   0.000033  -0.000014  -0.002423
     9  C   -0.049597   0.003847  -0.012959  -0.001036  -0.000065   0.000814
    10  C   -0.001856  -0.000388   0.001488  -0.000013   0.000001  -0.000122
    11  C   -0.047907   0.003943  -0.007716  -0.000005   0.000000   0.000011
    12  C    0.367778  -0.040832  -0.074027   0.002660   0.000001  -0.000133
    13  C    5.025058   0.401777   0.240547  -0.069877  -0.000040   0.003634
    14  H    0.401777   0.519435  -0.035733  -0.005179   0.000074   0.000013
    15  N    0.240547  -0.035733   6.932487   0.585545  -0.000067  -0.000120
    16  C   -0.069877  -0.005179   0.585545   4.710539   0.001672  -0.000215
    17  H   -0.000040   0.000074  -0.000067   0.001672   0.387905  -0.001732
    18  H    0.003634   0.000013  -0.000120  -0.000215  -0.001732   0.323813
    19  H   -0.006287   0.000068   0.007061   0.002633   0.000011  -0.000123
    20  H    0.003852  -0.000049   0.000077  -0.000028  -0.000001   0.002972
    21  H   -0.000370   0.000009  -0.000028   0.000002  -0.000000  -0.000000
    22  H    0.000323  -0.000044   0.000002  -0.000001   0.000000   0.000002
    23  H   -0.005826   0.000007   0.006727   0.000050   0.000000   0.000000
    24  H    0.004132  -0.000058   0.000044   0.000005   0.000000  -0.000000
    25  H   -0.034548  -0.002658   0.000715  -0.000056  -0.000000   0.000002
    26  H   -0.044700  -0.000882   0.004178  -0.000061   0.000000  -0.000001
    27  H    0.004805  -0.000174  -0.039898   0.401309  -0.000055   0.000002
              19         20         21         22         23         24
     1  O    0.000000   0.000000  -0.000000  -0.000000   0.000000   0.000000
     2  N    0.000000  -0.000000  -0.000000   0.000000  -0.000000   0.000000
     3  O    0.000000   0.000000   0.000000  -0.000000   0.000000   0.000000
     4  C   -0.000717  -0.000025   0.000000  -0.000000   0.000025   0.000000
     5  C    0.000564   0.000034   0.000001  -0.000002  -0.000000  -0.000000
     6  N    0.000770  -0.001891  -0.000058  -0.000098  -0.000024   0.000004
     7  C   -0.035058  -0.041547   0.004037  -0.004182   0.000423  -0.000139
     8  H    0.004136  -0.001868  -0.000081   0.003506   0.000033  -0.000097
     9  C    0.385549   0.397260  -0.035842  -0.045663  -0.002002   0.004392
    10  C   -0.032493  -0.037399   0.400178   0.395978  -0.040115  -0.038482
    11  C   -0.002289   0.004143  -0.035859  -0.045601   0.396716   0.400297
    12  C    0.000632  -0.000358   0.004207  -0.001245  -0.036686  -0.037842
    13  C   -0.006287   0.003852  -0.000370   0.000323  -0.005826   0.004132
    14  H    0.000068  -0.000049   0.000009  -0.000044   0.000007  -0.000058
    15  N    0.007061   0.000077  -0.000028   0.000002   0.006727   0.000044
    16  C    0.002633  -0.000028   0.000002  -0.000001   0.000050   0.000005
    17  H    0.000011  -0.000001  -0.000000   0.000000   0.000000   0.000000
    18  H   -0.000123   0.002972  -0.000000   0.000002   0.000000  -0.000000
    19  H    0.507122  -0.024060  -0.002596   0.003757   0.001641  -0.000069
    20  H   -0.024060   0.550385  -0.002603  -0.002972  -0.000050  -0.000090
    21  H   -0.002596  -0.002603   0.526167  -0.024695  -0.002815  -0.002057
    22  H    0.003757  -0.002972  -0.024695   0.568625   0.004062  -0.003593
    23  H    0.001641  -0.000050  -0.002815   0.004062   0.509934  -0.024995
    24  H   -0.000069  -0.000090  -0.002057  -0.003593  -0.024995   0.541003
    25  H   -0.000028   0.000011  -0.000086  -0.000082  -0.002099  -0.002376
    26  H    0.000024  -0.000035  -0.000074   0.002464   0.003823  -0.002767
    27  H    0.000083   0.000000  -0.000000   0.000000  -0.000021  -0.000000
              25         26         27
     1  O    0.000000   0.000000   0.005925
     2  N   -0.000000  -0.000000  -0.000354
     3  O    0.000000   0.000000   0.000013
     4  C    0.000019   0.000007  -0.065102
     5  C   -0.000001  -0.000001   0.002211
     6  N   -0.000071  -0.000067   0.000043
     7  C    0.004975  -0.004520  -0.000375
     8  H   -0.000006   0.001649   0.000009
     9  C   -0.000367   0.001037  -0.000064
    10  C    0.004096  -0.002401   0.000005
    11  C   -0.033962  -0.042270   0.000004
    12  C    0.395502   0.394653  -0.000020
    13  C   -0.034548  -0.044700   0.004805
    14  H   -0.002658  -0.000882  -0.000174
    15  N    0.000715   0.004178  -0.039898
    16  C   -0.000056  -0.000061   0.401309
    17  H   -0.000000   0.000000  -0.000055
    18  H    0.000002  -0.000001   0.000002
    19  H   -0.000028   0.000024   0.000083
    20  H    0.000011  -0.000035   0.000000
    21  H   -0.000086  -0.000074  -0.000000
    22  H   -0.000082   0.002464   0.000000
    23  H   -0.002099   0.003823  -0.000021
    24  H   -0.002376  -0.002767  -0.000000
    25  H    0.510673  -0.023126  -0.000010
    26  H   -0.023126   0.560661   0.000001
    27  H   -0.000010   0.000001   0.449996
 Mulliken charges:
               1
     1  O   -0.456698
     2  N    0.503232
     3  O   -0.484178
     4  C   -0.018163
     5  C    0.197413
     6  N   -0.797200
     7  C    0.062920
     8  H    0.178173
     9  C   -0.312028
    10  C   -0.321134
    11  C   -0.315512
    12  C   -0.312238
    13  C   -0.029572
    14  H    0.195121
    15  N   -0.492292
    16  C    0.120334
    17  H    0.287457
    18  H    0.396995
    19  H    0.189671
    20  H    0.154242
    21  H    0.172564
    22  H    0.149458
    23  H    0.191191
    24  H    0.162686
    25  H    0.183482
    26  H    0.152408
    27  H    0.241669
 Sum of Mulliken charges =  -0.00000
 Mulliken charges with hydrogens summed into heavy atoms:
               1
     1  O   -0.456698
     2  N    0.503232
     3  O   -0.484178
     4  C   -0.018163
     5  C    0.484870
     6  N   -0.400205
     7  C    0.241094
     9  C    0.031884
    10  C    0.000888
    11  C    0.038366
    12  C    0.023652
    13  C    0.165549
    15  N   -0.492292
    16  C    0.362003
 Electronic spatial extent (au):  <R**2>=           3123.8189
 Charge=             -0.0000 electrons
 Dipole moment (field-independent basis, Debye):
    X=              5.3042    Y=              4.4726    Z=              0.4207  Tot=              6.9510
 Quadrupole moment (field-independent basis, Debye-Ang):
   XX=           -105.2833   YY=            -80.2995   ZZ=            -82.2748
   XY=             -1.9890   XZ=              1.3174   YZ=             -0.1344
 Traceless Quadrupole moment (field-independent basis, Debye-Ang):
   XX=            -15.9974   YY=              8.9864   ZZ=              7.0111
   XY=             -1.9890   XZ=              1.3174   YZ=             -0.1344
 Octapole moment (field-independent basis, Debye-Ang**2):
  XXX=            100.2361  YYY=             36.3736  ZZZ=             -5.1073  XYY=             -1.5279
  XXY=             12.1682  XXZ=             -2.6996  XZZ=             -8.4227  YZZ=             -2.7919
  YYZ=              0.2847  XYZ=             -1.6131
 Hexadecapole moment (field-independent basis, Debye-Ang**3):
 XXXX=          -3555.1127 YYYY=           -619.9431 ZZZZ=           -298.1299 XXXY=            -47.1854
 XXXZ=             45.2889 YYYX=            -25.0131 YYYZ=              9.4505 ZZZX=             30.3585
 ZZZY=              8.8738 XXYY=           -656.4486 XXZZ=           -543.4717 YYZZ=           -164.3718
 XXYZ=              1.9456 YYXZ=             13.3092 ZZXY=              1.1844
 N-N= 9.176923547154D+02 E-N=-3.381398291849D+03  KE= 6.588553415207D+02
 Calling FoFJK, ICntrl=  10002127 FMM=F ISym2X=0 I1Cent= 0 IOpClX= 0 NMat=1 NMatS=1 NMatT=0.
 -------------------------------------------------------------------
 Center     Atomic                   Forces (Hartrees/Bohr)
 Number     Number              X              Y              Z
 -------------------------------------------------------------------
      1        8           0.002279785   -0.019331898   -0.003679207
      2        7           0.038998282    0.014288570   -0.002465242
      3        8          -0.005300940    0.015520632    0.004048397
      4        6          -0.002025735    0.010098903    0.008573637
      5        6           0.002627376   -0.016732647   -0.006433472
      6        7           0.014967117   -0.011254274   -0.005738678
      7        6          -0.004885182    0.005514559    0.003114723
      8        1          -0.009633769   -0.001684710   -0.007741160
      9        6          -0.004073837   -0.000000900   -0.002089251
     10        6           0.002863780   -0.000814813    0.001053335
     11        6          -0.001135891   -0.004611789   -0.002459110
     12        6           0.000927756   -0.008706729   -0.002871950
     13        6           0.010223229   -0.001359333    0.003714281
     14        1           0.000554765    0.004466953   -0.010083546
     15        7           0.000569943    0.002035288    0.000275152
     16        6          -0.023463245    0.002566156    0.011337723
     17        1           0.006851646   -0.005496825   -0.007325205
     18        1          -0.017349398   -0.001522310    0.007182332
     19        1           0.003035070    0.005899110    0.007764455
     20        1          -0.003310371   -0.007289223    0.002530015
     21        1          -0.004499293    0.002390958    0.009555696
     22        1          -0.003879294   -0.003962828   -0.007487383
     23        1           0.003886718    0.006095672    0.009363611
     24        1          -0.009338590    0.002660272   -0.002259358
     25        1          -0.000692355    0.010575647   -0.002381017
     26        1          -0.004761128   -0.004796609   -0.004442696
     27        1           0.006563558    0.005452170   -0.001056083
 -------------------------------------------------------------------
 Cartesian Forces:  Max     0.038998282 RMS     0.008576440

 GradGradGradGradGradGradGradGradGradGradGradGradGradGradGradGradGradGrad
 Berny optimization.
 FormGI is forming the generalized inverse of G from B-inverse, IUseBI=4.
 Internal  Forces:  Max     0.037399166 RMS     0.006850356
 Search for a local minimum.
 Step number   1 out of a maximum of   20
 All quantities printed in internal units (Hartrees-Bohrs-Radians)
 Mixed Optimization -- RFO/linear search
 Second derivative matrix not updated -- first step.
 ITU=  0
     Eigenvalues ---    0.00231   0.00768   0.01050   0.01144   0.01193
     Eigenvalues ---    0.01507   0.01536   0.01735   0.02007   0.02081
     Eigenvalues ---    0.02686   0.03647   0.04504   0.04687   0.04839
     Eigenvalues ---    0.05081   0.05137   0.05304   0.05895   0.06264
     Eigenvalues ---    0.07202   0.07701   0.07720   0.07873   0.07992
     Eigenvalues ---    0.08051   0.08066   0.10458   0.11722   0.12244
     Eigenvalues ---    0.13466   0.15018   0.15629   0.15960   0.15993
     Eigenvalues ---    0.20065   0.21869   0.22894   0.24982   0.25000
     Eigenvalues ---    0.25000   0.25366   0.26174   0.26650   0.27982
     Eigenvalues ---    0.28086   0.28469   0.29711   0.31382   0.31467
     Eigenvalues ---    0.32039   0.32236   0.32289   0.32381   0.32389
     Eigenvalues ---    0.32406   0.32512   0.32526   0.32579   0.33262
     Eigenvalues ---    0.33388   0.33572   0.35287   0.43881   0.44149
     Eigenvalues ---    0.48815   0.66625   0.90449   0.911931000.00000
     Eigenvalues --- 1000.000001000.000001000.000001000.000001000.00000
     Eigenvalues --- 1000.000001000.000001000.000001000.000001000.00000
     Eigenvalues --- 1000.000001000.000001000.000001000.000001000.00000
     Eigenvalues --- 1000.000001000.000001000.000001000.000001000.00000
     Eigenvalues --- 1000.000001000.000001000.000001000.000001000.00000
     Eigenvalues --- 1000.000001000.000001000.000001000.000001000.00000
     Eigenvalues --- 1000.000001000.000001000.000001000.000001000.00000
     Eigenvalues --- 1000.000001000.000001000.000001000.000001000.00000
     Eigenvalues --- 1000.000001000.000001000.000001000.000001000.00000
     Eigenvalues --- 1000.000001000.000001000.000001000.000001000.00000
     Eigenvalues --- 1000.000001000.000001000.000001000.000001000.00000
     Eigenvalues --- 1000.000001000.000001000.000001000.000001000.00000
     Eigenvalues --- 1000.000001000.000001000.000001000.000001000.00000
     Eigenvalues --- 1000.000001000.000001000.000001000.000001000.00000
     Eigenvalues --- 1000.000001000.000001000.000001000.000001000.00000
     Eigenvalues --- 1000.000001000.000001000.000001000.000001000.00000
     Eigenvalues --- 1000.000001000.000001000.000001000.000001000.00000
     Eigenvalues --- 1000.000001000.000001000.000001000.000001000.00000
     Eigenvalues --- 1000.000001000.00000
 RFO step:  Lambda=-2.36721788D-02 EMin= 2.30746576D-03
 Linear search not attempted -- first point.
 Iteration  1 RMS(Cart)=  0.05387844 RMS(Int)=  0.00109499
 Iteration  2 RMS(Cart)=  0.00114279 RMS(Int)=  0.00028045
 Iteration  3 RMS(Cart)=  0.00000112 RMS(Int)=  0.00028045
 Iteration  4 RMS(Cart)=  0.00000000 RMS(Int)=  0.00028045
 Iteration  1 RMS(Cart)=  0.00002912 RMS(Int)=  0.00002121
 Iteration  2 RMS(Cart)=  0.00001517 RMS(Int)=  0.00002350
 Iteration  3 RMS(Cart)=  0.00000870 RMS(Int)=  0.00002610
 Iteration  4 RMS(Cart)=  0.00000550 RMS(Int)=  0.00002784
 Iteration  5 RMS(Cart)=  0.00000378 RMS(Int)=  0.00002902
 Iteration  6 RMS(Cart)=  0.00000276 RMS(Int)=  0.00002987
 Iteration  7 RMS(Cart)=  0.00000212 RMS(Int)=  0.00003053
 Iteration  8 RMS(Cart)=  0.00000169 RMS(Int)=  0.00003106
 Iteration  9 RMS(Cart)=  0.00000138 RMS(Int)=  0.00003151
 Iteration 10 RMS(Cart)=  0.00000116 RMS(Int)=  0.00003188
 Iteration 11 RMS(Cart)=  0.00000099 RMS(Int)=  0.00003220
 Variable       Old X    -DE/DX   Delta X   Delta X   Delta X     New X
                                 (Linear)    (Quad)   (Total)
    R1        2.32388   0.01818   0.00000   0.01943   0.01943   2.34332
    R2        2.32727   0.01573   0.00000   0.01695   0.01695   2.34422
    R3        2.88544  -0.03740   0.00000  -0.11659  -0.11659   2.76885
    R4        2.64545  -0.03495   0.00000  -0.07545  -0.07524   2.57022
    R5        2.80977  -0.02162   0.00000  -0.06337  -0.06319   2.74657
    R6        2.59201  -0.02394   0.00000  -0.04561  -0.04548   2.54653
    R7        2.08375  -0.01027   0.00000  -0.02871  -0.02871   2.05504
    R8        2.82629  -0.01954   0.00000  -0.05294  -0.05293   2.77336
    R9        1.93297  -0.00671   0.00000  -0.01450  -0.01450   1.91846
   R10        2.11831  -0.01164   0.00000  -0.03440  -0.03440   2.08391
   R11        2.92709  -0.01312   0.00000  -0.04491  -0.04494   2.88215
   R12        2.90295  -0.00493   0.00000  -0.01080  -0.01073   2.89222
   R13        2.91124  -0.00468   0.00000  -0.01428  -0.01431   2.89693
   R14        2.09917  -0.01000   0.00000  -0.02867  -0.02867   2.07051
   R15        2.09891  -0.00797   0.00000  -0.02285  -0.02285   2.07606
   R16        2.90425  -0.00183   0.00000  -0.00696  -0.00699   2.89726
   R17        2.10138  -0.01058   0.00000  -0.03043  -0.03043   2.07096
   R18        2.10317  -0.00902   0.00000  -0.02604  -0.02604   2.07714
   R19        2.91780  -0.00912   0.00000  -0.02871  -0.02867   2.88912
   R20        2.10415  -0.01168   0.00000  -0.03375  -0.03375   2.07040
   R21        2.10108  -0.00995   0.00000  -0.02860  -0.02860   2.07248
   R22        2.93555  -0.01050   0.00000  -0.03641  -0.03639   2.89916
   R23        2.10153  -0.01070   0.00000  -0.03080  -0.03080   2.07072
   R24        2.09797  -0.00787   0.00000  -0.02253  -0.02253   2.07545
   R25        2.10773  -0.00914   0.00000  -0.02657  -0.02657   2.08115
   R26        2.76879  -0.00540   0.00000  -0.01153  -0.01194   2.75684
   R27        2.44322  -0.00529   0.00000  -0.00799  -0.00815   2.43507
   R28        2.08026  -0.00627   0.00000  -0.01699  -0.01698   2.06328
    A1        2.15922   0.01076   0.00000   0.03943   0.03931   2.19853
    A2        2.05372  -0.00751   0.00000  -0.02732  -0.02744   2.02628
    A3        2.07015  -0.00324   0.00000  -0.01174  -0.01186   2.05829
    A4        2.03498  -0.00711   0.00000  -0.02179  -0.02213   2.01285
    A5        2.03733  -0.00325   0.00000  -0.00776  -0.00817   2.02916
    A6        2.21019   0.01030   0.00000   0.02810   0.02806   2.23825
    A7        2.19715   0.00591   0.00000   0.01824   0.01850   2.21565
    A8        2.06538  -0.00316   0.00000  -0.00997  -0.01015   2.05523
    A9        2.01985  -0.00270   0.00000  -0.00762  -0.00783   2.01202
   A10        2.25019  -0.00499   0.00000  -0.01564  -0.01571   2.23447
   A11        2.12011  -0.01264   0.00000  -0.07161  -0.07216   2.04795
   A12        1.87943   0.01780   0.00000   0.09612   0.09625   1.97568
   A13        1.83771  -0.00134   0.00000  -0.01596  -0.01576   1.82196
   A14        2.00730  -0.00139   0.00000  -0.01070  -0.01076   1.99654
   A15        1.96540   0.00106   0.00000  -0.00224  -0.00272   1.96267
   A16        1.85194   0.00267   0.00000   0.02363   0.02349   1.87543
   A17        1.84943   0.00067   0.00000   0.01861   0.01835   1.86778
   A18        1.93807  -0.00135   0.00000  -0.00889  -0.00855   1.92951
   A19        1.91026   0.00014   0.00000  -0.00542  -0.00558   1.90468
   A20        1.92249  -0.00075   0.00000  -0.01263  -0.01259   1.90989
   A21        1.92291  -0.00163   0.00000  -0.00701  -0.00699   1.91593
   A22        1.91915  -0.00038   0.00000   0.00586   0.00582   1.92497
   A23        1.90436   0.00303   0.00000   0.02461   0.02463   1.92899
   A24        1.88447  -0.00039   0.00000  -0.00498  -0.00523   1.87923
   A25        1.94025  -0.00087   0.00000   0.00534   0.00524   1.94550
   A26        1.91901  -0.00070   0.00000  -0.00671  -0.00673   1.91229
   A27        1.90501   0.00031   0.00000  -0.00283  -0.00289   1.90212
   A28        1.91616   0.00082   0.00000   0.00716   0.00720   1.92337
   A29        1.89851   0.00167   0.00000   0.01112   0.01114   1.90966
   A30        1.88385  -0.00123   0.00000  -0.01456  -0.01464   1.86921
   A31        1.94476   0.00048   0.00000   0.00515   0.00526   1.95002
   A32        1.90230   0.00072   0.00000   0.00584   0.00581   1.90811
   A33        1.91756   0.00038   0.00000   0.00528   0.00525   1.92280
   A34        1.90632  -0.00107   0.00000  -0.01398  -0.01402   1.89230
   A35        1.91542  -0.00043   0.00000  -0.00000  -0.00009   1.91534
   A36        1.87610  -0.00009   0.00000  -0.00266  -0.00270   1.87340
   A37        1.94898  -0.00291   0.00000  -0.01851  -0.01852   1.93046
   A38        1.90581   0.00259   0.00000   0.01707   0.01694   1.92275
   A39        1.91031   0.00132   0.00000   0.01344   0.01338   1.92369
   A40        1.90597   0.00011   0.00000  -0.00276  -0.00261   1.90336
   A41        1.91098  -0.00018   0.00000  -0.00481  -0.00474   1.90624
   A42        1.88050  -0.00087   0.00000  -0.00393  -0.00412   1.87638
   A43        1.84617   0.00444   0.00000   0.02318   0.02319   1.86936
   A44        1.94058  -0.00446   0.00000  -0.03197  -0.03243   1.90815
   A45        1.98114   0.00125   0.00000   0.01337   0.01366   1.99480
   A46        1.87860   0.00246   0.00000   0.03231   0.03264   1.91124
   A47        1.89181  -0.00372   0.00000  -0.02824  -0.02832   1.86349
   A48        1.92070   0.00028   0.00000  -0.00611  -0.00601   1.91469
   A49        2.07792  -0.00632   0.00000  -0.01618  -0.01663   2.06129
   A50        2.24443  -0.00445   0.00000  -0.02126  -0.02099   2.22344
   A51        1.98225   0.00535   0.00000   0.02607   0.02592   2.00817
   A52        2.05171  -0.00048   0.00000  -0.00499  -0.00511   2.04660
    D1       -3.03462  -0.00094   0.00000  -0.03869  -0.03811  -3.07272
    D2        0.14413   0.00027   0.00000   0.00000   0.00000   0.14413
    D3        0.12136  -0.00182   0.00000  -0.06634  -0.06604   0.05532
    D4       -2.98307  -0.00062   0.00000  -0.02765  -0.02794  -3.01101
    D5        3.08219   0.00066   0.00000   0.00451   0.00432   3.08651
    D6       -0.01423  -0.00052   0.00000  -0.01358  -0.01386  -0.02809
    D7       -0.10076  -0.00106   0.00000  -0.03959  -0.04028  -0.14104
    D8        3.08601  -0.00225   0.00000  -0.05768  -0.05846   3.02754
    D9       -0.06464   0.00307   0.00000   0.00000   0.00002  -0.06463
   D10       -2.63935  -0.00298   0.00000  -0.02585  -0.02645  -2.66580
   D11        0.39328   0.00182   0.00000  -0.02779  -0.02839   0.36489
   D12        0.54365  -0.00117   0.00000   0.01859   0.01879   0.56243
   D13       -2.70690   0.00363   0.00000   0.01665   0.01684  -2.69006
   D14       -0.20183   0.00045   0.00000   0.02551   0.02561  -0.17622
   D15        2.62940   0.00400   0.00000   0.08069   0.07927   2.70867
   D16        2.89563   0.00159   0.00000   0.04311   0.04333   2.93896
   D17       -0.55633   0.00514   0.00000   0.09829   0.09699  -0.45934
   D18       -2.42361  -0.00098   0.00000  -0.01332  -0.01284  -2.43645
   D19        1.82764  -0.00264   0.00000  -0.02608  -0.02561   1.80204
   D20       -0.41634  -0.00044   0.00000  -0.00163  -0.00157  -0.41791
   D21        0.99490  -0.00031   0.00000  -0.04105  -0.04185   0.95305
   D22       -1.03703  -0.00197   0.00000  -0.05381  -0.05463  -1.09166
   D23        3.00218   0.00023   0.00000  -0.02936  -0.03059   2.97159
   D24        2.94571   0.00240   0.00000   0.02774   0.02765   2.97336
   D25       -1.22545   0.00154   0.00000   0.02354   0.02347  -1.20198
   D26        0.85169  -0.00042   0.00000   0.00515   0.00516   0.85685
   D27        0.92191   0.00304   0.00000   0.03770   0.03766   0.95958
   D28        3.03394   0.00219   0.00000   0.03350   0.03348   3.06742
   D29       -1.17211   0.00022   0.00000   0.01511   0.01517  -1.15694
   D30       -1.07996   0.00143   0.00000   0.00699   0.00699  -1.07296
   D31        1.03207   0.00058   0.00000   0.00280   0.00281   1.03488
   D32        3.10921  -0.00139   0.00000  -0.01559  -0.01550   3.09371
   D33       -2.90180  -0.00125   0.00000  -0.01205  -0.01176  -2.91356
   D34       -0.86740   0.00195   0.00000   0.02335   0.02322  -0.84418
   D35        1.30938  -0.00027   0.00000   0.00000   0.00000   1.30939
   D36       -0.90162  -0.00191   0.00000  -0.02130  -0.02121  -0.92283
   D37        1.13278   0.00129   0.00000   0.01409   0.01376   1.14655
   D38       -2.97362  -0.00094   0.00000  -0.00925  -0.00945  -2.98307
   D39        1.10182   0.00095   0.00000   0.01253   0.01263   1.11445
   D40        3.13622   0.00414   0.00000   0.04792   0.04761  -3.09936
   D41       -0.97019   0.00192   0.00000   0.02457   0.02439  -0.94579
   D42        0.95665   0.00059   0.00000   0.00000   0.00001   0.95666
   D43        3.08227   0.00057   0.00000   0.00804   0.00801   3.09027
   D44       -1.13758  -0.00114   0.00000  -0.01530  -0.01527  -1.15285
   D45       -1.15740   0.00167   0.00000   0.01538   0.01545  -1.14195
   D46        0.96822   0.00165   0.00000   0.02342   0.02345   0.99167
   D47        3.03156  -0.00006   0.00000   0.00008   0.00017   3.03173
   D48        3.06200   0.00055   0.00000   0.00325   0.00321   3.06521
   D49       -1.09557   0.00053   0.00000   0.01129   0.01121  -1.08436
   D50        0.96777  -0.00118   0.00000  -0.01205  -0.01207   0.95570
   D51       -0.92193  -0.00082   0.00000   0.00000   0.00001  -0.92192
   D52        1.18308  -0.00137   0.00000  -0.01032  -0.01032   1.17275
   D53       -3.04862  -0.00085   0.00000  -0.00706  -0.00709  -3.05572
   D54       -3.04920   0.00008   0.00000   0.00005   0.00006  -3.04914
   D55       -0.94420  -0.00048   0.00000  -0.01027  -0.01027  -0.95447
   D56        1.10729   0.00005   0.00000  -0.00702  -0.00704   1.10025
   D57        1.17616   0.00011   0.00000   0.00699   0.00702   1.18317
   D58       -3.00203  -0.00045   0.00000  -0.00333  -0.00331  -3.00534
   D59       -0.95054   0.00008   0.00000  -0.00007  -0.00008  -0.95062
   D60        0.98743  -0.00071   0.00000  -0.01185  -0.01187   0.97556
   D61        3.09702  -0.00070   0.00000  -0.01575  -0.01588   3.08113
   D62       -1.13150   0.00053   0.00000  -0.00279  -0.00275  -1.13424
   D63       -1.11521  -0.00121   0.00000  -0.01318  -0.01316  -1.12837
   D64        0.99438  -0.00120   0.00000  -0.01708  -0.01717   0.97720
   D65        3.04905   0.00003   0.00000  -0.00412  -0.00403   3.04501
   D66        3.11536  -0.00021   0.00000  -0.00174  -0.00173   3.11363
   D67       -1.05824  -0.00020   0.00000  -0.00564  -0.00575  -1.06398
   D68        0.99643   0.00102   0.00000   0.00732   0.00739   1.00383
   D69       -1.05063  -0.00008   0.00000  -0.00050  -0.00042  -1.05105
   D70       -3.12655   0.00157   0.00000   0.00849   0.00813  -3.11842
   D71        1.07972   0.00192   0.00000   0.01324   0.01322   1.09294
   D72        3.12307  -0.00153   0.00000  -0.00815  -0.00801   3.11506
   D73        1.04715   0.00012   0.00000   0.00084   0.00053   1.04768
   D74       -1.02977   0.00046   0.00000   0.00559   0.00563  -1.02414
   D75        1.06791  -0.00044   0.00000   0.00100   0.00118   1.06909
   D76       -1.00801   0.00120   0.00000   0.00999   0.00973  -0.99828
   D77       -3.08492   0.00155   0.00000   0.01474   0.01482  -3.07010
   D78       -1.17217   0.00378   0.00000   0.00000   0.00001  -1.17216
   D79        3.06544  -0.00002   0.00000  -0.01817  -0.01800   3.04744
   D80        1.01529  -0.00097   0.00000  -0.03716  -0.03741   0.97788
   D81        0.08544   0.00294   0.00000   0.00423   0.00423   0.08967
   D82       -2.94350  -0.00232   0.00000   0.00466   0.00459  -2.93891
         Item               Value     Threshold  Converged?
 Maximum Force            0.037399     0.000450     NO 
 RMS     Force            0.006910     0.000300     NO 
 Maximum Displacement     0.285596     0.001800     NO 
 RMS     Displacement     0.054116     0.001200     NO 
 Predicted change in Energy=-1.329307D-02
 GradGradGradGradGradGradGradGradGradGradGradGradGradGradGradGradGradGrad

                          Input orientation:                          
 ---------------------------------------------------------------------
 Center     Atomic      Atomic             Coordinates (Angstroms)
 Number     Number       Type             X           Y           Z
 ---------------------------------------------------------------------
      1          8           0       -3.467373   -1.445649   -0.186013
      2          7           0       -3.125202   -0.269724    0.008389
      3          8           0       -3.885979    0.680228    0.248529
      4          6           0       -1.685436   -0.001569   -0.036509
      5          6           0       -1.321737    1.274740    0.261196
      6          7           0       -0.067698    1.760330    0.347916
      7          6           0        1.194102    1.010864    0.346477
      8          1           0        1.815199    1.518418    1.103245
      9          6           0        1.953501    1.058481   -0.975331
     10          6           0        3.347085    0.451568   -0.776235
     11          6           0        3.264661   -0.962864   -0.190426
     12          6           0        2.415976   -1.000453    1.080688
     13          6           0        1.014959   -0.436259    0.811410
     14          1           0        0.427782   -0.449787    1.743021
     15          7           0        0.391495   -1.310993   -0.175708
     16          6           0       -0.841012   -1.096427   -0.484476
     17          1           0       -2.112409    1.989133    0.478207
     18          1           0        0.058377    2.755961    0.194720
     19          1           0        1.399011    0.495985   -1.734686
     20          1           0        2.032061    2.098120   -1.321606
     21          1           0        3.880017    0.434168   -1.733671
     22          1           0        3.923727    1.095304   -0.097067
     23          1           0        2.813022   -1.635162   -0.928256
     24          1           0        4.270915   -1.342285    0.024658
     25          1           0        2.323309   -2.030547    1.442698
     26          1           0        2.895792   -0.412991    1.874970
     27          1           0       -1.351147   -1.864580   -1.069129
 ---------------------------------------------------------------------
                    Distance matrix (angstroms):
                    1          2          3          4          5
     1  O    0.000000
     2  N    1.240030   0.000000
     3  O    2.209844   1.240507   0.000000
     4  C    2.298482   1.465213   2.321311   0.000000
     5  C    3.493461   2.387837   2.632289   1.360099   0.000000
     6  N    4.703315   3.685747   3.969354   2.422633   1.347565
     7  C    5.295975   4.517808   5.091771   3.076270   2.531076
     8  H    6.193016   5.366910   5.825507   3.982944   3.257114
     9  C    6.023252   5.340885   5.978331   3.904735   3.507556
    10  C    7.098214   6.559451   7.308875   5.106741   4.853017
    11  C    6.749325   6.430422   7.350108   5.044923   5.123074
    12  C    6.034610   5.691084   6.575090   4.366632   4.451805
    13  C    4.701598   4.220606   5.057922   2.863574   2.947949
    14  H    4.459276   3.957912   4.703081   2.798806   2.868905
    15  N    3.861230   3.672232   4.737270   2.459189   3.132421
    16  C    2.666235   2.478685   3.600781   1.453424   2.531710
    17  H    3.751646   2.519705   2.216199   2.100031   1.087480
    18  H    5.498127   4.395983   4.457523   3.270830   2.025623
    19  H    5.463517   4.908474   5.647850   3.556006   3.463015
    20  H    6.640154   5.828630   6.284818   4.458694   3.798839
    21  H    7.740355   7.252815   8.018750   5.834766   5.634207
    22  H    7.816183   7.180656   7.828361   5.715725   5.260745
    23  H    6.326942   6.164757   7.184878   4.868261   5.194088
    24  H    7.741845   7.473499   8.406878   6.105684   6.179201
    25  H    6.043741   5.902882   6.879651   4.730205   5.060358
    26  H    6.767858   6.305316   7.059239   4.981031   4.820814
    27  H    2.331053   2.617610   3.825918   2.156123   3.409686
                    6          7          8          9         10
     6  N    0.000000
     7  C    1.467596   0.000000
     8  H    2.043121   1.102756   0.000000
     9  C    2.515714   1.525166   2.133341   0.000000
    10  C    3.825875   2.491713   2.649016   1.532991   0.000000
    11  C    4.337075   2.910513   3.151394   2.533980   1.533162
    12  C    3.785170   2.465246   2.589624   2.946236   2.534461
    13  C    2.492384   1.530497   2.132209   2.511484   2.957645
    14  H    2.660158   2.161270   2.491600   3.462966   3.959978
    15  N    3.149297   2.511549   3.415878   2.948503   3.493246
    16  C    3.074403   3.045135   4.051386   3.562846   4.474547
    17  H    2.061594   3.450706   4.004791   4.417070   5.808942
    18  H    1.015207   2.087645   2.333100   2.800349   4.131414
    19  H    2.843771   2.153677   3.045067   1.095665   2.171542
    20  H    2.703773   2.160278   2.502596   1.098603   2.176661
    21  H    4.655766   3.445828   3.672487   2.162477   1.095902
    22  H    4.070841   2.766716   2.462857   2.157428   1.099173
    23  H    4.632119   3.353700   3.881715   2.827845   2.159346
    24  H    5.343620   3.886857   3.921417   3.483398   2.170898
    25  H    4.613698   3.424470   3.601188   3.940269   3.483199
    26  H    3.979635   2.694328   2.343839   3.343256   2.824893
    27  H    4.098199   4.092727   5.117581   4.412911   5.246305
                   11         12         13         14         15
    11  C    0.000000
    12  C    1.528859   0.000000
    13  C    2.518362   1.534168   0.000000
    14  H    3.471218   2.166757   1.101299   0.000000
    15  N    2.894218   2.402808   1.458859   2.103453   0.000000
    16  C    4.118356   3.614819   2.357917   2.643809   1.288585
    17  H    6.170433   5.459567   3.971647   3.741745   4.193802
    18  H    4.925268   4.522594   3.389045   3.579179   4.097353
    19  H    2.827301   3.346621   2.738463   3.732589   2.590496
    20  H    3.488338   3.939487   3.465160   4.296218   3.953049
    21  H    2.170707   3.481690   3.929839   4.978624   4.200312
    22  H    2.163132   2.837713   3.410564   4.242036   4.274706
    23  H    1.095608   2.143911   2.774317   3.772295   2.556405
    24  H    1.096707   2.161677   3.470030   4.303370   3.884716
    25  H    2.166376   1.095779   2.156863   2.486367   2.620859
    26  H    2.168937   1.098280   2.160840   2.471808   3.359046
    27  H    4.784443   4.422629   3.342901   3.615856   2.035058
                   16         17         18         19         20
    16  C    0.000000
    17  H    3.473311   0.000000
    18  H    4.013864   2.319634   0.000000
    19  H    3.019355   4.410947   3.259969   0.000000
    20  H    4.377267   4.519716   2.574379   1.771503   0.000000
    21  H    5.117746   6.574152   4.869737   2.481776   2.520610
    22  H    5.258946   6.129014   4.217091   3.068415   2.466483
    23  H    3.720099   6.274832   5.303876   2.681705   3.834321
    24  H    5.143098   7.214629   5.879627   3.836972   4.319871
    25  H    3.820930   6.063304   5.440407   4.163347   4.977157
    26  H    4.471887   5.727409   4.573447   4.012008   4.155696
    27  H    1.091840   4.221951   4.993343   3.684915   5.216592
                   21         22         23         24         25
    21  H    0.000000
    22  H    1.765640   0.000000
    23  H    2.463595   3.062676   0.000000
    24  H    2.529883   2.465197   1.766146   0.000000
    25  H    4.311320   3.834470   2.453074   2.505536   0.000000
    26  H    3.835188   2.687106   3.059188   2.485600   1.769486
    27  H    5.752472   6.126183   4.172862   5.751238   4.454037
                   26         27
    26  H    0.000000
    27  H    5.367618   0.000000
 Symmetry turned off by external request.
 Stoichiometry    C9H13N3O2
 Framework group  C1[X(C9H13N3O2)]
 Deg. of freedom    75
 Full point group                 C1      NOp   1
 Rotational constants (GHZ):           1.6936393           0.4217500           0.3720871
 Standard basis: 6-31G(d) (6D, 7F)
   236 basis functions,   444 primitive gaussians,   236 cartesian basis functions
    52 alpha electrons       52 beta electrons
       nuclear repulsion energy       932.3253533641 Hartrees.
 NAtoms=   27 NActive=   27 NUniq=   27 SFac= 1.00D+00 NAtFMM=   60 NAOKFM=F Big=F
 Integral buffers will be    131072 words long.
 Raffenetti 1 integral format.
 Two-electron integral symmetry is turned off.
 One-electron integrals computed using PRISM.
 NBasis=   236 RedAO= T EigKep=  1.01D-03  NBF=   236
 NBsUse=   236 1.00D-06 EigRej= -1.00D+00 NBFU=   236
 Initial guess from the checkpoint file:  "/home/alexey/tmp/Gau-1616508.chk"
 B after Tr=     0.055452    0.004654    0.000659
         Rot=    0.999999   -0.001126   -0.000080    0.000820 Ang=  -0.16 deg.
 ExpMin= 1.61D-01 ExpMax= 5.48D+03 ExpMxC= 8.25D+02 IAcc=3 IRadAn=         5 AccDes= 0.00D+00
 Harris functional with IExCor=  205 and IRadAn=       5 diagonalized for initial guess.
 HarFok:  IExCor=  205 AccDes= 0.00D+00 IRadAn=         5 IDoV= 1 UseB2=F ITyADJ=14
 ICtDFT=  3500011 ScaDFX=  1.000000  1.000000  1.000000  1.000000
 FoFCou: FMM=F IPFlag=           0 FMFlag=      100000 FMFlg1=           0
         NFxFlg=           0 DoJE=T BraDBF=F KetDBF=T FulRan=T
         wScrn=  0.000000 ICntrl=       500 IOpCl=  0 I1Cent=   200000004 NGrid=           0
         NMat0=    1 NMatS0=      1 NMatT0=    0 NMatD0=    1 NMtDS0=    0 NMtDT0=    0
 Symmetry not used in FoFCou.
 Keep R1 ints in memory in canonical form, NReq=397720213.
 Requested convergence on RMS density matrix=1.00D-08 within 128 cycles.
 Requested convergence on MAX density matrix=1.00D-06.
 Requested convergence on             energy=1.00D-06.
 No special actions if energy rises.
 SCF Done:  E(RHF) =  -661.296459031     A.U. after   15 cycles
            NFock= 15  Conv=0.39D-08     -V/T= 2.0024
 ExpMin= 1.61D-01 ExpMax= 5.48D+03 ExpMxC= 8.25D+02 IAcc=3 IRadAn=         5 AccDes= 0.00D+00
 HarFok:  IExCor=  205 AccDes= 0.00D+00 IRadAn=         5 IDoV=-2 UseB2=F ITyADJ=14
 ICtDFT= 12500011 ScaDFX=  1.000000  1.000000  1.000000  1.000000
 Range of M.O.s used for correlation:    15   236
 NBasis=   236 NAE=    52 NBE=    52 NFC=    14 NFV=     0
 NROrb=    222 NOA=    38 NOB=    38 NVA=   184 NVB=   184
 Fully direct method using O(ONN) memory.
 JobTyp=1 Pass  1:  I=  15 to  52 NPSUse=  4 ParTrn=T ParDer=T DoDerP=T.
 Spin components of T(2) and E(2):
     alpha-alpha T2 =       0.9127382632D-01 E2=     -0.2723732158D+00
     alpha-beta  T2 =       0.4915507343D+00 E2=     -0.1488324279D+01
     beta-beta   T2 =       0.9127382632D-01 E2=     -0.2723732158D+00
 ANorm=    0.1293869540D+01
 E2 =    -0.2033070710D+01 EUMP2 =    -0.66332952974117D+03
          IDoAtm=111111111111111111111111111
          Differentiating once with respect to electric field.
                with respect to dipole field.
          Differentiating once with respect to nuclear coordinates.
 Keep R1 ints in memory in canonical form, NReq=397723379.
          There are     1 degrees of freedom in the 1st order CPHF.  IDoFFX=0 NUNeed=     1.
 LinEq1:  Iter=  0 NonCon=     1 RMS=4.57D-03 Max=1.06D-01 NDo=     1
 AX will form     1 AO Fock derivatives at one time.
 LinEq1:  Iter=  1 NonCon=     1 RMS=1.53D-03 Max=2.80D-02 NDo=     1
 LinEq1:  Iter=  2 NonCon=     1 RMS=6.41D-04 Max=1.79D-02 NDo=     1
 LinEq1:  Iter=  3 NonCon=     1 RMS=2.80D-04 Max=8.14D-03 NDo=     1
 LinEq1:  Iter=  4 NonCon=     1 RMS=8.70D-05 Max=1.91D-03 NDo=     1
[...]
    18  H    4.073261   2.234217   0.000000
    19  H    2.991419   4.346756   3.509990   0.000000
    20  H    4.371753   4.490935   2.882078   1.768678   0.000000
    21  H    5.098651   6.541824   5.086187   2.499291   2.521304
    22  H    5.246654   6.109982   4.313793   3.070348   2.461765
    23  H    3.699966   6.245946   5.418912   2.703661   3.842728
    24  H    5.135858   7.199977   5.935663   3.849411   4.317314
    25  H    3.820205   6.060455   5.368021   4.171009   4.985451
    26  H    4.490758   5.751816   4.485651   4.036856   4.184076
    27  H    1.089922   4.220624   5.083466   3.645167   5.198894
                   21         22         23         24         25
    21  H    0.000000
    22  H    1.758815   0.000000
    23  H    2.469205   3.062250   0.000000
    24  H    2.517237   2.460036   1.764591   0.000000
    25  H    4.312048   3.840395   2.443573   2.519862   0.000000
    26  H    3.847815   2.706157   3.060413   2.491786   1.767897
    27  H    5.709603   6.094849   4.126835   5.719167   4.436120
                   26         27
    26  H    0.000000
    27  H    5.370374   0.000000
 Symmetry turned off by external request.
 Stoichiometry    C9H13N3O2
 Framework group  C1[X(C9H13N3O2)]
 Deg. of freedom    75
 Full point group                 C1      NOp   1
 Rotational constants (GHZ):           1.6885741           0.4187396           0.3716364

 **********************************************************************

            Population analysis using the SCF Density.

 **********************************************************************

 Alpha  occ. eigenvalues --  -20.59261 -20.58924 -15.84761 -15.64142 -15.56120
 Alpha  occ. eigenvalues --  -11.35051 -11.29641 -11.29503 -11.28595 -11.27109
 Alpha  occ. eigenvalues --  -11.23719 -11.23207 -11.22689 -11.22090  -1.57153
 Alpha  occ. eigenvalues --   -1.36741  -1.30954  -1.23080  -1.14703  -1.09811
 Alpha  occ. eigenvalues --   -1.02801  -1.01291  -0.94457  -0.89683  -0.85567
 Alpha  occ. eigenvalues --   -0.82425  -0.78594  -0.77404  -0.75180  -0.72025
 Alpha  occ. eigenvalues --   -0.69748  -0.69516  -0.67836  -0.64839  -0.63787
 Alpha  occ. eigenvalues --   -0.62377  -0.60257  -0.57671  -0.56943  -0.55044
 Alpha  occ. eigenvalues --   -0.54646  -0.50726  -0.50085  -0.48682  -0.48092
 Alpha  occ. eigenvalues --   -0.47384  -0.46191  -0.45997  -0.43706  -0.41756
 Alpha  occ. eigenvalues --   -0.39881  -0.33791
 Alpha virt. eigenvalues --    0.07435   0.11752   0.17327   0.21846   0.24137
 Alpha virt. eigenvalues --    0.25669   0.27096   0.28503   0.29071   0.29569
 Alpha virt. eigenvalues --    0.30744   0.31773   0.32076   0.32762   0.33947
 Alpha virt. eigenvalues --    0.34366   0.35924   0.37301   0.38592   0.40253
 Alpha virt. eigenvalues --    0.41421   0.42594   0.45112   0.46146   0.46717
 Alpha virt. eigenvalues --    0.47034   0.48973   0.53930   0.57588   0.59313
 Alpha virt. eigenvalues --    0.63899   0.69536   0.69987   0.72850   0.74201
 Alpha virt. eigenvalues --    0.75027   0.75791   0.76741   0.78529   0.79528
 Alpha virt. eigenvalues --    0.81324   0.84779   0.85651   0.85830   0.88494
 Alpha virt. eigenvalues --    0.89406   0.90748   0.91838   0.92659   0.94494
 Alpha virt. eigenvalues --    0.95907   0.98215   0.99527   1.01682   1.02507
 Alpha virt. eigenvalues --    1.03055   1.05867   1.06901   1.07956   1.08997
 Alpha virt. eigenvalues --    1.10140   1.11763   1.12058   1.12446   1.13938
 Alpha virt. eigenvalues --    1.14734   1.14933   1.15860   1.16755   1.18712
 Alpha virt. eigenvalues --    1.19355   1.21159   1.22472   1.23791   1.24712
 Alpha virt. eigenvalues --    1.25031   1.26142   1.26826   1.27463   1.29600
 Alpha virt. eigenvalues --    1.29811   1.33062   1.36039   1.37088   1.40828
 Alpha virt. eigenvalues --    1.41576   1.46250   1.48453   1.50487   1.53792
 Alpha virt. eigenvalues --    1.56518   1.58860   1.59845   1.63224   1.66413
 Alpha virt. eigenvalues --    1.68263   1.69548   1.73285   1.74981   1.76276
 Alpha virt. eigenvalues --    1.81592   1.84362   1.87173   1.91168   1.94099
 Alpha virt. eigenvalues --    1.95587   1.97011   1.99562   2.01393   2.02720
 Alpha virt. eigenvalues --    2.05229   2.05499   2.08665   2.09978   2.12358
 Alpha virt. eigenvalues --    2.13523   2.15229   2.18302   2.20019   2.22317
 Alpha virt. eigenvalues --    2.22379   2.24623   2.25850   2.28277   2.29722
 Alpha virt. eigenvalues --    2.31951   2.33861   2.34921   2.36338   2.39256
 Alpha virt. eigenvalues --    2.40310   2.41820   2.43482   2.45077   2.47643
 Alpha virt. eigenvalues --    2.50544   2.51833   2.53121   2.55257   2.61945
 Alpha virt. eigenvalues --    2.62358   2.65020   2.67853   2.70539   2.71234
 Alpha virt. eigenvalues --    2.72317   2.73069   2.77129   2.78626   2.83910
 Alpha virt. eigenvalues --    2.88318   2.88661   2.92728   2.93267   2.96230
 Alpha virt. eigenvalues --    2.99363   3.01424   3.04119   3.05256   3.07756
 Alpha virt. eigenvalues --    3.09284   3.14738   3.21284   3.25340   3.27328
 Alpha virt. eigenvalues --    3.33462   3.37582   3.38983   3.51978   3.65138
 Alpha virt. eigenvalues --    4.13734   4.28056   4.34200   4.38431   4.46025
 Alpha virt. eigenvalues --    4.56521   4.62029   4.62265   4.73461   4.79579
 Alpha virt. eigenvalues --    4.99101   5.00906   5.04420   5.11682
          Condensed to atoms (all electrons):
               1          2          3          4          5          6
     1  O    8.316172   0.306181  -0.082274  -0.084153   0.004636  -0.000016
     2  N    0.306181   5.727946   0.300020   0.262005  -0.052071   0.001036
     3  O   -0.082274   0.300020   8.352932  -0.091641   0.003386   0.000777
     4  C   -0.084153   0.262005  -0.091641   5.224405   0.554513  -0.046672
     5  C    0.004636  -0.052071   0.003386   0.554513   4.712535   0.317125
     6  N   -0.000016   0.001036   0.000777  -0.046672   0.317125   7.196151
     7  C    0.000003  -0.000132   0.000002   0.004189  -0.030087   0.168328
     8  H   -0.000000   0.000002  -0.000000  -0.000277   0.003014  -0.051100
     9  C   -0.000000  -0.000003  -0.000000   0.000943   0.000621  -0.060476
    10  C    0.000000   0.000000   0.000000  -0.000039  -0.000051   0.003718
    11  C   -0.000000  -0.000000  -0.000000  -0.000028   0.000025  -0.000193
    12  C   -0.000000   0.000002  -0.000000  -0.000086  -0.000166   0.003908
    13  C   -0.000025  -0.000046  -0.000004  -0.012262  -0.000541  -0.047720
    14  H   -0.000005  -0.000123   0.000000   0.002948   0.006666  -0.007405
    15  N    0.000335   0.002358  -0.000016  -0.064710  -0.005850   0.001622
    16  C   -0.000749  -0.027215   0.002548   0.329283  -0.049673  -0.002406
    17  H    0.000213  -0.007353   0.017164  -0.023436   0.375147  -0.034710
    18  H    0.000001  -0.000050   0.000011   0.001560  -0.031548   0.338393
    19  H    0.000000  -0.000004   0.000000  -0.001204   0.001130  -0.000218
    20  H    0.000000  -0.000000   0.000000  -0.000075   0.000157  -0.000563
    21  H   -0.000000   0.000000   0.000000   0.000001   0.000001  -0.000075
    22  H   -0.000000   0.000000  -0.000000   0.000000  -0.000003  -0.000117
    23  H    0.000000  -0.000000   0.000000   0.000039  -0.000000  -0.000030
    24  H    0.000000   0.000000   0.000000   0.000000  -0.000000   0.000006
    25  H    0.000000  -0.000000   0.000000   0.000022   0.000000  -0.000092
    26  H    0.000000  -0.000000   0.000000   0.000007  -0.000002  -0.000058
    27  H    0.007502  -0.001205   0.000043  -0.062098   0.002379  -0.000002
               7          8          9         10         11         12
     1  O    0.000003  -0.000000  -0.000000   0.000000  -0.000000  -0.000000
     2  N   -0.000132   0.000002  -0.000003   0.000000  -0.000000   0.000002
     3  O    0.000002  -0.000000  -0.000000   0.000000  -0.000000  -0.000000
     4  C    0.004189  -0.000277   0.000943  -0.000039  -0.000028  -0.000086
     5  C   -0.030087   0.003014   0.000621  -0.000051   0.000025  -0.000166
     6  N    0.168328  -0.051100  -0.060476   0.003718  -0.000193   0.003908
     7  C    5.016265   0.418159   0.349976  -0.054818  -0.009017  -0.060719
     8  H    0.418159   0.539144  -0.055324   0.000862  -0.000337  -0.002266
     9  C    0.349976  -0.055324   5.158282   0.324430  -0.050329  -0.005387
    10  C   -0.054818   0.000862   0.324430   5.120074   0.336891  -0.060833
    11  C   -0.009017  -0.000337  -0.050329   0.336891   5.119867   0.336162
    12  C   -0.060719  -0.002266  -0.005387  -0.060833   0.336162   5.117848
    13  C    0.340385  -0.038076  -0.059993  -0.000354  -0.050998   0.371426
    14  H   -0.046715  -0.000643   0.004410  -0.000402   0.004175  -0.036040
    15  N   -0.057741   0.003910  -0.014635   0.001583  -0.012937  -0.081977
    16  C   -0.001951   0.000026  -0.001507  -0.000009   0.000013   0.002823
    17  H    0.001628  -0.000041  -0.000074   0.000001   0.000000   0.000000
    18  H   -0.021175  -0.004374   0.001277  -0.000084   0.000004  -0.000116
    19  H   -0.037046   0.004394   0.389924  -0.031968  -0.002228   0.000678
    20  H   -0.042264  -0.002066   0.399485  -0.035354   0.003928  -0.000411
    21  H    0.004606  -0.000078  -0.036339   0.402453  -0.034874   0.004336
    22  H   -0.004857   0.003559  -0.046880   0.397692  -0.045412  -0.001018
    23  H    0.000570   0.000034  -0.001936  -0.039059   0.399204  -0.037881
    24  H   -0.000128  -0.000101   0.004379  -0.038430   0.402321  -0.038673
    25  H    0.005164  -0.000026  -0.000423   0.004184  -0.033412   0.398351
    26  H   -0.004027   0.001707   0.000980  -0.002228  -0.041406   0.396717
    27  H   -0.000357   0.000009  -0.000070   0.000007   0.000009  -0.000036
              13         14         15         16         17         18
     1  O   -0.000025  -0.000005   0.000335  -0.000749   0.000213   0.000001
     2  N   -0.000046  -0.000123   0.002358  -0.027215  -0.007353  -0.000050
     3  O   -0.000004   0.000000  -0.000016   0.002548   0.017164   0.000011
     4  C   -0.012262   0.002948  -0.064710   0.329283  -0.023436   0.001560
     5  C   -0.000541   0.006666  -0.005850  -0.049673   0.375147  -0.031548
     6  N   -0.047720  -0.007405   0.001622  -0.002406  -0.034710   0.338393
     7  C    0.340385  -0.046715  -0.057741  -0.001951   0.001628  -0.021175
     8  H   -0.038076  -0.000643   0.003910   0.000026  -0.000041  -0.004374
     9  C   -0.059993   0.004410  -0.014635  -0.001507  -0.000074   0.001277
    10  C   -0.000354  -0.000402   0.001583  -0.000009   0.000001  -0.000084
    11  C   -0.050998   0.004175  -0.012937   0.000013   0.000000   0.000004
    12  C    0.371426  -0.036040  -0.081977   0.002823   0.000000  -0.000116
    13  C    5.040153   0.402825   0.247532  -0.071716   0.000006   0.002991
    14  H    0.402825   0.527346  -0.037954  -0.005106   0.000113  -0.000113
    15  N    0.247532  -0.037954   6.961548   0.581760  -0.000092  -0.000129
    16  C   -0.071716  -0.005106   0.581760   4.728740   0.002137  -0.000194
    17  H    0.000006   0.000113  -0.000092   0.002137   0.378047  -0.002855
    18  H    0.002991  -0.000113  -0.000129  -0.000194  -0.002855   0.311348
    19  H   -0.007409   0.000117   0.007858   0.003208   0.000016  -0.000148
    20  H    0.004325  -0.000065   0.000124  -0.000032   0.000003   0.000809
    21  H   -0.000427   0.000010  -0.000040   0.000003  -0.000000   0.000001
    22  H    0.000053  -0.000055   0.000018  -0.000002   0.000000   0.000001
    23  H   -0.007498   0.000003   0.008570   0.000079   0.000000   0.000000
    24  H    0.004702  -0.000056   0.000136   0.000007   0.000000  -0.000000
    25  H   -0.035592  -0.002813   0.000353  -0.000008  -0.000000   0.000002
    26  H   -0.047303  -0.001013   0.004883  -0.000071   0.000000  -0.000000
    27  H    0.004904  -0.000180  -0.039918   0.401814  -0.000074   0.000001
              19         20         21         22         23         24
     1  O    0.000000   0.000000  -0.000000  -0.000000   0.000000   0.000000
     2  N   -0.000004  -0.000000   0.000000   0.000000  -0.000000   0.000000
     3  O    0.000000   0.000000   0.000000  -0.000000   0.000000   0.000000
     4  C   -0.001204  -0.000075   0.000001   0.000000   0.000039   0.000000
     5  C    0.001130   0.000157   0.000001  -0.000003  -0.000000  -0.000000
     6  N   -0.000218  -0.000563  -0.000075  -0.000117  -0.000030   0.000006
     7  C   -0.037046  -0.042264   0.004606  -0.004857   0.000570  -0.000128
     8  H    0.004394  -0.002066  -0.000078   0.003559   0.000034  -0.000101
     9  C    0.389924   0.399485  -0.036339  -0.046880  -0.001936   0.004379
    10  C   -0.031968  -0.035354   0.402453   0.397692  -0.039059  -0.038430
    11  C   -0.002228   0.003928  -0.034874  -0.045412   0.399204   0.402321
    12  C    0.000678  -0.000411   0.004336  -0.001018  -0.037881  -0.038673
    13  C   -0.007409   0.004325  -0.000427   0.000053  -0.007498   0.004702
    14  H    0.000117  -0.000065   0.000010  -0.000055   0.000003  -0.000056
    15  N    0.007858   0.000124  -0.000040   0.000018   0.008570   0.000136
    16  C    0.003208  -0.000032   0.000003  -0.000002   0.000079   0.000007
    17  H    0.000016   0.000003  -0.000000   0.000000   0.000000   0.000000
    18  H   -0.000148   0.000809   0.000001   0.000001   0.000000  -0.000000
    19  H    0.504442  -0.024650  -0.002789   0.003950   0.001511  -0.000065
    20  H   -0.024650   0.541097  -0.002678  -0.002985  -0.000045  -0.000083
    21  H   -0.002789  -0.002678   0.523873  -0.027389  -0.002898  -0.002240
    22  H    0.003950  -0.002985  -0.027389   0.571283   0.004137  -0.003655
    23  H    0.001511  -0.000045  -0.002898   0.004137   0.499030  -0.025443
    24  H   -0.000065  -0.000083  -0.002240  -0.003655  -0.025443   0.538095
    25  H   -0.000029   0.000012  -0.000086  -0.000080  -0.002331  -0.002287
    26  H    0.000020  -0.000030  -0.000081   0.002372   0.004065  -0.003033
    27  H    0.000098   0.000000  -0.000000   0.000000  -0.000033  -0.000000
              25         26         27
     1  O    0.000000   0.000000   0.007502
     2  N   -0.000000  -0.000000  -0.001205
     3  O    0.000000   0.000000   0.000043
     4  C    0.000022   0.000007  -0.062098
     5  C    0.000000  -0.000002   0.002379
     6  N   -0.000092  -0.000058  -0.000002
     7  C    0.005164  -0.004027  -0.000357
     8  H   -0.000026   0.001707   0.000009
     9  C   -0.000423   0.000980  -0.000070
    10  C    0.004184  -0.002228   0.000007
    11  C   -0.033412  -0.041406   0.000009
    12  C    0.398351   0.396717  -0.000036
    13  C   -0.035592  -0.047303   0.004904
    14  H   -0.002813  -0.001013  -0.000180
    15  N    0.000353   0.004883  -0.039918
    16  C   -0.000008  -0.000071   0.401814
    17  H   -0.000000   0.000000  -0.000074
    18  H    0.000002  -0.000000   0.000001
    19  H   -0.000029   0.000020   0.000098
    20  H    0.000012  -0.000030   0.000000
    21  H   -0.000086  -0.000081  -0.000000
    22  H   -0.000080   0.002372   0.000000
    23  H   -0.002331   0.004065  -0.000033
    24  H   -0.002287  -0.003033  -0.000000
    25  H    0.506206  -0.024126  -0.000012
    26  H   -0.024126   0.562221   0.000001
    27  H   -0.000012   0.000001   0.433949
 Mulliken charges:
               1
     1  O   -0.467822
     2  N    0.488652
     3  O   -0.502949
     4  C    0.006766
     5  C    0.188657
     6  N   -0.779210
     7  C    0.061759
     8  H    0.179888
     9  C   -0.301331
    10  C   -0.328268
    11  C   -0.321426
    12  C   -0.306641
    13  C   -0.039336
    14  H    0.190074
    15  N   -0.506592
    16  C    0.108199
    17  H    0.294159
    18  H    0.404388
    19  H    0.190414
    20  H    0.161360
    21  H    0.174712
    22  H    0.149388
    23  H    0.199910
    24  H    0.164551
    25  H    0.187023
    26  H    0.150405
    27  H    0.253271
 Sum of Mulliken charges =  -0.00000
 Mulliken charges with hydrogens summed into heavy atoms:
               1
     1  O   -0.467822
     2  N    0.488652
     3  O   -0.502949
     4  C    0.006766
     5  C    0.482816
     6  N   -0.374822
     7  C    0.241647
     9  C    0.050443
    10  C   -0.004169
    11  C    0.043035
    12  C    0.030787
    13  C    0.150737
    15  N   -0.506592
    16  C    0.361469
 Electronic spatial extent (au):  <R**2>=           3007.4918
 Charge=              0.0000 electrons
 Dipole moment (field-independent basis, Debye):
    X=              5.3911    Y=              4.8109    Z=              1.2034  Tot=              7.3251
 Quadrupole moment (field-independent basis, Debye-Ang):
   XX=           -106.0958   YY=            -79.0823   ZZ=            -81.6679
   XY=             -1.8727   XZ=              0.3528   YZ=              1.6158
 Traceless Quadrupole moment (field-independent basis, Debye-Ang):
   XX=            -17.1471   YY=              9.8664   ZZ=              7.2807
   XY=             -1.8727   XZ=              0.3528   YZ=              1.6158
 Octapole moment (field-independent basis, Debye-Ang**2):
  XXX=             92.3442  YYY=             35.9892  ZZZ=             -1.2562  XYY=             -4.9740
  XXY=             10.0864  XXZ=              2.6108  XZZ=             -9.6399  YZZ=             -0.3253
  YYZ=              7.9953  XYZ=              0.6504
 Hexadecapole moment (field-independent basis, Debye-Ang**3):
 XXXX=          -3389.3595 YYYY=           -598.4634 ZZZZ=           -301.9776 XXXY=            -27.5930
 XXXZ=              4.9173 YYYX=            -12.9870 YYYZ=             23.3231 ZZZX=             10.7129
 ZZZY=              6.1001 XXYY=           -627.4663 XXZZ=           -524.9917 YYZZ=           -157.2540
 XXYZ=             -6.6101 YYXZ=              4.9429 ZZXY=              3.3699
 N-N= 9.313077095936D+02 E-N=-3.409331374660D+03  KE= 6.596302038583D+02
 Unable to Open any file for archive entry.
 1\1\GINC-LOTUS\FOpt\RMP2-FC\6-31G(d)\C9H13N3O2\ALEXEY\03-Jul-2023\0\\#
 MP2/6-31G* SCF=Tight Opt=(ModRedun, MaxCycle=20 ) NoSymm\\MolName:\\0,
 1\O,-3.5077357464,-1.396469472,-0.3658424693\N,-3.1232614718,-0.245449
 1567,-0.0819004807\O,-3.8990173183,0.7013935027,0.15233373\C,-1.688748
 9544,-0.0278916589,-0.0017614108\C,-1.3037281791,1.2595743448,0.273954
 7154\N,-0.0582902358,1.7545777057,0.3489738165\C,1.2072295339,1.028150
 1715,0.3390239121\H,1.8438946572,1.5553347531,1.0658964714\C,1.9325425
 317,1.0408176306,-1.004520278\C,3.3260750419,0.4295529629,-0.817171708
 3\C,3.2626649477,-0.9678050127,-0.1944659382\C,2.4447518991,-0.9793598
 937,1.0989013435\C,1.0415933621,-0.419661172,0.8393306708\H,0.44724343
 92,-0.3986132967,1.7668366051\N,0.4073457913,-1.3094140159,-0.12839926
 64\C,-0.8351082034,-1.1152694024,-0.4373167203\H,-2.0971166823,1.98324
 81398,0.4400705534\H,0.0005240355,2.7400851504,0.5772852843\H,1.349113
 0505,0.4664874482,-1.7318470751\H,2.0081193391,2.069378143,-1.37875294
 21\H,3.8468055263,0.3917107528,-1.780797516\H,3.9168194932,1.092596248
 1,-0.169187185\H,2.7949381858,-1.6613707037,-0.9002279243\H,4.27741968
 86,-1.3350130089,-0.000495176\H,2.3490510847,-2.0021432941,1.478028986
 2\H,2.9431659378,-0.3857457923,1.8777098933\H,-1.3232907538,-1.9046910
 736,-1.0086498914\\Version=ES64L-G16RevC.02\HF=-661.2992526\MP2=-663.3
 339029\RMSD=8.260e-09\RMSF=1.743e-03\Dipole=1.9665815,1.6938573,0.4508
 594\PG=C01 [X(C9H13N3O2)]\\@
 The archive entry for this job was punched.


 WE SHOULD BE CAREFUL TO GET OUT OF AN EXPERIENCE ONLY THE WISDOM
 THAT IS IN IT -- AND STOP THERE;
 LEST WE BE LIKE THE CAT THAT SITS DOWN ON A HOT STOVE-LID.
 SHE WILL NEVER SIT DOWN ON A HOT STOVE LID AGAIN;
 BUT ALSO SHE WILL NEVER SIT DOWN ON A COLD ONE ANY MORE.

                                                     -- MARK TWAIN
 Job cpu time:       0 days  1 hours  0 minutes 11.6 seconds.
 Elapsed time:       0 days  0 hours 18 minutes  3.1 seconds.
 File lengths (MBytes):  RWF=     36 Int=      0 D2E=      0 Chk=      7 Scr=      1
 Normal termination of Gaussian 16 at Mon Jul  3 02:07:35 2023.
