 Entering Gaussian System, Link 0=g16
 Initial command:
 /home/alexey/programs//g16/l1.exe "/home/alexey/tmp/Gau-1608040.inp" -scrdir="/home/alexey/tmp/"
 Entering Link 1 = /home/alexey/programs//g16/l1.exe PID=   1608042.
  
 Copyright (c) 1988-2021, Gaussian, Inc.  All Rights Reserved.
  
 This is part of the Gaussian(R) 16 program.  It is based on
 the Gaussian(R) 09 system (copyright 2009, Gaussian, Inc.),
 the Gaussian(R) 03 system (copyright 2003, Gaussian, Inc.),
 the Gaussian(R) 98 system (copyright 1998, Gaussian, Inc.),
 the Gaussian(R) 94 system (copyright 1995, Gaussian, Inc.),
 the Gaussian 92(TM) system (copyright 1992, Gaussian, Inc.),
 the Gaussian 90(TM) system (copyright 1990, Gaussian, Inc.),
 the Gaussian 88(TM) system (copyright 1988, Gaussian, Inc.),
 the Gaussian 86(TM) system (copyright 1986, Carnegie Mellon
 University), and the Gaussian 82(TM) system (copyright 1983,
 Carnegie Mellon University). Gaussian is a federally registered
 trademark of Gaussian, Inc.
  
 This software contains proprietary and confidential information,
 including trade secrets, belonging to Gaussian, Inc.
  
 This software is provided under written license and may be
 used, copied, transmitted, or stored only in accord with that
 written license.
  
 The following legend is applicable only to US Government
 contracts under FAR:
  
                    RESTRICTED RIGHTS LEGEND
  
 Use, reproduction and disclosure by the US Government is
 subject to restrictions as set forth in subparagraphs (a)
 and (c) of the Commercial Computer Software - Restricted
 Rights clause in FAR 52.227-19.
  
 Gaussian, Inc.
 340 Quinnipiac St., Bldg. 40, Wallingford CT 06492
  
  
 ---------------------------------------------------------------
 Warning -- This program may not be used in any manner that
 competes with the business of Gaussian, Inc. or will provide
 assistance to any competitor of Gaussian, Inc.  The licensee
 of this program is prohibited from giving any competitor of
 Gaussian, Inc. access to this program.  By using this program,
 the user acknowledges that Gaussian, Inc. is engaged in the
 business of creating and licensing software in the field of
 computational chemistry and represents and warrants to the
 licensee that it is not a competitor of Gaussian, Inc. and that
 it will not use this program in any manner prohibited above.
 ---------------------------------------------------------------
  

 Cite this work as:
 Gaussian 16, Revision C.02,
 M. J. Frisch, G. W. Trucks, H. B. Schlegel, G. E. Scuseria, 
 M. A. Robb, J. R. Cheeseman, G. Scalmani, V. Barone, 
 G. A. Petersson, H. Nakatsuji, X. Li, M. Caricato, A. V. Marenich, 
 J. Bloino, B. G. Janesko, R. Gomperts, B. Mennucci, H. P. Hratchian, 
 J. V. Ortiz, A. F. Izmaylov, J. L. Sonnenberg, D. Williams-Young, 
 F. Ding, F. Lipparini, F. Egidi, J. Goings, B. Peng, A. Petrone, 
 T. Henderson, D. Ranasinghe, V. G. Zakrzewski, J. Gao, N. Rega, 
 G. Zheng, W. Liang, M. Hada, M. Ehara, K. Toyota, R. Fukuda, 
 J. Hasegawa, M. Ishida, T. Nakajima, Y. Honda, O. Kitao, H. Nakai, 
 T. Vreven, K. Throssell, J. A. Montgomery, Jr., J. E. Peralta, 
 F. Ogliaro, M. J. Bearpark, J. J. Heyd, E. N. Brothers, K. N. Kudin, 
 V. N. Staroverov, T. A. Keith, R. Kobayashi, J. Normand, 
 K. Raghavachari, A. P. Rendell, J. C. Burant, S. S. Iyengar, 
 J. Tomasi, M. Cossi, J. M. Millam, M. Klene, C. Adamo, R. Cammi, 
 J. W. Ochterski, R. L. Martin, K. Morokuma, O. Farkas, 
 J. B. Foresman, and D. J. Fox, Gaussian, Inc., Wallingford CT, 2019.
 
 ******************************************
 Gaussian 16:  ES64L-G16RevC.02  7-Dec-2021
                 3-Jul-2023 
 ******************************************
 %mem=8GB
 %NPROCS=4
 Will use up to    4 processors via shared memory.
 %NoSave
 ---------------------------------------------------------
 #MP2/6-31G* SCF=Tight Opt=(ModRedun, MaxCycle=20 ) NoSymm
 ---------------------------------------------------------
 1/6=20,18=120,19=15,38=1/1,3;
 2/9=110,12=2,15=1,17=6,18=5,40=1/2;
 3/5=1,6=6,7=1,11=9,25=1,30=1,71=1/1,2,3;
 4//1;
 5/5=2,32=2,38=5/2;
 8/6=4,10=2/1;
 9/15=2,16=-3/6;
 10/5=1,31=1/2;
 6/7=2,8=2,9=2,10=2/1;
 7/12=2,30=1/1,2,3,16;
 1/6=20,18=20,19=15/3(2);
 2/9=110,15=1/2;
 99//99;
 2/9=110,15=1/2;
 3/5=1,6=6,7=1,11=9,25=1,30=1,71=1/1,2,3;
 4/5=5,16=3,69=1/1;
 5/5=2,32=2,38=5/2;
 8/6=4,10=2/1;
 9/15=2,16=-3/6;
 10/5=1,31=1/2;
 7/12=2,30=1/1,2,3,16;
 1/6=20,18=20,19=15/3(-8);
 2/9=110,15=1/2;
 6/7=2,8=2,9=2,10=2/1;
 99/9=10/99;
 --------
 MolName:
 --------
 Symbolic Z-matrix:
 Charge =  0 Multiplicity = 1
 8                    0    -3.62384  -1.43792  -0.20139 
 7                    0    -3.25958  -0.27399  -0.04296 
 8                    0    -4.03664   0.67146   0.09553 
 6                    0    -1.75721   0.00534  -0.03979 
 6                    0    -1.36834   1.31352   0.27059 
 7                    0    -0.08119   1.76438   0.40638 
 6                    0     1.19815   0.99346   0.36904 
 1                    0     1.86621   1.49159   1.11893 
 6                    0     1.95431   1.04605  -0.98205 
 6                    0     3.36812   0.46109  -0.80146 
 6                    0     3.31139  -0.9552   -0.20732 
 6                    0     2.47099  -0.99028   1.08739 
 6                    0     1.03212  -0.45599   0.84909 
 1                    0     0.48819  -0.49566   1.8219 
 7                    0     0.37127  -1.32621  -0.12609 
 6                    0    -0.87221  -1.12805  -0.41784 
 1                    0    -2.15631   2.05778   0.47309 
 1                    0     0.15229   2.74872   0.25521 
 1                    0     1.40079   0.46922  -1.75323 
 1                    0     2.03728   2.09632  -1.33379 
 1                    0     3.89692   0.43812  -1.77943 
 1                    0     3.94869   1.11527  -0.11325 
 1                    0     2.86045  -1.64471  -0.95631 
 1                    0     4.34106  -1.31797   0.00336 
 1                    0     2.4159   -2.03679   1.45955 
 1                    0     2.96906  -0.37893   1.86883 
 1                    0    -1.36686  -1.86762  -1.06597 
 
 The following ModRedundant input section has been read:
 D      16       4      15      27 F                                           
 D       1       2       4      16 F                                           
 D       7      13      15      16 F                                           
 D       7       9      10      11 F                                           
 D       9      10      11      12 F                                           
 D       6       7      13      15 F                                           
 

 GradGradGradGradGradGradGradGradGradGradGradGradGradGradGradGradGradGrad
 Berny optimization.
 Initialization pass.
                           ----------------------------
                           !    Initial Parameters    !
                           ! (Angstroms and Degrees)  !
 --------------------------                            --------------------------
 ! Name  Definition              Value          Derivative Info.                !
 --------------------------------------------------------------------------------
 ! R1    R(1,2)                  1.2298         estimate D2E/DX2                !
 ! R2    R(2,3)                  1.2316         estimate D2E/DX2                !
 ! R3    R(2,4)                  1.5281         estimate D2E/DX2                !
 ! R4    R(4,5)                  1.3996         estimate D2E/DX2                !
 ! R5    R(4,16)                 1.4868         estimate D2E/DX2                !
 ! R6    R(5,6)                  1.3706         estimate D2E/DX2                !
 ! R7    R(5,17)                 1.1026         estimate D2E/DX2                !
 ! R8    R(6,7)                  1.4941         estimate D2E/DX2                !
 ! R9    R(6,18)                 1.0229         estimate D2E/DX2                !
 ! R10   R(7,8)                  1.1211         estimate D2E/DX2                !
 ! R11   R(7,9)                  1.5492         estimate D2E/DX2                !
 ! R12   R(7,13)                 1.5359         estimate D2E/DX2                !
 ! R13   R(9,10)                 1.5407         estimate D2E/DX2                !
 ! R14   R(9,19)                 1.1108         estimate D2E/DX2                !
 ! R15   R(9,20)                 1.1107         estimate D2E/DX2                !
 ! R16   R(10,11)                1.5369         estimate D2E/DX2                !
 ! R17   R(10,21)                1.112          estimate D2E/DX2                !
 ! R18   R(10,22)                1.1129         estimate D2E/DX2                !
 ! R19   R(11,12)                1.5439         estimate D2E/DX2                !
 ! R20   R(11,23)                1.1134         estimate D2E/DX2                !
 ! R21   R(11,24)                1.1118         estimate D2E/DX2                !
 ! R22   R(12,13)                1.5533         estimate D2E/DX2                !
 ! R23   R(12,25)                1.1121         estimate D2E/DX2                !
 ! R24   R(12,26)                1.1102         estimate D2E/DX2                !
 ! R25   R(13,14)                1.1153         estimate D2E/DX2                !
 ! R26   R(13,15)                1.4646         estimate D2E/DX2                !
 ! R27   R(15,16)                1.2925         estimate D2E/DX2                !
 ! R28   R(16,27)                1.1008         estimate D2E/DX2                !
 ! A1    A(1,2,3)              123.6503         estimate D2E/DX2                !
 ! A2    A(1,2,4)              117.675          estimate D2E/DX2                !
 ! A3    A(3,2,4)              118.6685         estimate D2E/DX2                !
 ! A4    A(2,4,5)              116.3897         estimate D2E/DX2                !
 ! A5    A(2,4,16)             116.444          estimate D2E/DX2                !
 ! A6    A(5,4,16)             127.1204         estimate D2E/DX2                !
 ! A7    A(4,5,6)              126.1834         estimate D2E/DX2                !
 ! A8    A(4,5,17)             118.2332         estimate D2E/DX2                !
 ! A9    A(6,5,17)             115.5239         estimate D2E/DX2                !
 ! A10   A(5,6,7)              129.192          estimate D2E/DX2                !
 ! A11   A(5,6,18)             121.0833         estimate D2E/DX2                !
 ! A12   A(7,6,18)             107.3007         estimate D2E/DX2                !
 ! A13   A(6,7,8)              105.3237         estimate D2E/DX2                !
 ! A14   A(6,7,9)              114.9744         estimate D2E/DX2                !
 ! A15   A(6,7,13)             112.7406         estimate D2E/DX2                !
 ! A16   A(8,7,9)              106.1065         estimate D2E/DX2                !
 ! A17   A(8,7,13)             105.943          estimate D2E/DX2                !
 ! A18   A(9,7,13)             110.94           estimate D2E/DX2                !
 ! A19   A(7,9,10)             109.4385         estimate D2E/DX2                !
 ! A20   A(7,9,19)             110.1594         estimate D2E/DX2                !
 ! A21   A(7,9,20)             110.1663         estimate D2E/DX2                !
 ! A22   A(10,9,19)            109.9681         estimate D2E/DX2                !
 ! A23   A(10,9,20)            109.1226         estimate D2E/DX2                !
 ! A24   A(19,9,20)            107.9632         estimate D2E/DX2                !
 ! A25   A(9,10,11)            111.1814         estimate D2E/DX2                !
 ! A26   A(9,10,21)            109.946          estimate D2E/DX2                !
 ! A27   A(9,10,22)            109.148          estimate D2E/DX2                !
 ! A28   A(11,10,21)           109.7854         estimate D2E/DX2                !
 ! A29   A(11,10,22)           108.7758         estimate D2E/DX2                !
 ! A30   A(21,10,22)           107.9331         estimate D2E/DX2                !
 ! A31   A(10,11,12)           111.4202         estimate D2E/DX2                !
 ! A32   A(10,11,23)           108.9996         estimate D2E/DX2                !
 ! A33   A(10,11,24)           109.8609         estimate D2E/DX2                !
 ! A34   A(12,11,23)           109.2428         estimate D2E/DX2                !
 ! A35   A(12,11,24)           109.7414         estimate D2E/DX2                !
 ! A36   A(23,11,24)           107.4862         estimate D2E/DX2                !
 ! A37   A(11,12,13)           111.5779         estimate D2E/DX2                !
 ! A38   A(11,12,25)           109.2066         estimate D2E/DX2                !
 ! A39   A(11,12,26)           109.4842         estimate D2E/DX2                !
 ! A40   A(13,12,25)           109.2173         estimate D2E/DX2                !
 ! A41   A(13,12,26)           109.5222         estimate D2E/DX2                !
 ! A42   A(25,12,26)           107.7509         estimate D2E/DX2                !
 ! A43   A(7,13,12)            105.8093         estimate D2E/DX2                !
 ! A44   A(7,13,14)            111.0344         estimate D2E/DX2                !
 ! A45   A(7,13,15)            113.6661         estimate D2E/DX2                !
 ! A46   A(12,13,14)           107.8028         estimate D2E/DX2                !
 ! A47   A(12,13,15)           108.4068         estimate D2E/DX2                !
 ! A48   A(14,13,15)           109.8522         estimate D2E/DX2                !
 ! A49   A(13,15,16)           119.5577         estimate D2E/DX2                !
 ! A50   A(4,16,15)            129.2056         estimate D2E/DX2                !
 ! A51   A(4,16,27)            113.2274         estimate D2E/DX2                !
 ! A52   A(15,16,27)           117.5298         estimate D2E/DX2                !
 ! D1    D(1,2,4,5)           -174.0287         estimate D2E/DX2                !
 ! D2    D(1,2,4,16)             8.2582         Frozen                          !
 ! D3    D(3,2,4,5)              6.8438         estimate D2E/DX2                !
 ! D4    D(3,2,4,16)          -170.8694         estimate D2E/DX2                !
 ! D5    D(2,4,5,6)            175.9767         estimate D2E/DX2                !
 ! D6    D(2,4,5,17)            -1.0834         estimate D2E/DX2                !
 ! D7    D(16,4,5,6)            -6.5914         estimate D2E/DX2                !
 ! D8    D(16,4,5,17)          176.3484         estimate D2E/DX2                !
 ! D9    D(16,4,15,27)           1.3755         Frozen                          !
 ! D10   D(2,4,16,15)         -156.6105         estimate D2E/DX2                !
 ! D11   D(2,4,16,27)           25.6924         estimate D2E/DX2                !
 ! D12   D(5,4,16,15)           25.9589         estimate D2E/DX2                !
 ! D13   D(5,4,16,27)         -151.7382         estimate D2E/DX2                !
 ! D14   D(4,5,6,7)             -5.2072         estimate D2E/DX2                !
 ! D15   D(4,5,6,18)           154.7711         estimate D2E/DX2                !
 ! D16   D(17,5,6,7)           171.9227         estimate D2E/DX2                !
 ! D17   D(17,5,6,18)          -28.0991         estimate D2E/DX2                !
 ! D18   D(5,6,7,8)           -144.0478         estimate D2E/DX2                !
 ! D19   D(5,6,7,9)             99.5323         estimate D2E/DX2                !
 ! D20   D(5,6,7,13)           -28.9818         estimate D2E/DX2                !
 ! D21   D(18,6,7,8)            53.8375         estimate D2E/DX2                !
 ! D22   D(18,6,7,9)           -62.5825         estimate D2E/DX2                !
 ! D23   D(18,6,7,13)          168.9035         estimate D2E/DX2                !
 ! D24   D(6,7,9,10)           168.6832         estimate D2E/DX2                !
 ! D25   D(6,7,9,19)           -70.2971         estimate D2E/DX2                !
 ! D26   D(6,7,9,20)            48.7036         estimate D2E/DX2                !
 ! D27   D(8,7,9,10)            52.711          estimate D2E/DX2                !
 ! D28   D(8,7,9,19)           173.7307         estimate D2E/DX2                !
 ! D29   D(8,7,9,20)           -67.2686         estimate D2E/DX2                !
 ! D30   D(13,7,9,10)          -61.9103         estimate D2E/DX2                !
 ! D31   D(13,7,9,19)           59.1095         estimate D2E/DX2                !
 ! D32   D(13,7,9,20)          178.1101         estimate D2E/DX2                !
 ! D33   D(6,7,13,12)         -166.1353         estimate D2E/DX2                !
 ! D34   D(6,7,13,14)          -49.4345         estimate D2E/DX2                !
 ! D35   D(6,7,13,15)           75.0223         Frozen                          !
 ! D36   D(8,7,13,12)          -51.443          estimate D2E/DX2                !
 ! D37   D(8,7,13,14)           65.2578         estimate D2E/DX2                !
 ! D38   D(8,7,13,15)         -170.2854         estimate D2E/DX2                !
 ! D39   D(9,7,13,12)           63.2805         estimate D2E/DX2                !
 ! D40   D(9,7,13,14)          179.9813         estimate D2E/DX2                !
 ! D41   D(9,7,13,15)          -55.5619         estimate D2E/DX2                !
 ! D42   D(7,9,10,11)           54.8127         Frozen                          !
 ! D43   D(7,9,10,21)          176.6032         estimate D2E/DX2                !
 ! D44   D(7,9,10,22)          -65.1841         estimate D2E/DX2                !
 ! D45   D(19,9,10,11)         -66.3231         estimate D2E/DX2                !
 ! D46   D(19,9,10,21)          55.4674         estimate D2E/DX2                !
 ! D47   D(19,9,10,22)         173.6802         estimate D2E/DX2                !
 ! D48   D(20,9,10,11)         175.4298         estimate D2E/DX2                !
 ! D49   D(20,9,10,21)         -62.7796         estimate D2E/DX2                !
 ! D50   D(20,9,10,22)          55.4331         estimate D2E/DX2                !
 ! D51   D(9,10,11,12)         -52.8229         Frozen                          !
 ! D52   D(9,10,11,23)          67.8077         estimate D2E/DX2                !
 ! D53   D(9,10,11,24)        -174.6591         estimate D2E/DX2                !
 ! D54   D(21,10,11,12)       -174.7069         estimate D2E/DX2                !
 ! D55   D(21,10,11,23)        -54.0763         estimate D2E/DX2                !
 ! D56   D(21,10,11,24)         63.4569         estimate D2E/DX2                !
 ! D57   D(22,10,11,12)         67.3944         estimate D2E/DX2                !
 ! D58   D(22,10,11,23)       -171.975          estimate D2E/DX2                !
 ! D59   D(22,10,11,24)        -54.4418         estimate D2E/DX2                !
 ! D60   D(10,11,12,13)         56.6107         estimate D2E/DX2                !
 ! D61   D(10,11,12,25)        177.4474         estimate D2E/DX2                !
 ! D62   D(10,11,12,26)        -64.7961         estimate D2E/DX2                !
 ! D63   D(23,11,12,13)        -63.8772         estimate D2E/DX2                !
 ! D64   D(23,11,12,25)         56.9595         estimate D2E/DX2                !
 ! D65   D(23,11,12,26)        174.7161         estimate D2E/DX2                !
 ! D66   D(24,11,12,13)        178.516          estimate D2E/DX2                !
 ! D67   D(24,11,12,25)        -60.6473         estimate D2E/DX2                !
 ! D68   D(24,11,12,26)         57.1093         estimate D2E/DX2                !
 ! D69   D(11,12,13,7)         -60.3538         estimate D2E/DX2                !
 ! D70   D(11,12,13,14)       -179.2173         estimate D2E/DX2                !
 ! D71   D(11,12,13,15)         61.9161         estimate D2E/DX2                !
 ! D72   D(25,12,13,7)         178.8157         estimate D2E/DX2                !
 ! D73   D(25,12,13,14)         59.9523         estimate D2E/DX2                !
 ! D74   D(25,12,13,15)        -58.9143         estimate D2E/DX2                !
 ! D75   D(26,12,13,7)          61.0309         estimate D2E/DX2                !
 ! D76   D(26,12,13,14)        -57.8326         estimate D2E/DX2                !
 ! D77   D(26,12,13,15)       -176.6991         estimate D2E/DX2                !
 ! D78   D(7,13,15,16)         -67.1598         Frozen                          !
 ! D79   D(12,13,15,16)        175.4957         estimate D2E/DX2                !
 ! D80   D(14,13,15,16)         57.9316         estimate D2E/DX2                !
 ! D81   D(13,15,16,4)           9.1456         estimate D2E/DX2                !
 ! D82   D(13,15,16,27)       -173.2409         estimate D2E/DX2                !
 --------------------------------------------------------------------------------
 Trust Radius=3.00D-01 FncErr=1.00D-07 GrdErr=1.00D-07 EigMax=2.50D+02 EigMin=1.00D-04
 Number of steps in this run=     20 maximum allowed number of steps=    162.
 GradGradGradGradGradGradGradGradGradGradGradGradGradGradGradGradGradGrad

                          Input orientation:                          
 ---------------------------------------------------------------------
 Center     Atomic      Atomic             Coordinates (Angstroms)
 Number     Number       Type             X           Y           Z
 ---------------------------------------------------------------------
      1          8           0       -3.623840   -1.437920   -0.201390
      2          7           0       -3.259580   -0.273990   -0.042960
      3          8           0       -4.036640    0.671460    0.095530
      4          6           0       -1.757210    0.005340   -0.039790
      5          6           0       -1.368340    1.313520    0.270590
      6          7           0       -0.081190    1.764380    0.406380
      7          6           0        1.198150    0.993460    0.369040
      8          1           0        1.866210    1.491590    1.118930
      9          6           0        1.954310    1.046050   -0.982050
     10          6           0        3.368120    0.461090   -0.801460
     11          6           0        3.311390   -0.955200   -0.207320
     12          6           0        2.470990   -0.990280    1.087390
     13          6           0        1.032120   -0.455990    0.849090
     14          1           0        0.488190   -0.495660    1.821900
     15          7           0        0.371270   -1.326210   -0.126090
     16          6           0       -0.872210   -1.128050   -0.417840
     17          1           0       -2.156310    2.057780    0.473090
     18          1           0        0.152290    2.748720    0.255210
     19          1           0        1.400790    0.469220   -1.753230
     20          1           0        2.037280    2.096320   -1.333790
     21          1           0        3.896920    0.438120   -1.779430
     22          1           0        3.948690    1.115270   -0.113250
     23          1           0        2.860450   -1.644710   -0.956310
     24          1           0        4.341060   -1.317970    0.003360
     25          1           0        2.415900   -2.036790    1.459550
     26          1           0        2.969060   -0.378930    1.868830
     27          1           0       -1.366860   -1.867620   -1.065970
 ---------------------------------------------------------------------
                    Distance matrix (angstroms):
                    1          2          3          4          5
     1  O    0.000000
     2  N    1.229845   0.000000
     3  O    2.169804   1.231616   0.000000
     4  C    2.365042   1.528120   2.378619   0.000000
     5  C    3.588937   2.489034   2.750039   1.399604   0.000000
     6  N    4.813988   3.802502   4.115421   2.470290   1.370572
     7  C    5.430339   4.652691   5.251811   3.142877   2.588243
     8  H    6.361283   5.544455   6.046784   4.084207   3.348687
     9  C    6.155915   5.459766   6.098605   3.968162   3.560990
    10  C    7.270064   6.711339   7.461857   5.201621   4.930515
    11  C    6.952012   6.608230   7.532017   5.161532   5.222582
    12  C    6.245662   5.884743   6.789287   4.487702   4.551386
    13  C    4.872952   4.387205   5.247030   2.963662   3.037768
    14  H    4.678712   4.191971   4.981627   2.959512   3.020993
    15  N    3.997381   3.781157   4.844530   2.512151   3.186185
    16  C    2.777470   2.563101   3.676330   1.486849   2.584830
    17  H    3.850777   2.630715   2.366448   2.152867   1.102645
    18  H    5.656465   4.567991   4.678423   3.355495   2.091017
    19  H    5.593952   5.019605   5.746691   3.622710   3.532247
    20  H    6.769155   5.944858   6.400444   4.521591   3.845134
    21  H    7.910219   7.398508   8.155446   5.931512   5.717680
    22  H    7.991856   7.341263   8.000378   5.813315   5.334552
    23  H    6.531362   6.337811   7.351249   4.988533   5.304628
    24  H    7.968434   7.672142   8.611166   6.240345   6.292329
    25  H    6.292521   6.129933   7.129547   4.881922   5.192174
    26  H    6.990966   6.516280   7.302585   5.111567   4.922580
    27  H    2.454811   2.677423   3.863125   2.171036   3.450514
                    6          7          8          9         10
     6  N    0.000000
     7  C    1.494129   0.000000
     8  H    2.091533   1.121059   0.000000
     9  C    2.566514   1.549189   2.149508   0.000000
    10  C    3.880101   2.522352   2.646802   1.540665   0.000000
    11  C    4.391166   2.931766   3.135963   2.539070   1.536912
    12  C    3.816484   2.464016   2.554688   2.948929   2.545402
    13  C    2.522993   1.535877   2.135787   2.541581   3.003706
    14  H    2.726843   2.198255   2.518386   3.519732   4.011407
    15  N    3.168594   2.511922   3.424167   2.977633   3.554107
    16  C    3.109856   3.066981   4.089391   3.610299   4.544549
    17  H    2.096821   3.520796   4.113192   4.476408   5.890095
    18  H    1.022883   2.046391   2.294321   2.770771   4.085507
    19  H    2.921921   2.195432   3.084017   1.110782   2.185479
    20  H    2.761574   2.195466   2.531956   1.110708   2.174509
    21  H    4.728857   3.493950   3.692435   2.186122   1.112017
    22  H    4.114765   2.795159   2.448797   2.176501   1.112945
    23  H    4.704473   3.388176   3.889924   2.839356   2.171659
    24  H    5.405516   3.918458   3.906790   3.500885   2.181605
    25  H    4.668353   3.443043   3.587150   3.959593   3.501185
    26  H    4.004568   2.696098   2.297275   3.344817   2.827602
    27  H    4.124583   4.101745   5.148866   4.418901   5.283265
                   11         12         13         14         15
    11  C    0.000000
    12  C    1.543948   0.000000
    13  C    2.561305   1.553255   0.000000
    14  H    3.507046   2.171555   1.115255   0.000000
    15  N    2.964549   2.448307   1.464576   2.120884   0.000000
    16  C    4.192458   3.669017   2.383957   2.695745   1.292528
    17  H    6.279869   5.574939   4.077561   3.915702   4.266036
    18  H    4.890079   4.477613   3.375938   3.618473   4.098585
    19  H    2.840634   3.368173   2.786396   3.813841   2.632692
    20  H    3.493432   3.946811   3.505652   4.367656   3.993475
    21  H    2.180760   3.506032   3.989440   5.045886   4.275114
    22  H    2.168374   2.838745   3.449831   4.279598   4.331157
    23  H    1.113444   2.180979   2.831133   3.829672   2.643241
    24  H    1.111849   2.186244   3.522407   4.339112   3.971909
    25  H    2.179494   1.112080   2.187793   2.494483   2.683224
    26  H    2.181668   1.110167   2.190330   2.484058   3.409627
    27  H    4.843120   4.487291   3.378648   3.696387   2.048803
                   16         17         18         19         20
    16  C    0.000000
    17  H    3.548546   0.000000
    18  H    4.065949   2.419608   0.000000
    19  H    3.082380   4.486979   3.284616   0.000000
    20  H    4.438542   4.566454   2.550242   1.796804   0.000000
    21  H    5.201098   6.658734   4.847771   2.496461   2.531103
    22  H    5.326006   6.205090   4.149286   3.098178   2.470964
    23  H    3.806526   6.396835   5.301334   2.689682   3.849079
    24  H    5.233705   7.337040   5.843560   3.863269   4.330444
    25  H    3.893850   6.216407   5.429132   4.199106   5.002869
    26  H    4.532703   5.844233   4.507789   4.037096   4.153535
    27  H    1.100779   4.289604   5.036261   3.686873   5.231894
                   21         22         23         24         25
    21  H    0.000000
    22  H    1.799269   0.000000
    23  H    2.467788   3.084235   0.000000
    24  H    2.541545   2.467430   1.794417   0.000000
    25  H    4.337003   3.841696   2.487515   2.518617   0.000000
    26  H    3.852051   2.668511   3.097646   2.498831   1.794992
    27  H    5.790755   6.169310   4.234603   5.833175   4.551499
                   26         27
    26  H    0.000000
    27  H    5.443294   0.000000
 Symmetry turned off by external request.
 Stoichiometry    C9H13N3O2
 Framework group  C1[X(C9H13N3O2)]
 Deg. of freedom    75
 Full point group                 C1      NOp   1
 Rotational constants (GHZ):           1.6734957           0.3999423           0.3550849
 Standard basis: 6-31G(d) (6D, 7F)
   236 basis functions,   444 primitive gaussians,   236 cartesian basis functions
    52 alpha electrons       52 beta electrons
       nuclear repulsion energy       917.3286390945 Hartrees.
 NAtoms=   27 NActive=   27 NUniq=   27 SFac= 1.00D+00 NAtFMM=   60 NAOKFM=F Big=F
 Integral buffers will be    131072 words long.
 Raffenetti 1 integral format.
 Two-electron integral symmetry is turned off.
 One-electron integrals computed using PRISM.
 NBasis=   236 RedAO= T EigKep=  1.27D-03  NBF=   236
 NBsUse=   236 1.00D-06 EigRej= -1.00D+00 NBFU=   236
 ExpMin= 1.61D-01 ExpMax= 5.48D+03 ExpMxC= 8.25D+02 IAcc=3 IRadAn=         5 AccDes= 0.00D+00
 Harris functional with IExCor=  205 and IRadAn=       5 diagonalized for initial guess.
 HarFok:  IExCor=  205 AccDes= 0.00D+00 IRadAn=         5 IDoV= 1 UseB2=F ITyADJ=14
 ICtDFT=  3500011 ScaDFX=  1.000000  1.000000  1.000000  1.000000
 FoFCou: FMM=F IPFlag=           0 FMFlag=      100000 FMFlg1=           0
         NFxFlg=           0 DoJE=T BraDBF=F KetDBF=T FulRan=T
         wScrn=  0.000000 ICntrl=       500 IOpCl=  0 I1Cent=   200000004 NGrid=           0
         NMat0=    1 NMatS0=      1 NMatT0=    0 NMatD0=    1 NMtDS0=    0 NMtDT0=    0
 Symmetry not used in FoFCou.
 Keep R1 ints in memory in canonical form, NReq=397720213.
 Requested convergence on RMS density matrix=1.00D-08 within 128 cycles.
 Requested convergence on MAX density matrix=1.00D-06.
 Requested convergence on             energy=1.00D-06.
 No special actions if energy rises.
 SCF Done:  E(RHF) =  -661.281520607     A.U. after   16 cycles
            NFock= 16  Conv=0.80D-08     -V/T= 2.0037
 ExpMin= 1.61D-01 ExpMax= 5.48D+03 ExpMxC= 8.25D+02 IAcc=3 IRadAn=         5 AccDes= 0.00D+00
 HarFok:  IExCor=  205 AccDes= 0.00D+00 IRadAn=         5 IDoV=-2 UseB2=F ITyADJ=14
 ICtDFT= 12500011 ScaDFX=  1.000000  1.000000  1.000000  1.000000
 Range of M.O.s used for correlation:    15   236
 NBasis=   236 NAE=    52 NBE=    52 NFC=    14 NFV=     0
 NROrb=    222 NOA=    38 NOB=    38 NVA=   184 NVB=   184
 Fully direct method using O(ONN) memory.
 JobTyp=1 Pass  1:  I=  15 to  52 NPSUse=  4 ParTrn=T ParDer=T DoDerP=T.
 Spin components of T(2) and E(2):
     alpha-alpha T2 =       0.9197279762D-01 E2=     -0.2717594744D+00
     alpha-beta  T2 =       0.4996196162D+00 E2=     -0.1493692876D+01
     beta-beta   T2 =       0.9197279762D-01 E2=     -0.2717594744D+00
 ANorm=    0.1297522721D+01
 E2 =    -0.2037211824D+01 EUMP2 =    -0.66331873243183D+03
          IDoAtm=111111111111111111111111111
          Differentiating once with respect to electric field.
                with respect to dipole field.
          Differentiating once with respect to nuclear coordinates.
 Keep R1 ints in memory in canonical form, NReq=397723379.
          There are     1 degrees of freedom in the 1st order CPHF.  IDoFFX=0 NUNeed=     1.
 LinEq1:  Iter=  0 NonCon=     1 RMS=4.61D-03 Max=1.12D-01 NDo=     1
 AX will form     1 AO Fock derivatives at one time.
 LinEq1:  Iter=  1 NonCon=     1 RMS=1.57D-03 Max=2.89D-02 NDo=     1
 LinEq1:  Iter=  2 NonCon=     1 RMS=6.41D-04 Max=1.80D-02 NDo=     1
 LinEq1:  Iter=  3 NonCon=     1 RMS=2.94D-04 Max=9.11D-03 NDo=     1
 LinEq1:  Iter=  4 NonCon=     1 RMS=9.03D-05 Max=2.10D-03 NDo=     1
 LinEq1:  Iter=  5 NonCon=     1 RMS=3.75D-05 Max=1.88D-03 NDo=     1
 LinEq1:  Iter=  6 NonCon=     1 RMS=1.54D-05 Max=5.85D-04 NDo=     1
 LinEq1:  Iter=  7 NonCon=     1 RMS=5.93D-06 Max=1.01D-04 NDo=     1
 LinEq1:  Iter=  8 NonCon=     1 RMS=2.37D-06 Max=6.01D-05 NDo=     1
 LinEq1:  Iter=  9 NonCon=     1 RMS=8.83D-07 Max=2.53D-05 NDo=     1
 LinEq1:  Iter= 10 NonCon=     1 RMS=4.33D-07 Max=1.50D-05 NDo=     1
 LinEq1:  Iter= 11 NonCon=     1 RMS=1.54D-07 Max=5.72D-06 NDo=     1
 LinEq1:  Iter= 12 NonCon=     1 RMS=5.39D-08 Max=7.69D-07 NDo=     1
 LinEq1:  Iter= 13 NonCon=     1 RMS=1.70D-08 Max=3.28D-07 NDo=     1
 LinEq1:  Iter= 14 NonCon=     1 RMS=5.35D-09 Max=1.40D-07 NDo=     1
 LinEq1:  Iter= 15 NonCon=     1 RMS=1.98D-09 Max=4.75D-08 NDo=     1
 LinEq1:  Iter= 16 NonCon=     1 RMS=7.43D-10 Max=1.29D-08 NDo=     1
 LinEq1:  Iter= 17 NonCon=     1 RMS=2.48D-10 Max=3.73D-09 NDo=     1
 LinEq1:  Iter= 18 NonCon=     1 RMS=8.64D-11 Max=1.05D-09 NDo=     1
 LinEq1:  Iter= 19 NonCon=     0 RMS=2.90D-11 Max=3.85D-10 NDo=     1
 Linear equations converged to 1.000D-10 1.000D-09 after    19 iterations.
 End of Minotr F.D. properties file   721 does not exist.
 End of Minotr F.D. properties file   722 does not exist.
 End of Minotr F.D. properties file   788 does not exist.

 **********************************************************************

            Population analysis using the SCF Density.

 **********************************************************************

 Alpha  occ. eigenvalues --  -20.59812 -20.59377 -15.85266 -15.63420 -15.56807
 Alpha  occ. eigenvalues --  -11.35889 -11.30474 -11.30097 -11.30080 -11.27687
 Alpha  occ. eigenvalues --  -11.24640 -11.23888 -11.23402 -11.22858  -1.58468
 Alpha  occ. eigenvalues --   -1.37968  -1.28637  -1.22725  -1.13287  -1.08380
 Alpha  occ. eigenvalues --   -1.01817  -1.00687  -0.93609  -0.88967  -0.84944
 Alpha  occ. eigenvalues --   -0.81544  -0.78016  -0.76979  -0.74335  -0.71138
 Alpha  occ. eigenvalues --   -0.70317  -0.69763  -0.67394  -0.64374  -0.63250
 Alpha  occ. eigenvalues --   -0.61676  -0.60326  -0.57423  -0.56511  -0.54879
 Alpha  occ. eigenvalues --   -0.53661  -0.50732  -0.49402  -0.48474  -0.47806
 Alpha  occ. eigenvalues --   -0.47689  -0.46141  -0.45712  -0.43998  -0.42084
 Alpha  occ. eigenvalues --   -0.39923  -0.33778
 Alpha virt. eigenvalues --    0.07404   0.11797   0.18073   0.21389   0.23405
 Alpha virt. eigenvalues --    0.24264   0.26332   0.27861   0.28549   0.28864
 Alpha virt. eigenvalues --    0.29885   0.31100   0.31840   0.32283   0.33331
 Alpha virt. eigenvalues --    0.33802   0.34186   0.35467   0.37589   0.38584
 Alpha virt. eigenvalues --    0.40603   0.41658   0.44369   0.45249   0.45631
 Alpha virt. eigenvalues --    0.46147   0.49751   0.53195   0.57558   0.59015
 Alpha virt. eigenvalues --    0.63322   0.69129   0.69192   0.72211   0.74045
 Alpha virt. eigenvalues --    0.74895   0.75665   0.75852   0.77838   0.79206
 Alpha virt. eigenvalues --    0.80535   0.83660   0.84928   0.85382   0.87958
 Alpha virt. eigenvalues --    0.89068   0.90231   0.90795   0.91915   0.93951
 Alpha virt. eigenvalues --    0.95088   0.97162   0.98854   1.00402   1.01953
 Alpha virt. eigenvalues --    1.02779   1.05090   1.06514   1.06989   1.08612
 Alpha virt. eigenvalues --    1.09648   1.10482   1.11157   1.11975   1.13249
 Alpha virt. eigenvalues --    1.13838   1.14163   1.15475   1.16330   1.17194
 Alpha virt. eigenvalues --    1.17984   1.19970   1.21291   1.22370   1.22895
 Alpha virt. eigenvalues --    1.23709   1.24345   1.25520   1.27030   1.27549
 Alpha virt. eigenvalues --    1.29440   1.31254   1.33074   1.36119   1.39625
 Alpha virt. eigenvalues --    1.42834   1.46064   1.47282   1.49737   1.52725
 Alpha virt. eigenvalues --    1.55079   1.55446   1.60241   1.61559   1.65800
 Alpha virt. eigenvalues --    1.68306   1.70328   1.72882   1.73508   1.76797
 Alpha virt. eigenvalues --    1.77884   1.80172   1.84567   1.88987   1.92405
 Alpha virt. eigenvalues --    1.93767   1.95981   1.97596   1.99027   2.01092
 Alpha virt. eigenvalues --    2.02925   2.03759   2.05943   2.08813   2.11922
 Alpha virt. eigenvalues --    2.12926   2.13484   2.17718   2.18906   2.19517
 Alpha virt. eigenvalues --    2.20627   2.22087   2.24101   2.25162   2.26262
 Alpha virt. eigenvalues --    2.29261   2.32194   2.33299   2.35331   2.35969
 Alpha virt. eigenvalues --    2.38681   2.39855   2.41745   2.43318   2.46407
 Alpha virt. eigenvalues --    2.48624   2.50427   2.50675   2.56865   2.57156
 Alpha virt. eigenvalues --    2.60751   2.62963   2.65818   2.68464   2.68764
 Alpha virt. eigenvalues --    2.69606   2.69988   2.74602   2.77021   2.80970
 Alpha virt. eigenvalues --    2.84762   2.86829   2.89954   2.91361   2.95131
 Alpha virt. eigenvalues --    2.97610   2.98399   3.02241   3.03771   3.05737
 Alpha virt. eigenvalues --    3.07059   3.12890   3.19105   3.22707   3.27198
 Alpha virt. eigenvalues --    3.30901   3.33791   3.37356   3.43358   3.60028
 Alpha virt. eigenvalues --    4.09999   4.23308   4.32048   4.36446   4.43237
 Alpha virt. eigenvalues --    4.52609   4.59591   4.60229   4.70848   4.77645
 Alpha virt. eigenvalues --    4.96565   4.99229   5.02939   5.09830
          Condensed to atoms (all electrons):
               1          2          3          4          5          6
     1  O    8.299695   0.313390  -0.089752  -0.079501   0.003516  -0.000013
     2  N    0.313390   5.681140   0.309285   0.266050  -0.046508   0.000831
     3  O   -0.089752   0.309285   8.331308  -0.087766   0.008042   0.000467
     4  C   -0.079501   0.266050  -0.087766   5.246560   0.567794  -0.048126
     5  C    0.003516  -0.046508   0.008042   0.567794   4.671354   0.308212
     6  N   -0.000013   0.000831   0.000467  -0.048126   0.308212   7.186307
     7  C    0.000003  -0.000094   0.000002   0.004368  -0.029212   0.198889
     8  H   -0.000000   0.000002  -0.000000  -0.000188   0.002377  -0.049533
     9  C   -0.000000  -0.000003   0.000000   0.000479   0.001586  -0.056588
    10  C   -0.000000   0.000000  -0.000000  -0.000019  -0.000061   0.003345
    11  C   -0.000000  -0.000000  -0.000000  -0.000014   0.000015  -0.000154
    12  C   -0.000000   0.000001  -0.000000  -0.000120  -0.000132   0.003604
    13  C   -0.000018  -0.000024  -0.000002  -0.010227   0.000461  -0.044724
    14  H   -0.000002  -0.000054   0.000000   0.002873   0.004590  -0.005505
    15  N    0.000206   0.001630  -0.000013  -0.061027  -0.003782   0.001886
    16  C    0.003801  -0.026773   0.001965   0.318095  -0.041561  -0.001122
    17  H    0.000129  -0.004163   0.012121  -0.026629   0.376809  -0.033626
    18  H    0.000000  -0.000035   0.000008   0.000998  -0.024608   0.328683
    19  H    0.000000   0.000000   0.000000  -0.000791   0.000710   0.000567
    20  H    0.000000  -0.000000   0.000000  -0.000027   0.000027  -0.001607
    21  H   -0.000000  -0.000000   0.000000   0.000000   0.000001  -0.000059
    22  H   -0.000000   0.000000  -0.000000  -0.000000  -0.000002  -0.000097
    23  H    0.000000  -0.000000   0.000000   0.000025  -0.000000  -0.000024
    24  H    0.000000   0.000000   0.000000   0.000000  -0.000000   0.000004
    25  H    0.000000  -0.000000   0.000000   0.000019  -0.000001  -0.000071
    26  H    0.000000  -0.000000   0.000000   0.000006  -0.000001  -0.000067
    27  H    0.005089  -0.000211  -0.000002  -0.066719   0.002117   0.000044
               7          8          9         10         11         12
     1  O    0.000003  -0.000000  -0.000000  -0.000000  -0.000000  -0.000000
     2  N   -0.000094   0.000002  -0.000003   0.000000  -0.000000   0.000001
     3  O    0.000002  -0.000000   0.000000  -0.000000  -0.000000  -0.000000
     4  C    0.004368  -0.000188   0.000479  -0.000019  -0.000014  -0.000120
     5  C   -0.029212   0.002377   0.001586  -0.000061   0.000015  -0.000132
     6  N    0.198889  -0.049533  -0.056588   0.003345  -0.000154   0.003604
     7  C    5.006610   0.416614   0.340862  -0.049330  -0.007733  -0.064324
     8  H    0.416614   0.546587  -0.060337   0.001418  -0.000326  -0.002848
     9  C    0.340862  -0.060337   5.180876   0.318040  -0.053072  -0.006158
    10  C   -0.049330   0.001418   0.318040   5.126757   0.332748  -0.060202
    11  C   -0.007733  -0.000326  -0.053072   0.332748   5.124121   0.330582
    12  C   -0.064324  -0.002848  -0.006158  -0.060202   0.330582   5.137209
    13  C    0.331128  -0.040097  -0.050864  -0.001654  -0.047874   0.368422
    14  H   -0.040326  -0.000971   0.003870  -0.000392   0.003960  -0.040707
    15  N   -0.058330   0.004028  -0.012816   0.001443  -0.007735  -0.074259
    16  C   -0.002235   0.000014  -0.000815  -0.000032   0.000007   0.002430
    17  H    0.001423  -0.000021  -0.000065   0.000001   0.000000   0.000001
    18  H   -0.028644  -0.002808   0.000855  -0.000120   0.000011  -0.000138
    19  H   -0.034978   0.004078   0.386198  -0.032618  -0.002251   0.000626
    20  H   -0.041700  -0.001846   0.397232  -0.037346   0.004137  -0.000363
    21  H    0.004046  -0.000080  -0.035834   0.400131  -0.035832   0.004213
    22  H   -0.004241   0.003513  -0.045695   0.395967  -0.045626  -0.001223
    23  H    0.000432   0.000034  -0.002005  -0.040083   0.396692  -0.036606
    24  H   -0.000142  -0.000099   0.004397  -0.038480   0.400302  -0.037877
    25  H    0.004987  -0.000004  -0.000371   0.004097  -0.033902   0.395396
    26  H   -0.004424   0.001583   0.001044  -0.002404  -0.042339   0.394691
    27  H   -0.000414   0.000009  -0.000057   0.000005   0.000005  -0.000019
              13         14         15         16         17         18
     1  O   -0.000018  -0.000002   0.000206   0.003801   0.000129   0.000000
     2  N   -0.000024  -0.000054   0.001630  -0.026773  -0.004163  -0.000035
     3  O   -0.000002   0.000000  -0.000013   0.001965   0.012121   0.000008
     4  C   -0.010227   0.002873  -0.061027   0.318095  -0.026629   0.000998
     5  C    0.000461   0.004590  -0.003782  -0.041561   0.376809  -0.024608
     6  N   -0.044724  -0.005505   0.001886  -0.001122  -0.033626   0.328683
     7  C    0.331128  -0.040326  -0.058330  -0.002235   0.001423  -0.028644
     8  H   -0.040097  -0.000971   0.004028   0.000014  -0.000021  -0.002808
     9  C   -0.050864   0.003870  -0.012816  -0.000815  -0.000065   0.000855
    10  C   -0.001654  -0.000392   0.001443  -0.000032   0.000001  -0.000120
    11  C   -0.047874   0.003960  -0.007735   0.000007   0.000000   0.000011
    12  C    0.368422  -0.040707  -0.074259   0.002430   0.000001  -0.000138
    13  C    5.023983   0.402629   0.239600  -0.069544  -0.000043   0.003711
    14  H    0.402629   0.519150  -0.035818  -0.004724   0.000058   0.000007
    15  N    0.239600  -0.035818   6.938211   0.588242  -0.000055  -0.000119
    16  C   -0.069544  -0.004724   0.588242   4.695489   0.001638  -0.000212
    17  H   -0.000043   0.000058  -0.000055   0.001638   0.385220  -0.001946
    18  H    0.003711   0.000007  -0.000119  -0.000212  -0.001946   0.324732
    19  H   -0.006260   0.000063   0.006898   0.002477   0.000011  -0.000129
    20  H    0.003870  -0.000050   0.000080  -0.000032  -0.000002   0.002807
    21  H   -0.000380   0.000009  -0.000030   0.000002  -0.000000  -0.000000
    22  H    0.000318  -0.000044   0.000003  -0.000001   0.000000   0.000002
    23  H   -0.005878   0.000008   0.006779   0.000068   0.000000   0.000000
    24  H    0.004147  -0.000058   0.000043   0.000005   0.000000  -0.000000
    25  H   -0.034434  -0.002657   0.000796  -0.000063  -0.000000   0.000002
    26  H   -0.044868  -0.000916   0.004192  -0.000052   0.000000  -0.000001
    27  H    0.004927  -0.000173  -0.039958   0.402996  -0.000061   0.000002
              19         20         21         22         23         24
     1  O    0.000000   0.000000  -0.000000  -0.000000   0.000000   0.000000
     2  N    0.000000  -0.000000  -0.000000   0.000000  -0.000000   0.000000
     3  O    0.000000   0.000000   0.000000  -0.000000   0.000000   0.000000
     4  C   -0.000791  -0.000027   0.000000  -0.000000   0.000025   0.000000
     5  C    0.000710   0.000027   0.000001  -0.000002  -0.000000  -0.000000
     6  N    0.000567  -0.001607  -0.000059  -0.000097  -0.000024   0.000004
     7  C   -0.034978  -0.041700   0.004046  -0.004241   0.000432  -0.000142
     8  H    0.004078  -0.001846  -0.000080   0.003513   0.000034  -0.000099
     9  C    0.386198   0.397232  -0.035834  -0.045695  -0.002005   0.004397
    10  C   -0.032618  -0.037346   0.400131   0.395967  -0.040083  -0.038480
    11  C   -0.002251   0.004137  -0.035832  -0.045626   0.396692   0.400302
    12  C    0.000626  -0.000363   0.004213  -0.001223  -0.036606  -0.037877
    13  C   -0.006260   0.003870  -0.000380   0.000318  -0.005878   0.004147
    14  H    0.000063  -0.000050   0.000009  -0.000044   0.000008  -0.000058
    15  N    0.006898   0.000080  -0.000030   0.000003   0.006779   0.000043
    16  C    0.002477  -0.000032   0.000002  -0.000001   0.000068   0.000005
    17  H    0.000011  -0.000002  -0.000000   0.000000   0.000000   0.000000
    18  H   -0.000129   0.002807  -0.000000   0.000002   0.000000  -0.000000
    19  H    0.506668  -0.023998  -0.002591   0.003756   0.001641  -0.000070
    20  H   -0.023998   0.549952  -0.002620  -0.002963  -0.000049  -0.000090
    21  H   -0.002591  -0.002620   0.526017  -0.024692  -0.002812  -0.002061
    22  H    0.003756  -0.002963  -0.024692   0.568929   0.004060  -0.003596
    23  H    0.001641  -0.000049  -0.002812   0.004060   0.509508  -0.024986
    24  H   -0.000070  -0.000090  -0.002061  -0.003596  -0.024986   0.541014
    25  H   -0.000027   0.000011  -0.000086  -0.000082  -0.002089  -0.002382
    26  H    0.000022  -0.000035  -0.000074   0.002465   0.003820  -0.002767
    27  H    0.000072  -0.000000  -0.000000   0.000000  -0.000022  -0.000000
              25         26         27
     1  O    0.000000   0.000000   0.005089
     2  N   -0.000000  -0.000000  -0.000211
     3  O    0.000000   0.000000  -0.000002
     4  C    0.000019   0.000006  -0.066719
     5  C   -0.000001  -0.000001   0.002117
     6  N   -0.000071  -0.000067   0.000044
     7  C    0.004987  -0.004424  -0.000414
     8  H   -0.000004   0.001583   0.000009
     9  C   -0.000371   0.001044  -0.000057
    10  C    0.004097  -0.002404   0.000005
    11  C   -0.033902  -0.042339   0.000005
    12  C    0.395396   0.394691  -0.000019
    13  C   -0.034434  -0.044868   0.004927
    14  H   -0.002657  -0.000916  -0.000173
    15  N    0.000796   0.004192  -0.039958
    16  C   -0.000063  -0.000052   0.402996
    17  H   -0.000000   0.000000  -0.000061
    18  H    0.000002  -0.000001   0.000002
    19  H   -0.000027   0.000022   0.000072
    20  H    0.000011  -0.000035  -0.000000
    21  H   -0.000086  -0.000074  -0.000000
    22  H   -0.000082   0.002465   0.000000
    23  H   -0.002089   0.003820  -0.000022
    24  H   -0.002382  -0.002767  -0.000000
    25  H    0.510232  -0.023088  -0.000010
    26  H   -0.023088   0.561134   0.000001
    27  H   -0.000010   0.000001   0.453466
 Mulliken charges:
               1
     1  O   -0.456544
     2  N    0.505535
     3  O   -0.485664
     4  C   -0.026113
     5  C    0.198256
     6  N   -0.791523
     7  C    0.056763
     8  H    0.178902
     9  C   -0.310760
    10  C   -0.321210
    11  C   -0.315723
    12  C   -0.312200
    13  C   -0.026302
    14  H    0.195179
    15  N   -0.500094
    16  C    0.129936
    17  H    0.289199
    18  H    0.396940
    19  H    0.189923
    20  H    0.154614
    21  H    0.172731
    22  H    0.149250
    23  H    0.191488
    24  H    0.162697
    25  H    0.183727
    26  H    0.152078
    27  H    0.238915
 Sum of Mulliken charges =  -0.00000
 Mulliken charges with hydrogens summed into heavy atoms:
               1
     1  O   -0.456544
     2  N    0.505535
     3  O   -0.485664
     4  C   -0.026113
     5  C    0.487455
     6  N   -0.394583
     7  C    0.235665
     9  C    0.033777
    10  C    0.000771
    11  C    0.038462
    12  C    0.023605
    13  C    0.168877
    15  N   -0.500094
    16  C    0.368850
 Electronic spatial extent (au):  <R**2>=           3127.2150
 Charge=             -0.0000 electrons
 Dipole moment (field-independent basis, Debye):
    X=              5.3852    Y=              4.5136    Z=              0.5544  Tot=              7.0485
 Quadrupole moment (field-independent basis, Debye-Ang):
   XX=           -105.5279   YY=            -80.2228   ZZ=            -82.2657
   XY=             -1.7992   XZ=              0.6928   YZ=              0.1410
 Traceless Quadrupole moment (field-independent basis, Debye-Ang):
   XX=            -16.1891   YY=              9.1160   ZZ=              7.0731
   XY=             -1.7992   XZ=              0.6928   YZ=              0.1410
 Octapole moment (field-independent basis, Debye-Ang**2):
  XXX=            101.9155  YYY=             36.9279  ZZZ=             -5.2420  XYY=             -1.3564
  XXY=             11.5179  XXZ=              0.7928  XZZ=             -8.1862  YZZ=             -2.8947
  YYZ=              1.0838  XYZ=             -1.3255
 Hexadecapole moment (field-independent basis, Debye-Ang**3):
 XXXX=          -3562.9004 YYYY=           -619.5883 ZZZZ=           -299.7484 XXXY=            -38.2879
 XXXZ=             16.5375 YYYX=            -18.6551 YYYZ=             12.3588 ZZZX=             16.5813
 ZZZY=              8.6962 XXYY=           -657.1502 XXZZ=           -543.8260 YYZZ=           -164.6448
 XXYZ=              2.5297 YYXZ=              8.5286 ZZXY=              2.9447
 N-N= 9.173286390945D+02 E-N=-3.380665507851D+03  KE= 6.588554155736D+02
 Calling FoFJK, ICntrl=  10002127 FMM=F ISym2X=0 I1Cent= 0 IOpClX= 0 NMat=1 NMatS=1 NMatT=0.
 -------------------------------------------------------------------
 Center     Atomic                   Forces (Hartrees/Bohr)
 Number     Number              X              Y              Z
 -------------------------------------------------------------------
      1        8           0.002388355   -0.019230370   -0.002829821
      2        7           0.039402073    0.013520016   -0.001389047
      3        8          -0.005197055    0.015941035    0.003425018
      4        6          -0.003425557    0.008007505    0.009892714
      5        6           0.003305064   -0.016536110   -0.004590659
      6        7           0.014738812   -0.009490565   -0.006840557
      7        6          -0.004557952    0.005103472    0.002843961
      8        1          -0.010332743   -0.001744717   -0.007607894
      9        6          -0.003905546    0.000274700   -0.002145298
     10        6           0.002827829   -0.000917477    0.000942066
     11        6          -0.001007637   -0.004602113   -0.002387304
     12        6           0.000768879   -0.008787987   -0.002869494
     13        6           0.008441465   -0.002224612    0.005055363
     14        1           0.001036571    0.004460975   -0.009774401
     15        7          -0.000021146    0.000447968    0.002204416
     16        6          -0.020055675    0.009648698   -0.000200131
     17        1           0.007270072   -0.006230229   -0.005727401
     18        1          -0.017710860   -0.001803310    0.005663342
     19        1           0.003137471    0.005874349    0.007661548
     20        1          -0.003220367   -0.007378775    0.002640013
     21        1          -0.004293563    0.002409140    0.009648821
     22        1          -0.004039254   -0.003982205   -0.007363879
     23        1           0.004030438    0.006144077    0.009265049
     24        1          -0.009397945    0.002600901   -0.002068845
     25        1          -0.000816916    0.010596790   -0.002421770
     26        1          -0.004784647   -0.004805486   -0.004333319
     27        1           0.005419832    0.002704329    0.003307509
 -------------------------------------------------------------------
 Cartesian Forces:  Max     0.039402073 RMS     0.008354973

 GradGradGradGradGradGradGradGradGradGradGradGradGradGradGradGradGradGrad
 Berny optimization.
 FormGI is forming the generalized inverse of G from B-inverse, IUseBI=4.
 Internal  Forces:  Max     0.037845198 RMS     0.006875001
 Search for a local minimum.
 Step number   1 out of a maximum of   20
 All quantities printed in internal units (Hartrees-Bohrs-Radians)
 Mixed Optimization -- RFO/linear search
 Second derivative matrix not updated -- first step.
 ITU=  0
     Eigenvalues ---    0.00231   0.00771   0.01064   0.01146   0.01201
     Eigenvalues ---    0.01474   0.01536   0.01721   0.02011   0.02090
     Eigenvalues ---    0.02689   0.03654   0.04507   0.04689   0.04838
     Eigenvalues ---    0.05074   0.05138   0.05303   0.05891   0.06265
     Eigenvalues ---    0.07190   0.07697   0.07714   0.07860   0.07994
     Eigenvalues ---    0.08049   0.08052   0.10458   0.11708   0.12230
     Eigenvalues ---    0.13317   0.14844   0.15500   0.15988   0.15995
     Eigenvalues ---    0.20078   0.21968   0.23202   0.24980   0.25000
     Eigenvalues ---    0.25000   0.25367   0.26193   0.26650   0.27978
     Eigenvalues ---    0.28083   0.28474   0.29598   0.31457   0.31703
     Eigenvalues ---    0.32050   0.32238   0.32290   0.32381   0.32387
     Eigenvalues ---    0.32405   0.32517   0.32525   0.32582   0.33355
     Eigenvalues ---    0.33391   0.33594   0.35384   0.43881   0.44242
     Eigenvalues ---    0.49215   0.67024   0.90416   0.911511000.00000
     Eigenvalues --- 1000.000001000.000001000.000001000.000001000.00000
     Eigenvalues --- 1000.000001000.000001000.000001000.000001000.00000
     Eigenvalues --- 1000.000001000.000001000.000001000.000001000.00000
     Eigenvalues --- 1000.000001000.000001000.000001000.000001000.00000
     Eigenvalues --- 1000.000001000.000001000.000001000.000001000.00000
     Eigenvalues --- 1000.000001000.000001000.000001000.000001000.00000
     Eigenvalues --- 1000.000001000.000001000.000001000.000001000.00000
     Eigenvalues --- 1000.000001000.000001000.000001000.000001000.00000
     Eigenvalues --- 1000.000001000.000001000.000001000.000001000.00000
     Eigenvalues --- 1000.000001000.000001000.000001000.000001000.00000
     Eigenvalues --- 1000.000001000.000001000.000001000.000001000.00000
     Eigenvalues --- 1000.000001000.000001000.000001000.000001000.00000
     Eigenvalues --- 1000.000001000.000001000.000001000.000001000.00000
     Eigenvalues --- 1000.000001000.000001000.000001000.000001000.00000
     Eigenvalues --- 1000.000001000.000001000.000001000.000001000.00000
     Eigenvalues --- 1000.000001000.000001000.000001000.000001000.00000
     Eigenvalues --- 1000.000001000.000001000.000001000.000001000.00000
     Eigenvalues --- 1000.000001000.000001000.000001000.000001000.00000
     Eigenvalues --- 1000.000001000.00000
 RFO step:  Lambda=-2.36594338D-02 EMin= 2.30834024D-03
 Linear search not attempted -- first point.
 Iteration  1 RMS(Cart)=  0.05506882 RMS(Int)=  0.00106807
 Iteration  2 RMS(Cart)=  0.00113054 RMS(Int)=  0.00025729
 Iteration  3 RMS(Cart)=  0.00000091 RMS(Int)=  0.00025728
 Iteration  1 RMS(Cart)=  0.00002847 RMS(Int)=  0.00002077
 Iteration  2 RMS(Cart)=  0.00001464 RMS(Int)=  0.00002308
 Iteration  3 RMS(Cart)=  0.00000813 RMS(Int)=  0.00002568
 Iteration  4 RMS(Cart)=  0.00000489 RMS(Int)=  0.00002738
 Iteration  5 RMS(Cart)=  0.00000316 RMS(Int)=  0.00002847
 Iteration  6 RMS(Cart)=  0.00000216 RMS(Int)=  0.00002919
 Iteration  7 RMS(Cart)=  0.00000155 RMS(Int)=  0.00002971
 Iteration  8 RMS(Cart)=  0.00000116 RMS(Int)=  0.00003009
 Iteration  9 RMS(Cart)=  0.00000089 RMS(Int)=  0.00003038
 Variable       Old X    -DE/DX   Delta X   Delta X   Delta X     New X
                                 (Linear)    (Quad)   (Total)
    R1        2.32407   0.01786   0.00000   0.01909   0.01909   2.34316
    R2        2.32742   0.01590   0.00000   0.01714   0.01714   2.34455
    R3        2.88773  -0.03785   0.00000  -0.11840  -0.11840   2.76933
    R4        2.64487  -0.03463   0.00000  -0.07492  -0.07469   2.57018
    R5        2.80974  -0.02198   0.00000  -0.06368  -0.06348   2.74626
    R6        2.59001  -0.02466   0.00000  -0.04743  -0.04730   2.54271
    R7        2.08370  -0.01045   0.00000  -0.02923  -0.02923   2.05447
    R8        2.82350  -0.01931   0.00000  -0.05285  -0.05289   2.77061
    R9        1.93297  -0.00661   0.00000  -0.01430  -0.01430   1.91867
   R10        2.11849  -0.01202   0.00000  -0.03554  -0.03554   2.08295
   R11        2.92754  -0.01294   0.00000  -0.04398  -0.04401   2.88353
   R12        2.90239  -0.00418   0.00000  -0.00785  -0.00782   2.89457
   R13        2.91144  -0.00460   0.00000  -0.01437  -0.01440   2.89704
   R14        2.09907  -0.00993   0.00000  -0.02848  -0.02848   2.07060
   R15        2.09893  -0.00805   0.00000  -0.02308  -0.02308   2.07585
   R16        2.90434  -0.00181   0.00000  -0.00714  -0.00717   2.89717
   R17        2.10141  -0.01058   0.00000  -0.03044  -0.03044   2.07097
   R18        2.10316  -0.00900   0.00000  -0.02597  -0.02597   2.07719
   R19        2.91764  -0.00906   0.00000  -0.02882  -0.02879   2.88885
   R20        2.10410  -0.01167   0.00000  -0.03372  -0.03372   2.07038
   R21        2.10109  -0.00994   0.00000  -0.02860  -0.02860   2.07249
   R22        2.93523  -0.01061   0.00000  -0.03639  -0.03636   2.89886
   R23        2.10153  -0.01074   0.00000  -0.03092  -0.03092   2.07061
   R24        2.09791  -0.00784   0.00000  -0.02244  -0.02244   2.07547
   R25        2.10753  -0.00919   0.00000  -0.02670  -0.02670   2.08082
   R26        2.76765  -0.00516   0.00000  -0.01061  -0.01100   2.75665
   R27        2.44252  -0.00577   0.00000  -0.00809  -0.00821   2.43432
   R28        2.08017  -0.00620   0.00000  -0.01726  -0.01726   2.06291
    A1        2.15810   0.01104   0.00000   0.04048   0.04034   2.19845
    A2        2.05382  -0.00764   0.00000  -0.02781  -0.02795   2.02587
    A3        2.07116  -0.00339   0.00000  -0.01225  -0.01239   2.05876
    A4        2.03138  -0.00762   0.00000  -0.02441  -0.02473   2.00666
    A5        2.03233  -0.00298   0.00000  -0.00744  -0.00781   2.02452
    A6        2.21867   0.01055   0.00000   0.03049   0.03059   2.24926
    A7        2.20232   0.00621   0.00000   0.01877   0.01909   2.22141
    A8        2.06356  -0.00336   0.00000  -0.01054  -0.01075   2.05281
    A9        2.01627  -0.00281   0.00000  -0.00751  -0.00775   2.00853
   A10        2.25483  -0.00577   0.00000  -0.01919  -0.01922   2.23560
   A11        2.11330  -0.01246   0.00000  -0.07123  -0.07178   2.04153
   A12        1.87275   0.01845   0.00000   0.09987   0.10004   1.97279
   A13        1.83824  -0.00174   0.00000  -0.01753  -0.01732   1.82093
   A14        2.00668  -0.00096   0.00000  -0.01272  -0.01277   1.99391
   A15        1.96769   0.00101   0.00000   0.00029  -0.00020   1.96750
   A16        1.85191   0.00270   0.00000   0.02417   0.02402   1.87593
   A17        1.84905   0.00090   0.00000   0.01996   0.01972   1.86877
   A18        1.93627  -0.00159   0.00000  -0.00958  -0.00924   1.92702
   A19        1.91006   0.00014   0.00000  -0.00488  -0.00502   1.90504
   A20        1.92264  -0.00072   0.00000  -0.01312  -0.01309   1.90955
   A21        1.92277  -0.00167   0.00000  -0.00692  -0.00691   1.91585
   A22        1.91930  -0.00042   0.00000   0.00541   0.00537   1.92467
   A23        1.90455   0.00308   0.00000   0.02486   0.02488   1.92943
   A24        1.88431  -0.00038   0.00000  -0.00492  -0.00518   1.87914
   A25        1.94048  -0.00087   0.00000   0.00557   0.00548   1.94596
   A26        1.91892  -0.00071   0.00000  -0.00688  -0.00690   1.91202
   A27        1.90499   0.00031   0.00000  -0.00297  -0.00304   1.90195
   A28        1.91612   0.00077   0.00000   0.00708   0.00712   1.92324
   A29        1.89850   0.00173   0.00000   0.01125   0.01127   1.90977
   A30        1.88379  -0.00122   0.00000  -0.01454  -0.01462   1.86917
   A31        1.94465   0.00073   0.00000   0.00542   0.00552   1.95017
   A32        1.90240   0.00056   0.00000   0.00581   0.00578   1.90819
   A33        1.91743   0.00039   0.00000   0.00521   0.00518   1.92261
   A34        1.90665  -0.00116   0.00000  -0.01432  -0.01436   1.89228
   A35        1.91535  -0.00050   0.00000   0.00011   0.00003   1.91538
   A36        1.87599  -0.00005   0.00000  -0.00262  -0.00266   1.87333
   A37        1.94740  -0.00303   0.00000  -0.01836  -0.01835   1.92905
   A38        1.90601   0.00252   0.00000   0.01673   0.01659   1.92261
   A39        1.91086   0.00143   0.00000   0.01343   0.01337   1.92423
   A40        1.90620   0.00024   0.00000  -0.00297  -0.00284   1.90336
   A41        1.91152  -0.00022   0.00000  -0.00455  -0.00448   1.90704
   A42        1.88061  -0.00087   0.00000  -0.00378  -0.00396   1.87664
   A43        1.84672   0.00464   0.00000   0.02338   0.02338   1.87010
   A44        1.93792  -0.00430   0.00000  -0.03064  -0.03105   1.90687
   A45        1.98385   0.00061   0.00000   0.01008   0.01036   1.99421
   A46        1.88151   0.00213   0.00000   0.02936   0.02967   1.91118
   A47        1.89206  -0.00396   0.00000  -0.02861  -0.02865   1.86341
   A48        1.91728   0.00107   0.00000  -0.00137  -0.00129   1.91599
   A49        2.08668  -0.00612   0.00000  -0.01419  -0.01468   2.07200
   A50        2.25506  -0.00529   0.00000  -0.02401  -0.02380   2.23127
   A51        1.97619   0.00576   0.00000   0.02909   0.02898   2.00517
   A52        2.05128  -0.00049   0.00000  -0.00510  -0.00521   2.04607
    D1       -3.03737  -0.00063   0.00000  -0.03303  -0.03245  -3.06983
    D2        0.14413   0.00046   0.00000   0.00000  -0.00000   0.14413
    D3        0.11945  -0.00175   0.00000  -0.06271  -0.06242   0.05702
    D4       -2.98223  -0.00065   0.00000  -0.02968  -0.02997  -3.01220
    D5        3.07137   0.00050   0.00000   0.01046   0.01036   3.08173
    D6       -0.01891  -0.00041   0.00000  -0.00703  -0.00724  -0.02615
    D7       -0.11504  -0.00116   0.00000  -0.02784  -0.02839  -0.14344
    D8        3.07786  -0.00206   0.00000  -0.04532  -0.04599   3.03187
    D9        0.02401   0.00034   0.00000   0.00000   0.00001   0.02402
   D10       -2.73337  -0.00122   0.00000  -0.02464  -0.02517  -2.75854
   D11        0.44842  -0.00050   0.00000  -0.02384  -0.02433   0.42408
   D12        0.45307   0.00054   0.00000   0.01405   0.01427   0.46734
   D13       -2.64833   0.00126   0.00000   0.01486   0.01511  -2.63322
   D14       -0.09088  -0.00047   0.00000   0.01157   0.01168  -0.07920
   D15        2.70126   0.00368   0.00000   0.06697   0.06566   2.76693
   D16        3.00062   0.00039   0.00000   0.02854   0.02880   3.02941
   D17       -0.49042   0.00454   0.00000   0.08393   0.08278  -0.40764
   D18       -2.51411  -0.00056   0.00000  -0.00807  -0.00764  -2.52175
   D19        1.73717  -0.00221   0.00000  -0.01939  -0.01902   1.71815
   D20       -0.50583  -0.00001   0.00000   0.00554   0.00553  -0.50030
   D21        0.93964   0.00004   0.00000  -0.03323  -0.03392   0.90572
   D22       -1.09227  -0.00161   0.00000  -0.04455  -0.04530  -1.13757
   D23        2.94792   0.00060   0.00000  -0.01962  -0.02076   2.92716
   D24        2.94408   0.00233   0.00000   0.02748   0.02736   2.97144
   D25       -1.22692   0.00145   0.00000   0.02275   0.02266  -1.20425
   D26        0.85004  -0.00052   0.00000   0.00419   0.00417   0.85421
   D27        0.91998   0.00323   0.00000   0.04012   0.04009   0.96007
   D28        3.03217   0.00234   0.00000   0.03540   0.03539   3.06756
   D29       -1.17406   0.00038   0.00000   0.01683   0.01690  -1.15716
   D30       -1.08054   0.00146   0.00000   0.00794   0.00794  -1.07259
   D31        1.03165   0.00057   0.00000   0.00322   0.00324   1.03490
   D32        3.10861  -0.00139   0.00000  -0.01535  -0.01525   3.09336
   D33       -2.89961  -0.00090   0.00000  -0.01414  -0.01390  -2.91351
   D34       -0.86279   0.00210   0.00000   0.01846   0.01832  -0.84448
   D35        1.30939   0.00058   0.00000   0.00000  -0.00001   1.30938
   D36       -0.89785  -0.00193   0.00000  -0.02314  -0.02307  -0.92092
   D37        1.13896   0.00106   0.00000   0.00946   0.00915   1.14812
   D38       -2.97204  -0.00046   0.00000  -0.00900  -0.00917  -2.98121
   D39        1.10445   0.00096   0.00000   0.01166   0.01174   1.11620
   D40        3.14127   0.00396   0.00000   0.04425   0.04397  -3.09795
   D41       -0.96974   0.00244   0.00000   0.02580   0.02564  -0.94409
   D42        0.95666   0.00069   0.00000   0.00000   0.00001   0.95667
   D43        3.08231   0.00061   0.00000   0.00798   0.00794   3.09025
   D44       -1.13768  -0.00112   0.00000  -0.01552  -0.01549  -1.15317
   D45       -1.15756   0.00176   0.00000   0.01593   0.01600  -1.14156
   D46        0.96809   0.00168   0.00000   0.02391   0.02394   0.99203
   D47        3.03129  -0.00005   0.00000   0.00041   0.00050   3.03179
   D48        3.06183   0.00063   0.00000   0.00384   0.00380   3.06563
   D49       -1.09571   0.00055   0.00000   0.01182   0.01174  -1.08397
   D50        0.96749  -0.00117   0.00000  -0.01168  -0.01169   0.95580
   D51       -0.92193  -0.00080   0.00000   0.00000   0.00001  -0.92193
   D52        1.18347  -0.00142   0.00000  -0.01059  -0.01060   1.17287
   D53       -3.04838  -0.00092   0.00000  -0.00735  -0.00738  -3.05575
   D54       -3.04921   0.00014   0.00000   0.00016   0.00017  -3.04904
   D55       -0.94381  -0.00047   0.00000  -0.01043  -0.01043  -0.95424
   D56        1.10753   0.00002   0.00000  -0.00719  -0.00721   1.10032
   D57        1.17625   0.00016   0.00000   0.00705   0.00708   1.18333
   D58       -3.00153  -0.00046   0.00000  -0.00354  -0.00352  -3.00505
   D59       -0.95019   0.00004   0.00000  -0.00030  -0.00030  -0.95049
   D60        0.98804  -0.00090   0.00000  -0.01166  -0.01168   0.97636
   D61        3.09704  -0.00085   0.00000  -0.01598  -0.01611   3.08093
   D62       -1.13090   0.00039   0.00000  -0.00301  -0.00297  -1.13387
   D63       -1.11487  -0.00129   0.00000  -0.01290  -0.01288  -1.12775
   D64        0.99413  -0.00125   0.00000  -0.01722  -0.01731   0.97682
   D65        3.04937  -0.00001   0.00000  -0.00425  -0.00417   3.04520
   D66        3.11569  -0.00026   0.00000  -0.00137  -0.00137   3.11432
   D67       -1.05849  -0.00021   0.00000  -0.00570  -0.00580  -1.06429
   D68        0.99675   0.00103   0.00000   0.00727   0.00734   1.00409
   D69       -1.05337   0.00010   0.00000  -0.00042  -0.00034  -1.05371
   D70       -3.12793   0.00161   0.00000   0.00831   0.00798  -3.11995
   D71        1.08064   0.00132   0.00000   0.00933   0.00931   1.08995
   D72        3.12092  -0.00128   0.00000  -0.00760  -0.00747   3.11346
   D73        1.04636   0.00023   0.00000   0.00114   0.00086   1.04722
   D74       -1.02825  -0.00005   0.00000   0.00215   0.00218  -1.02607
   D75        1.06519  -0.00024   0.00000   0.00136   0.00153   1.06672
   D76       -1.00937   0.00127   0.00000   0.01009   0.00985  -0.99952
   D77       -3.08398   0.00099   0.00000   0.01111   0.01118  -3.07281
   D78       -1.17216   0.00391   0.00000   0.00000  -0.00000  -1.17216
   D79        3.06298   0.00040   0.00000  -0.01616  -0.01606   3.04692
   D80        1.01110  -0.00048   0.00000  -0.03409  -0.03433   0.97676
   D81        0.15962   0.00095   0.00000   0.00440   0.00437   0.16400
   D82       -3.02362   0.00032   0.00000   0.00420   0.00416  -3.01946
         Item               Value     Threshold  Converged?
 Maximum Force            0.037845     0.000450     NO 
 RMS     Force            0.006964     0.000300     NO 
 Maximum Displacement     0.293054     0.001800     NO 
 RMS     Displacement     0.055201     0.001200     NO 
 Predicted change in Energy=-1.316227D-02
 GradGradGradGradGradGradGradGradGradGradGradGradGradGradGradGradGradGrad

                          Input orientation:                          
 ---------------------------------------------------------------------
 Center     Atomic      Atomic             Coordinates (Angstroms)
 Number     Number       Type             X           Y           Z
 ---------------------------------------------------------------------
      1          8           0       -3.481589   -1.421216   -0.234292
      2          7           0       -3.127587   -0.246998   -0.051621
      3          8           0       -3.881562    0.721460    0.129784
      4          6           0       -1.682283   -0.005469   -0.032918
      5          6           0       -1.317370    1.272556    0.255714
      6          7           0       -0.067887    1.750395    0.400437
      7          6           0        1.194269    1.004843    0.374290
      8          1           0        1.830104    1.518780    1.113572
      9          6           0        1.921382    1.050705   -0.966445
     10          6           0        3.322617    0.451657   -0.799393
     11          6           0        3.262685   -0.960779   -0.206201
     12          6           0        2.446169   -0.998098    1.085647
     13          6           0        1.035974   -0.443553    0.846853
     14          1           0        0.470602   -0.457535    1.791645
     15          7           0        0.396325   -1.324336   -0.124248
     16          6           0       -0.843639   -1.129490   -0.413984
     17          1           0       -2.110142    1.998195    0.419766
     18          1           0        0.059131    2.750760    0.282123
     19          1           0        1.351351    0.481856   -1.709455
     20          1           0        1.985514    2.089100   -1.319023
     21          1           0        3.831627    0.433151   -1.769748
     22          1           0        3.912470    1.101372   -0.137436
     23          1           0        2.796760   -1.638616   -0.929931
     24          1           0        4.276163   -1.333627   -0.014809
     25          1           0        2.368289   -2.027281    1.453504
     26          1           0        2.941617   -0.404670    1.865787
     27          1           0       -1.329978   -1.870161   -1.051610
 ---------------------------------------------------------------------
                    Distance matrix (angstroms):
                    1          2          3          4          5
     1  O    0.000000
     2  N    1.239949   0.000000
     3  O    2.209885   1.240685   0.000000
     4  C    2.298346   1.465465   2.322009   0.000000
     5  C    3.490037   2.383356   2.625766   1.360080   0.000000
     6  N    4.702697   3.681806   3.959303   2.424279   1.345542
     7  C    5.302810   4.519618   5.089613   3.075891   2.528649
     8  H    6.218874   5.390208   5.850358   3.996828   3.271565
     9  C    5.986530   5.292733   5.914751   3.869545   3.468776
    10  C    7.079846   6.530882   7.268863   5.083845   4.828728
    11  C    6.760031   6.431870   7.347318   5.039380   5.116449
    12  C    6.087658   5.737968   6.626518   4.390970   4.473129
    13  C    4.746902   4.263934   5.104274   2.890474   2.971987
    14  H    4.544547   4.048322   4.805532   2.858025   2.923892
    15  N    3.880684   3.685632   4.748698   2.463405   3.134481
    16  C    2.660108   2.475180   3.598705   1.453258   2.538256
    17  H    3.741796   2.509640   2.202742   2.098251   1.087176
    18  H    5.496251   4.387837   4.435125   3.275450   2.020035
    19  H    5.399547   4.831204   5.551900   3.500171   3.407223
    20  H    6.586970   5.762591   6.196133   4.415203   3.749078
    21  H    7.699314   7.200362   7.948876   5.797600   5.596362
    22  H    7.813126   7.168532   7.807860   5.704146   5.247389
    23  H    6.320510   6.148652   7.161910   4.851148   5.177524
    24  H    7.761351   7.483156   8.413844   6.104704   6.176811
    25  H    6.118582   5.969879   6.954744   4.764905   5.089962
    26  H    6.833833   6.366831   7.130053   5.014469   4.852257
    27  H    2.344993   2.620312   3.823974   2.153818   3.403811
                    6          7          8          9         10
     6  N    0.000000
     7  C    1.466141   0.000000
     8  H    2.040729   1.102250   0.000000
     9  C    2.512991   1.525898   2.133986   0.000000
    10  C    3.823850   2.492671   2.650619   1.533045   0.000000
    11  C    4.337186   2.911869   3.153141   2.534390   1.533116
    12  C    3.787374   2.466790   2.591330   2.946876   2.534428
    13  C    2.496238   1.531739   2.133666   2.510937   2.956394
    14  H    2.664654   2.161282   2.492760   3.462169   3.959053
    15  N    3.153530   2.512037   3.416318   2.945490   3.489006
    16  C    3.091732   3.054476   4.061485   3.564239   4.472836
    17  H    2.057324   3.450790   4.029484   4.367208   5.778668
    18  H    1.015314   2.084529   2.312017   2.813732   4.135927
    19  H    2.841667   2.154108   3.045307   1.095713   2.171409
    20  H    2.699578   2.160784   2.503385   1.098493   2.176942
    21  H    4.653068   3.446648   3.673992   2.162338   1.095912
    22  H    4.068633   2.767633   2.464852   2.157372   1.099200
    23  H    4.632654   3.355123   3.883231   2.828440   2.159354
    24  H    5.343631   3.888175   3.923350   3.483626   2.170728
    25  H    4.616789   3.425902   3.602742   3.940797   3.483019
    26  H    3.981039   2.695276   2.345411   3.343731   2.825180
    27  H    4.099968   4.082973   5.114592   4.371505   5.205872
                   11         12         13         14         15
    11  C    0.000000
    12  C    1.528712   0.000000
    13  C    2.516880   1.534011   0.000000
    14  H    3.469924   2.166450   1.101124   0.000000
    15  N    2.890486   2.402528   1.458756   2.104164   0.000000
    16  C    4.115037   3.617871   2.364988   2.653969   1.288185
    17  H    6.165600   5.493736   4.005320   3.817447   4.197325
    18  H    4.927143   4.516363   3.387740   3.569471   4.109166
    19  H    2.827395   3.346862   2.736888   3.730399   2.585978
    20  H    3.488738   3.940232   3.465108   4.296110   3.950259
    21  H    2.170579   3.481558   3.928216   4.977281   4.194965
    22  H    2.163195   2.837911   3.410255   4.242405   4.271710
    23  H    1.095598   2.143766   2.772275   3.770006   2.551468
    24  H    1.096715   2.161588   3.468936   4.302686   3.881393
    25  H    2.166100   1.095720   2.156683   2.485892   2.621465
    26  H    2.169211   1.098291   2.161299   2.472692   3.359247
    27  H    4.757546   4.425793   3.352179   3.649890   2.034219
                   16         17         18         19         20
    16  C    0.000000
    17  H    3.475858   0.000000
    18  H    4.044243   2.300227   0.000000
    19  H    3.015404   4.337603   3.283922   0.000000
    20  H    4.379785   4.450399   2.590833   1.771392   0.000000
    21  H    5.112539   6.522879   4.879879   2.481487   2.520606
    22  H    5.260588   6.114460   4.212449   3.068285   2.466762
    23  H    3.711862   6.255060   5.313221   2.682027   3.834759
    24  H    5.139395   7.216286   5.878243   3.836969   4.320081
    25  H    3.822306   6.109781   5.434522   4.163441   4.977752
    26  H    4.477821   5.777976   4.557791   4.012135   4.156445
    27  H    1.091644   4.211625   5.006135   3.626882   5.171049
                   21         22         23         24         25
    21  H    0.000000
    22  H    1.765644   0.000000
    23  H    2.463424   3.062742   0.000000
    24  H    2.529610   2.465061   1.766097   0.000000
    25  H    4.310967   3.834586   2.452634   2.505410   0.000000
    26  H    3.835515   2.687679   3.059354   2.486084   1.769618
    27  H    5.697643   6.094996   4.135020   5.726399   4.469615
                   26         27
    26  H    0.000000
    27  H    5.376374   0.000000
 Symmetry turned off by external request.
 Stoichiometry    C9H13N3O2
 Framework group  C1[X(C9H13N3O2)]
 Deg. of freedom    75
 Full point group                 C1      NOp   1
 Rotational constants (GHZ):           1.6858768           0.4217292           0.3723437
 Standard basis: 6-31G(d) (6D, 7F)
   236 basis functions,   444 primitive gaussians,   236 cartesian basis functions
    52 alpha electrons       52 beta electrons
       nuclear repulsion energy       932.1516067691 Hartrees.
 NAtoms=   27 NActive=   27 NUniq=   27 SFac= 1.00D+00 NAtFMM=   60 NAOKFM=F Big=F
 Integral buffers will be    131072 words long.
 Raffenetti 1 integral format.
 Two-electron integral symmetry is turned off.
 One-electron integrals computed using PRISM.
 NBasis=   236 RedAO= T EigKep=  1.01D-03  NBF=   236
 NBsUse=   236 1.00D-06 EigRej= -1.00D+00 NBFU=   236
 Initial guess from the checkpoint file:  "/home/alexey/tmp/Gau-1608042.chk"
 B after Tr=     0.056642    0.005754    0.000268
         Rot=    0.999999   -0.001352    0.000121    0.000936 Ang=  -0.19 deg.
 ExpMin= 1.61D-01 ExpMax= 5.48D+03 ExpMxC= 8.25D+02 IAcc=3 IRadAn=         5 AccDes= 0.00D+00
 Harris functional with IExCor=  205 and IRadAn=       5 diagonalized for initial guess.
 HarFok:  IExCor=  205 AccDes= 0.00D+00 IRadAn=         5 IDoV= 1 UseB2=F ITyADJ=14
 ICtDFT=  3500011 ScaDFX=  1.000000  1.000000  1.000000  1.000000
 FoFCou: FMM=F IPFlag=           0 FMFlag=      100000 FMFlg1=           0
         NFxFlg=           0 DoJE=T BraDBF=F KetDBF=T FulRan=T
         wScrn=  0.000000 ICntrl=       500 IOpCl=  0 I1Cent=   200000004 NGrid=           0
         NMat0=    1 NMatS0=      1 NMatT0=    0 NMatD0=    1 NMtDS0=    0 NMtDT0=    0
 Symmetry not used in FoFCou.
 Keep R1 ints in memory in canonical form, NReq=397720213.
 Requested convergence on RMS density matrix=1.00D-08 within 128 cycles.
 Requested convergence on MAX density matrix=1.00D-06.
 Requested convergence on             energy=1.00D-06.
 No special actions if energy rises.
 SCF Done:  E(RHF) =  -661.298557166     A.U. after   15 cycles
            NFock= 15  Conv=0.39D-08     -V/T= 2.0024
 ExpMin= 1.61D-01 ExpMax= 5.48D+03 ExpMxC= 8.25D+02 IAcc=3 IRadAn=         5 AccDes= 0.00D+00
 HarFok:  IExCor=  205 AccDes= 0.00D+00 IRadAn=         5 IDoV=-2 UseB2=F ITyADJ=14
 ICtDFT= 12500011 ScaDFX=  1.000000  1.000000  1.000000  1.000000
 Range of M.O.s used for correlation:    15   236
 NBasis=   236 NAE=    52 NBE=    52 NFC=    14 NFV=     0
 NROrb=    222 NOA=    38 NOB=    38 NVA=   184 NVB=   184
 Fully direct method using O(ONN) memory.
 JobTyp=1 Pass  1:  I=  15 to  52 NPSUse=  4 ParTrn=T ParDer=T DoDerP=T.
 Spin components of T(2) and E(2):
     alpha-alpha T2 =       0.9124949774D-01 E2=     -0.2723367363D+00
     alpha-beta  T2 =       0.4912089827D+00 E2=     -0.1487971350D+01
     beta-beta   T2 =       0.9124949774D-01 E2=     -0.2723367363D+00
 ANorm=    0.1293718663D+01
 E2 =    -0.2032644822D+01 EUMP2 =    -0.66333120198821D+03
          IDoAtm=111111111111111111111111111
          Differentiating once with respect to electric field.
                with respect to dipole field.
          Differentiating once with respect to nuclear coordinates.
 Keep R1 ints in memory in canonical form, NReq=397723379.
          There are     1 degrees of freedom in the 1st order CPHF.  IDoFFX=0 NUNeed=     1.
 LinEq1:  Iter=  0 NonCon=     1 RMS=4.57D-03 Max=1.06D-01 NDo=     1
 AX will form     1 AO Fock derivatives at one time.
 LinEq1:  Iter=  1 NonCon=     1 RMS=1.53D-03 Max=2.75D-02 NDo=     1
 LinEq1:  Iter=  2 NonCon=     1 RMS=6.42D-04 Max=1.79D-02 NDo=     1
 LinEq1:  Iter=  3 NonCon=     1 RMS=2.80D-04 Max=8.21D-03 NDo=     1
 LinEq1:  Iter=  4 NonCon=     1 RMS=8.71D-05 Max=1.94D-03 NDo=     1
 LinEq1:  Iter=  5 NonCon=     1 RMS=3.64D-05 Max=1.78D-03 NDo=     1
 LinEq1:  Iter=  6 NonCon=     1 RMS=1.41D-05 Max=5.31D-04 NDo=     1
 LinEq1:  Iter=  7 NonCon=     1 RMS=5.36D-06 Max=9.70D-05 NDo=     1
[...]
    26  H    2.175725   1.098803   2.167073   2.497220   3.362877
    27  H    4.724161   4.418670   3.356688   3.656565   2.029376
                   16         17         18         19         20
    16  C    0.000000
    17  H    3.463940   0.000000
    18  H    4.088370   2.235829   0.000000
    19  H    2.990857   4.303482   3.511795   0.000000
    20  H    4.375294   4.449346   2.881882   1.768540   0.000000
    21  H    5.096749   6.511338   5.086445   2.499224   2.521039
    22  H    5.248853   6.100586   4.313225   3.070243   2.461462
    23  H    3.695116   6.235093   5.421179   2.704208   3.842917
    24  H    5.133921   7.200930   5.936690   3.849634   4.317118
    25  H    3.821487   6.088333   5.369786   4.171506   4.985070
    26  H    4.495275   5.781327   4.485402   4.036057   4.182368
    27  H    1.089677   4.215394   5.079422   3.583612   5.148182
                   21         22         23         24         25
    21  H    0.000000
    22  H    1.758867   0.000000
    23  H    2.469450   3.062285   0.000000
    24  H    2.517333   2.459898   1.764584   0.000000
    25  H    4.311999   3.839533   2.444072   2.519677   0.000000
    26  H    3.846743   2.704416   3.060428   2.491703   1.767989
    27  H    5.653239   6.060644   4.090596   5.694869   4.454364
                   26         27
    26  H    0.000000
    27  H    5.378545   0.000000
 Symmetry turned off by external request.
 Stoichiometry    C9H13N3O2
 Framework group  C1[X(C9H13N3O2)]
 Deg. of freedom    75
 Full point group                 C1      NOp   1
 Rotational constants (GHZ):           1.6800521           0.4193398           0.3721369

 **********************************************************************

            Population analysis using the SCF Density.

 **********************************************************************

 Alpha  occ. eigenvalues --  -20.59236 -20.58904 -15.84722 -15.64136 -15.56111
 Alpha  occ. eigenvalues --  -11.35018 -11.29623 -11.29559 -11.28627 -11.27134
 Alpha  occ. eigenvalues --  -11.23729 -11.23208 -11.22692 -11.22089  -1.57115
 Alpha  occ. eigenvalues --   -1.36709  -1.30978  -1.23064  -1.14703  -1.09819
 Alpha  occ. eigenvalues --   -1.02805  -1.01308  -0.94482  -0.89684  -0.85566
 Alpha  occ. eigenvalues --   -0.82448  -0.78609  -0.77411  -0.75203  -0.72020
 Alpha  occ. eigenvalues --   -0.69770  -0.69438  -0.67820  -0.64892  -0.63777
 Alpha  occ. eigenvalues --   -0.62368  -0.60281  -0.57700  -0.57001  -0.55077
 Alpha  occ. eigenvalues --   -0.54582  -0.50762  -0.50108  -0.48656  -0.48102
 Alpha  occ. eigenvalues --   -0.47372  -0.46146  -0.46044  -0.43678  -0.41696
 Alpha  occ. eigenvalues --   -0.39847  -0.33829
 Alpha virt. eigenvalues --    0.07464   0.11799   0.17307   0.21848   0.24113
 Alpha virt. eigenvalues --    0.25664   0.27134   0.28694   0.29044   0.29635
 Alpha virt. eigenvalues --    0.30683   0.31797   0.32036   0.32766   0.33950
 Alpha virt. eigenvalues --    0.34386   0.35850   0.37312   0.38581   0.40292
 Alpha virt. eigenvalues --    0.41387   0.42443   0.45025   0.46117   0.46730
 Alpha virt. eigenvalues --    0.47077   0.48999   0.53996   0.57579   0.59405
 Alpha virt. eigenvalues --    0.63913   0.69543   0.69909   0.72861   0.74243
 Alpha virt. eigenvalues --    0.74867   0.75781   0.76677   0.78660   0.79441
 Alpha virt. eigenvalues --    0.81386   0.84692   0.85718   0.85806   0.88530
 Alpha virt. eigenvalues --    0.89424   0.91051   0.92113   0.92853   0.94527
 Alpha virt. eigenvalues --    0.95643   0.98039   0.99638   1.01675   1.02471
 Alpha virt. eigenvalues --    1.03152   1.05873   1.06969   1.07901   1.09014
 Alpha virt. eigenvalues --    1.10283   1.11422   1.11855   1.12443   1.13916
 Alpha virt. eigenvalues --    1.14766   1.14990   1.15832   1.16903   1.18726
 Alpha virt. eigenvalues --    1.19136   1.21337   1.22576   1.23915   1.24536
 Alpha virt. eigenvalues --    1.24828   1.26039   1.26910   1.27486   1.29557
 Alpha virt. eigenvalues --    1.30007   1.33127   1.36070   1.37181   1.40860
 Alpha virt. eigenvalues --    1.41852   1.46490   1.48741   1.51699   1.54291
 Alpha virt. eigenvalues --    1.56375   1.58780   1.59555   1.63464   1.65629
 Alpha virt. eigenvalues --    1.68031   1.68628   1.72991   1.75224   1.77370
 Alpha virt. eigenvalues --    1.81579   1.84599   1.87684   1.90653   1.93494
 Alpha virt. eigenvalues --    1.95815   1.96956   1.99718   2.01572   2.02522
 Alpha virt. eigenvalues --    2.05102   2.05605   2.08496   2.09559   2.12395
 Alpha virt. eigenvalues --    2.13264   2.15296   2.18824   2.20013   2.22452
 Alpha virt. eigenvalues --    2.22636   2.24491   2.25493   2.28214   2.29548
 Alpha virt. eigenvalues --    2.31994   2.33724   2.34701   2.36398   2.38464
 Alpha virt. eigenvalues --    2.40482   2.41927   2.43866   2.45135   2.47364
 Alpha virt. eigenvalues --    2.50720   2.51947   2.53114   2.55573   2.61505
 Alpha virt. eigenvalues --    2.62309   2.65192   2.67625   2.70317   2.70495
 Alpha virt. eigenvalues --    2.72271   2.72649   2.76983   2.78441   2.83805
 Alpha virt. eigenvalues --    2.88566   2.88948   2.92944   2.93136   2.96057
 Alpha virt. eigenvalues --    2.99438   3.01343   3.04314   3.05724   3.07677
 Alpha virt. eigenvalues --    3.09414   3.15048   3.21212   3.25217   3.27458
 Alpha virt. eigenvalues --    3.33447   3.37784   3.38785   3.52165   3.65799
 Alpha virt. eigenvalues --    4.13676   4.28073   4.34716   4.38920   4.46295
 Alpha virt. eigenvalues --    4.56308   4.61872   4.62353   4.73464   4.79739
 Alpha virt. eigenvalues --    4.99415   5.00898   5.05022   5.11166
          Condensed to atoms (all electrons):
               1          2          3          4          5          6
     1  O    8.316123   0.306954  -0.082534  -0.085468   0.004639  -0.000016
     2  N    0.306954   5.722370   0.301240   0.264169  -0.053641   0.000970
     3  O   -0.082534   0.301240   8.353633  -0.092656   0.003638   0.000785
     4  C   -0.085468   0.264169  -0.092656   5.225623   0.560330  -0.047281
     5  C    0.004639  -0.053641   0.003638   0.560330   4.709989   0.317420
     6  N   -0.000016   0.000970   0.000785  -0.047281   0.317420   7.195587
     7  C    0.000004  -0.000140   0.000002   0.004630  -0.030204   0.169265
     8  H   -0.000000   0.000002  -0.000000  -0.000261   0.003095  -0.050675
     9  C   -0.000000  -0.000004  -0.000000   0.000855   0.000626  -0.061653
    10  C    0.000000   0.000000   0.000000  -0.000038  -0.000052   0.003748
    11  C   -0.000000  -0.000000  -0.000000  -0.000028   0.000025  -0.000190
    12  C   -0.000000   0.000002  -0.000000  -0.000127  -0.000176   0.003873
    13  C   -0.000025  -0.000039  -0.000004  -0.011557  -0.000585  -0.047691
    14  H   -0.000004  -0.000105   0.000001   0.002645   0.006077  -0.006959
    15  N    0.000382   0.002362  -0.000016  -0.063523  -0.006396   0.001597
    16  C    0.000836  -0.027272   0.002548   0.328493  -0.050329  -0.001857
    17  H    0.000220  -0.007232   0.017391  -0.023147   0.374515  -0.034185
    18  H    0.000001  -0.000050   0.000012   0.001506  -0.031446   0.338680
    19  H    0.000001  -0.000004   0.000000  -0.001226   0.001233  -0.000352
    20  H    0.000000  -0.000000   0.000000  -0.000079   0.000153  -0.000429
    21  H   -0.000000   0.000000   0.000000   0.000001   0.000001  -0.000077
    22  H   -0.000000   0.000000  -0.000000  -0.000000  -0.000003  -0.000117
    23  H    0.000000  -0.000000   0.000000   0.000040  -0.000000  -0.000031
    24  H    0.000000   0.000000   0.000000   0.000000  -0.000000   0.000006
    25  H    0.000000  -0.000000   0.000000   0.000024   0.000000  -0.000090
    26  H    0.000000  -0.000000   0.000000   0.000006  -0.000002  -0.000060
    27  H    0.006129  -0.000880   0.000018  -0.063394   0.002214   0.000017
               7          8          9         10         11         12
     1  O    0.000004  -0.000000  -0.000000   0.000000  -0.000000  -0.000000
     2  N   -0.000140   0.000002  -0.000004   0.000000  -0.000000   0.000002
     3  O    0.000002  -0.000000  -0.000000   0.000000  -0.000000  -0.000000
     4  C    0.004630  -0.000261   0.000855  -0.000038  -0.000028  -0.000127
     5  C   -0.030204   0.003095   0.000626  -0.000052   0.000025  -0.000176
     6  N    0.169265  -0.050675  -0.061653   0.003748  -0.000190   0.003873
     7  C    5.017562   0.418416   0.350529  -0.054670  -0.009029  -0.061068
     8  H    0.418416   0.538093  -0.055047   0.000777  -0.000325  -0.002230
     9  C    0.350529  -0.055047   5.158236   0.324774  -0.050416  -0.005342
    10  C   -0.054670   0.000777   0.324774   5.119311   0.337000  -0.060990
    11  C   -0.009029  -0.000325  -0.050416   0.337000   5.119924   0.335972
    12  C   -0.061068  -0.002230  -0.005342  -0.060990   0.335972   5.118624
    13  C    0.338597  -0.037937  -0.060238  -0.000286  -0.050691   0.371989
    14  H   -0.046593  -0.000746   0.004422  -0.000405   0.004195  -0.036320
    15  N   -0.057957   0.003900  -0.014614   0.001561  -0.013051  -0.082056
    16  C   -0.001776   0.000009  -0.001271  -0.000029   0.000029   0.002608
    17  H    0.001616  -0.000045  -0.000070   0.000001   0.000000   0.000000
    18  H   -0.021215  -0.004473   0.001327  -0.000083   0.000004  -0.000114
    19  H   -0.036859   0.004362   0.390221  -0.032068  -0.002212   0.000689
    20  H   -0.042415  -0.002077   0.399487  -0.035302   0.003931  -0.000415
    21  H    0.004599  -0.000076  -0.036355   0.402432  -0.034896   0.004349
    22  H   -0.004848   0.003559  -0.046955   0.397752  -0.045403  -0.001021
    23  H    0.000577   0.000035  -0.001958  -0.039020   0.399178  -0.037865
    24  H   -0.000130  -0.000102   0.004388  -0.038437   0.402340  -0.038691
    25  H    0.005151  -0.000025  -0.000423   0.004190  -0.033400   0.398273
    26  H   -0.003905   0.001685   0.000969  -0.002232  -0.041482   0.396728
    27  H   -0.000407   0.000009  -0.000058   0.000007   0.000012  -0.000036
              13         14         15         16         17         18
     1  O   -0.000025  -0.000004   0.000382   0.000836   0.000220   0.000001
     2  N   -0.000039  -0.000105   0.002362  -0.027272  -0.007232  -0.000050
     3  O   -0.000004   0.000001  -0.000016   0.002548   0.017391   0.000012
     4  C   -0.011557   0.002645  -0.063523   0.328493  -0.023147   0.001506
     5  C   -0.000585   0.006077  -0.006396  -0.050329   0.374515  -0.031446
     6  N   -0.047691  -0.006959   0.001597  -0.001857  -0.034185   0.338680
     7  C    0.338597  -0.046593  -0.057957  -0.001776   0.001616  -0.021215
     8  H   -0.037937  -0.000746   0.003900   0.000009  -0.000045  -0.004473
     9  C   -0.060238   0.004422  -0.014614  -0.001271  -0.000070   0.001327
    10  C   -0.000286  -0.000405   0.001561  -0.000029   0.000001  -0.000083
    11  C   -0.050691   0.004195  -0.013051   0.000029   0.000000   0.000004
    12  C    0.371989  -0.036320  -0.082056   0.002608   0.000000  -0.000114
    13  C    5.040238   0.403079   0.244781  -0.071084  -0.000008   0.002971
    14  H    0.403079   0.526775  -0.037370  -0.004539   0.000093  -0.000108
    15  N    0.244781  -0.037370   6.965123   0.585188  -0.000080  -0.000132
    16  C   -0.071084  -0.004539   0.585188   4.709954   0.002013  -0.000197
    17  H   -0.000008   0.000093  -0.000080   0.002013   0.376496  -0.002818
    18  H    0.002971  -0.000108  -0.000132  -0.000197  -0.002818   0.310598
    19  H   -0.007547   0.000106   0.007696   0.003002   0.000016  -0.000149
    20  H    0.004340  -0.000066   0.000126  -0.000036   0.000002   0.000807
    21  H   -0.000433   0.000010  -0.000041   0.000004  -0.000000   0.000001
    22  H    0.000045  -0.000055   0.000019  -0.000002   0.000000   0.000001
    23  H   -0.007522   0.000003   0.008589   0.000106   0.000000   0.000000
    24  H    0.004699  -0.000057   0.000135   0.000007   0.000000  -0.000000
    25  H   -0.035561  -0.002817   0.000409  -0.000022  -0.000000   0.000002
    26  H   -0.047407  -0.001047   0.004899  -0.000061   0.000000  -0.000000
    27  H    0.005059  -0.000174  -0.040315   0.403668  -0.000079   0.000001
              19         20         21         22         23         24
     1  O    0.000001   0.000000  -0.000000  -0.000000   0.000000   0.000000
     2  N   -0.000004  -0.000000   0.000000   0.000000  -0.000000   0.000000
     3  O    0.000000   0.000000   0.000000  -0.000000   0.000000   0.000000
     4  C   -0.001226  -0.000079   0.000001  -0.000000   0.000040   0.000000
     5  C    0.001233   0.000153   0.000001  -0.000003  -0.000000  -0.000000
     6  N   -0.000352  -0.000429  -0.000077  -0.000117  -0.000031   0.000006
     7  C   -0.036859  -0.042415   0.004599  -0.004848   0.000577  -0.000130
     8  H    0.004362  -0.002077  -0.000076   0.003559   0.000035  -0.000102
     9  C    0.390221   0.399487  -0.036355  -0.046955  -0.001958   0.004388
    10  C   -0.032068  -0.035302   0.402432   0.397752  -0.039020  -0.038437
    11  C   -0.002212   0.003931  -0.034896  -0.045403   0.399178   0.402340
    12  C    0.000689  -0.000415   0.004349  -0.001021  -0.037865  -0.038691
    13  C   -0.007547   0.004340  -0.000433   0.000045  -0.007522   0.004699
    14  H    0.000106  -0.000066   0.000010  -0.000055   0.000003  -0.000057
    15  N    0.007696   0.000126  -0.000041   0.000019   0.008589   0.000135
    16  C    0.003002  -0.000036   0.000004  -0.000002   0.000106   0.000007
    17  H    0.000016   0.000002  -0.000000   0.000000   0.000000   0.000000
    18  H   -0.000149   0.000807   0.000001   0.000001   0.000000  -0.000000
    19  H    0.504949  -0.024737  -0.002787   0.003959   0.001514  -0.000066
    20  H   -0.024737   0.541158  -0.002692  -0.002990  -0.000045  -0.000083
    21  H   -0.002787  -0.002692   0.524023  -0.027403  -0.002898  -0.002242
    22  H    0.003959  -0.002990  -0.027403   0.571321   0.004137  -0.003656
    23  H    0.001514  -0.000045  -0.002898   0.004137   0.498964  -0.025450
    24  H   -0.000066  -0.000083  -0.002242  -0.003656  -0.025450   0.538125
    25  H   -0.000029   0.000012  -0.000087  -0.000080  -0.002318  -0.002291
    26  H    0.000019  -0.000030  -0.000081   0.002380   0.004067  -0.003035
    27  H    0.000083   0.000000  -0.000000   0.000000  -0.000035  -0.000000
              25         26         27
     1  O    0.000000   0.000000   0.006129
     2  N   -0.000000  -0.000000  -0.000880
     3  O    0.000000   0.000000   0.000018
     4  C    0.000024   0.000006  -0.063394
     5  C    0.000000  -0.000002   0.002214
     6  N   -0.000090  -0.000060   0.000017
     7  C    0.005151  -0.003905  -0.000407
     8  H   -0.000025   0.001685   0.000009
     9  C   -0.000423   0.000969  -0.000058
    10  C    0.004190  -0.002232   0.000007
    11  C   -0.033400  -0.041482   0.000012
    12  C    0.398273   0.396728  -0.000036
    13  C   -0.035561  -0.047407   0.005059
    14  H   -0.002817  -0.001047  -0.000174
    15  N    0.000409   0.004899  -0.040315
    16  C   -0.000022  -0.000061   0.403668
    17  H   -0.000000   0.000000  -0.000079
    18  H    0.000002  -0.000000   0.000001
    19  H   -0.000029   0.000019   0.000083
    20  H    0.000012  -0.000030   0.000000
    21  H   -0.000087  -0.000081  -0.000000
    22  H   -0.000080   0.002380   0.000000
    23  H   -0.002318   0.004067  -0.000035
    24  H   -0.002291  -0.003035  -0.000000
    25  H    0.506111  -0.024081  -0.000013
    26  H   -0.024081   0.562319   0.000001
    27  H   -0.000013   0.000001   0.439260
 Mulliken charges:
               1
     1  O   -0.467242
     2  N    0.491298
     3  O   -0.504057
     4  C    0.000462
     5  C    0.188879
     6  N   -0.780286
     7  C    0.060267
     8  H    0.180076
     9  C   -0.301431
    10  C   -0.327940
    11  C   -0.321488
    12  C   -0.306656
    13  C   -0.037183
    14  H    0.189957
    15  N   -0.511217
    16  C    0.120012
    17  H    0.295299
    18  H    0.404873
    19  H    0.190187
    20  H    0.161380
    21  H    0.174648
    22  H    0.149361
    23  H    0.199934
    24  H    0.164540
    25  H    0.187063
    26  H    0.150349
    27  H    0.248915
 Sum of Mulliken charges =  -0.00000
 Mulliken charges with hydrogens summed into heavy atoms:
               1
     1  O   -0.467242
     2  N    0.491298
     3  O   -0.504057
     4  C    0.000462
     5  C    0.484178
     6  N   -0.375412
     7  C    0.240343
     9  C    0.050136
    10  C   -0.003931
    11  C    0.042986
    12  C    0.030755
    13  C    0.152774
    15  N   -0.511217
    16  C    0.368927
 Electronic spatial extent (au):  <R**2>=           3005.3679
 Charge=              0.0000 electrons
 Dipole moment (field-independent basis, Debye):
    X=              5.4159    Y=              4.7961    Z=              1.2814  Tot=              7.3469
 Quadrupole moment (field-independent basis, Debye-Ang):
   XX=           -106.1398   YY=            -79.2248   ZZ=            -81.5017
   XY=             -1.7664   XZ=             -0.1327   YZ=              1.8551
 Traceless Quadrupole moment (field-independent basis, Debye-Ang):
   XX=            -17.1844   YY=              9.7306   ZZ=              7.4537
   XY=             -1.7664   XZ=             -0.1327   YZ=              1.8551
 Octapole moment (field-independent basis, Debye-Ang**2):
  XXX=             92.4009  YYY=             36.2819  ZZZ=             -1.4823  XYY=             -4.5788
  XXY=              9.5328  XXZ=              4.9301  XZZ=             -9.7588  YZZ=             -0.3916
  YYZ=              7.9983  XYZ=              0.2539
 Hexadecapole moment (field-independent basis, Debye-Ang**3):
 XXXX=          -3382.0888 YYYY=           -601.0560 ZZZZ=           -303.8036 XXXY=            -20.9193
 XXXZ=            -13.5139 YYYX=             -8.9769 YYYZ=             24.9924 ZZZX=              1.8540
 ZZZY=              7.0739 XXYY=           -627.7708 XXZZ=           -523.8101 YYZZ=           -157.3253
 XXYZ=             -4.3003 YYXZ=              1.6755 ZZXY=              4.6867
 N-N= 9.312327659120D+02 E-N=-3.409181844172D+03  KE= 6.596287942316D+02
 Unable to Open any file for archive entry.
 1\1\GINC-LOTUS\FOpt\RMP2-FC\6-31G(d)\C9H13N3O2\ALEXEY\03-Jul-2023\0\\#
 MP2/6-31G* SCF=Tight Opt=(ModRedun, MaxCycle=20 ) NoSymm\\MolName:\\0,
 1\O,-3.5067651249,-1.3904214396,-0.3712511091\N,-3.1211068576,-0.23232
 12098,-0.1185137988\O,-3.8954259796,0.7286514807,0.0557678772\C,-1.686
 6685735,-0.023841417,-0.0096513695\C,-1.3014370919,1.2606295721,0.2753
 424427\N,-0.0572058235,1.7501610912,0.3863728772\C,1.2056126385,1.0239
 91506,0.3593175115\H,1.8533533485,1.5528886811,1.0747673265\C,1.909138
 8545,1.0351385657,-0.9964941976\C,3.3075227,0.4284955409,-0.8324241746
 \C,3.2595250721,-0.9676354683,-0.2059074747\C,2.4645090445,-0.97831667
 49,1.1015422947\C,1.0547791151,-0.424618604,0.8650988425\H,0.478225727
 5,-0.4033251045,1.8035121454\N,0.4082366565,-1.3179497075,-0.091151288
 7\C,-0.8391112241,-1.138136804,-0.3865124487\H,-2.0961989798,1.9875372
 1,0.4189521915\H,0.0016790121,2.7353396616,0.615495365\H,1.3149014716,
 0.4576965084,-1.7126995516\H,1.9751144423,2.06308372,-1.3741949566\H,3
 .8115168809,0.3904447594,-1.8049430042\H,3.9072866018,1.0947794194,-0.
 196106498\H,2.7818583832,-1.6643855298,-0.9018057856\H,4.2786919746,-1
 .3311543867,-0.0287644693\H,2.3790695324,-2.0002696087,1.4853327168\H,
 2.9744663673,-0.3805133577,1.8696189053\H,-1.3005581686,-1.892948404,-
 1.0226903691\\Version=ES64L-G16RevC.02\HF=-661.3003595\MP2=-663.334649
 4\RMSD=5.306e-09\RMSF=6.502e-06\Dipole=1.9792338,1.6918883,0.4712626\P
 G=C01 [X(C9H13N3O2)]\\@
 The archive entry for this job was punched.


 SUPPORT THE RIGHT TO ARM BEARS!
 (ADD A CLAWS TO THE BILL OF RIGHTS)
 Job cpu time:       0 days  1 hours 11 minutes 59.0 seconds.
 Elapsed time:       0 days  0 hours 21 minutes 37.1 seconds.
 File lengths (MBytes):  RWF=     36 Int=      0 D2E=      0 Chk=      7 Scr=      1
 Normal termination of Gaussian 16 at Mon Jul  3 01:05:29 2023.
