 Entering Gaussian System, Link 0=g16
 Initial command:
 /home/alexey/programs//g16/l1.exe "/home/alexey/tmp/Gau-1610855.inp" -scrdir="/home/alexey/tmp/"
 Entering Link 1 = /home/alexey/programs//g16/l1.exe PID=   1610857.
  
 Copyright (c) 1988-2021, Gaussian, Inc.  All Rights Reserved.
  
 This is part of the Gaussian(R) 16 program.  It is based on
 the Gaussian(R) 09 system (copyright 2009, Gaussian, Inc.),
 the Gaussian(R) 03 system (copyright 2003, Gaussian, Inc.),
 the Gaussian(R) 98 system (copyright 1998, Gaussian, Inc.),
 the Gaussian(R) 94 system (copyright 1995, Gaussian, Inc.),
 the Gaussian 92(TM) system (copyright 1992, Gaussian, Inc.),
 the Gaussian 90(TM) system (copyright 1990, Gaussian, Inc.),
 the Gaussian 88(TM) system (copyright 1988, Gaussian, Inc.),
 the Gaussian 86(TM) system (copyright 1986, Carnegie Mellon
 University), and the Gaussian 82(TM) system (copyright 1983,
 Carnegie Mellon University). Gaussian is a federally registered
 trademark of Gaussian, Inc.
  
 This software contains proprietary and confidential information,
 including trade secrets, belonging to Gaussian, Inc.
  
 This software is provided under written license and may be
 used, copied, transmitted, or stored only in accord with that
 written license.
  
 The following legend is applicable only to US Government
 contracts under FAR:
  
                    RESTRICTED RIGHTS LEGEND
  
 Use, reproduction and disclosure by the US Government is
 subject to restrictions as set forth in subparagraphs (a)
 and (c) of the Commercial Computer Software - Restricted
 Rights clause in FAR 52.227-19.
  
 Gaussian, Inc.
 340 Quinnipiac St., Bldg. 40, Wallingford CT 06492
  
  
 ---------------------------------------------------------------
 Warning -- This program may not be used in any manner that
 competes with the business of Gaussian, Inc. or will provide
 assistance to any competitor of Gaussian, Inc.  The licensee
 of this program is prohibited from giving any competitor of
 Gaussian, Inc. access to this program.  By using this program,
 the user acknowledges that Gaussian, Inc. is engaged in the
 business of creating and licensing software in the field of
 computational chemistry and represents and warrants to the
 licensee that it is not a competitor of Gaussian, Inc. and that
 it will not use this program in any manner prohibited above.
 ---------------------------------------------------------------
  

 Cite this work as:
 Gaussian 16, Revision C.02,
 M. J. Frisch, G. W. Trucks, H. B. Schlegel, G. E. Scuseria, 
 M. A. Robb, J. R. Cheeseman, G. Scalmani, V. Barone, 
 G. A. Petersson, H. Nakatsuji, X. Li, M. Caricato, A. V. Marenich, 
 J. Bloino, B. G. Janesko, R. Gomperts, B. Mennucci, H. P. Hratchian, 
 J. V. Ortiz, A. F. Izmaylov, J. L. Sonnenberg, D. Williams-Young, 
 F. Ding, F. Lipparini, F. Egidi, J. Goings, B. Peng, A. Petrone, 
 T. Henderson, D. Ranasinghe, V. G. Zakrzewski, J. Gao, N. Rega, 
 G. Zheng, W. Liang, M. Hada, M. Ehara, K. Toyota, R. Fukuda, 
 J. Hasegawa, M. Ishida, T. Nakajima, Y. Honda, O. Kitao, H. Nakai, 
 T. Vreven, K. Throssell, J. A. Montgomery, Jr., J. E. Peralta, 
 F. Ogliaro, M. J. Bearpark, J. J. Heyd, E. N. Brothers, K. N. Kudin, 
 V. N. Staroverov, T. A. Keith, R. Kobayashi, J. Normand, 
 K. Raghavachari, A. P. Rendell, J. C. Burant, S. S. Iyengar, 
 J. Tomasi, M. Cossi, J. M. Millam, M. Klene, C. Adamo, R. Cammi, 
 J. W. Ochterski, R. L. Martin, K. Morokuma, O. Farkas, 
 J. B. Foresman, and D. J. Fox, Gaussian, Inc., Wallingford CT, 2019.
 
 ******************************************
 Gaussian 16:  ES64L-G16RevC.02  7-Dec-2021
                 3-Jul-2023 
 ******************************************
 %mem=8GB
 %NPROCS=4
 Will use up to    4 processors via shared memory.
 %NoSave
 ---------------------------------------------------------
 #MP2/6-31G* SCF=Tight Opt=(ModRedun, MaxCycle=20 ) NoSymm
 ---------------------------------------------------------
 1/6=20,18=120,19=15,38=1/1,3;
 2/9=110,12=2,15=1,17=6,18=5,40=1/2;
 3/5=1,6=6,7=1,11=9,25=1,30=1,71=1/1,2,3;
 4//1;
 5/5=2,32=2,38=5/2;
 8/6=4,10=2/1;
 9/15=2,16=-3/6;
 10/5=1,31=1/2;
 6/7=2,8=2,9=2,10=2/1;
 7/12=2,30=1/1,2,3,16;
 1/6=20,18=20,19=15/3(2);
 2/9=110,15=1/2;
 99//99;
 2/9=110,15=1/2;
 3/5=1,6=6,7=1,11=9,25=1,30=1,71=1/1,2,3;
 4/5=5,16=3,69=1/1;
 5/5=2,32=2,38=5/2;
 8/6=4,10=2/1;
 9/15=2,16=-3/6;
 10/5=1,31=1/2;
 7/12=2,30=1/1,2,3,16;
 1/6=20,18=20,19=15/3(-8);
 2/9=110,15=1/2;
 6/7=2,8=2,9=2,10=2/1;
 99/9=10/99;
 --------
 MolName:
 --------
 Symbolic Z-matrix:
 Charge =  0 Multiplicity = 1
 8                    0    -3.64486  -1.39476  -0.30151 
 7                    0    -3.25935  -0.23597  -0.15563 
 8                    0    -4.01754   0.73396  -0.11676 
 6                    0    -1.75253   0.00331  -0.04123 
 6                    0    -1.35881   1.31236   0.25895 
 7                    0    -0.08035   1.74302   0.4923 
 6                    0     1.20103   0.98347   0.41109 
 1                    0     1.89171   1.4864    1.1371 
 6                    0     1.90997   1.03913  -0.96537 
 6                    0     3.33352   0.46513  -0.83172 
 6                    0     3.3076   -0.95032  -0.23328 
 6                    0     2.51179  -0.98865   1.0892 
 6                    0     1.06194  -0.46607   0.89633 
 1                    0     0.54764  -0.5065    1.88501 
 7                    0     0.37559  -1.34653  -0.05063 
 6                    0    -0.87884  -1.17147  -0.30765 
 1                    0    -2.14306   2.07961   0.36861 
 1                    0     0.15704   2.73511   0.41701 
 1                    0     1.33488   0.45639  -1.71602 
 1                    0     1.97231   2.08932  -1.32156 
 1                    0     3.82891   0.44396  -1.82706 
 1                    0     3.93222   1.12513  -0.16497 
 1                    0     2.83691  -1.64484  -0.96528 
 1                    0     4.34653  -1.30484  -0.05682 
 1                    0     2.47722  -2.03457   1.46545 
 1                    0     3.03079  -0.37148   1.85217 
 1                    0    -1.35927  -1.91628  -0.96074 
 
 The following ModRedundant input section has been read:
 D      16       4      15      27 F                                           
 D       1       2       4      16 F                                           
 D       7      13      15      16 F                                           
 D       7       9      10      11 F                                           
 D       9      10      11      12 F                                           
 D       6       7      13      15 F                                           
 

 GradGradGradGradGradGradGradGradGradGradGradGradGradGradGradGradGradGrad
 Berny optimization.
 Initialization pass.
                           ----------------------------
                           !    Initial Parameters    !
                           ! (Angstroms and Degrees)  !
 --------------------------                            --------------------------
 ! Name  Definition              Value          Derivative Info.                !
 --------------------------------------------------------------------------------
 ! R1    R(1,2)                  1.2299         estimate D2E/DX2                !
 ! R2    R(2,3)                  1.2317         estimate D2E/DX2                !
 ! R3    R(2,4)                  1.53           estimate D2E/DX2                !
 ! R4    R(4,5)                  1.3995         estimate D2E/DX2                !
 ! R5    R(4,16)                 1.4881         estimate D2E/DX2                !
 ! R6    R(5,6)                  1.3691         estimate D2E/DX2                !
 ! R7    R(5,17)                 1.1026         estimate D2E/DX2                !
 ! R8    R(6,7)                  1.4918         estimate D2E/DX2                !
 ! R9    R(6,18)                 1.0229         estimate D2E/DX2                !
 ! R10   R(7,8)                  1.1212         estimate D2E/DX2                !
 ! R11   R(7,9)                  1.5493         estimate D2E/DX2                !
 ! R12   R(7,13)                 1.5349         estimate D2E/DX2                !
 ! R13   R(9,10)                 1.5407         estimate D2E/DX2                !
 ! R14   R(9,19)                 1.1108         estimate D2E/DX2                !
 ! R15   R(9,20)                 1.1107         estimate D2E/DX2                !
 ! R16   R(10,11)                1.537          estimate D2E/DX2                !
 ! R17   R(10,21)                1.112          estimate D2E/DX2                !
 ! R18   R(10,22)                1.1129         estimate D2E/DX2                !
 ! R19   R(11,12)                1.5439         estimate D2E/DX2                !
 ! R20   R(11,23)                1.1134         estimate D2E/DX2                !
 ! R21   R(11,24)                1.1118         estimate D2E/DX2                !
 ! R22   R(12,13)                1.5532         estimate D2E/DX2                !
 ! R23   R(12,25)                1.1121         estimate D2E/DX2                !
 ! R24   R(12,26)                1.1101         estimate D2E/DX2                !
 ! R25   R(13,14)                1.1152         estimate D2E/DX2                !
 ! R26   R(13,15)                1.4639         estimate D2E/DX2                !
 ! R27   R(15,16)                1.2924         estimate D2E/DX2                !
 ! R28   R(16,27)                1.1009         estimate D2E/DX2                !
 ! A1    A(1,2,3)              123.5541         estimate D2E/DX2                !
 ! A2    A(1,2,4)              117.7049         estimate D2E/DX2                !
 ! A3    A(3,2,4)              118.7326         estimate D2E/DX2                !
 ! A4    A(2,4,5)              116.0642         estimate D2E/DX2                !
 ! A5    A(2,4,16)             116.1919         estimate D2E/DX2                !
 ! A6    A(5,4,16)             127.7079         estimate D2E/DX2                !
 ! A7    A(4,5,6)              126.4041         estimate D2E/DX2                !
 ! A8    A(4,5,17)             118.1702         estimate D2E/DX2                !
 ! A9    A(6,5,17)             115.3629         estimate D2E/DX2                !
 ! A10   A(5,6,7)              129.2467         estimate D2E/DX2                !
 ! A11   A(5,6,18)             120.6152         estimate D2E/DX2                !
 ! A12   A(7,6,18)             106.8865         estimate D2E/DX2                !
 ! A13   A(6,7,8)              105.3964         estimate D2E/DX2                !
 ! A14   A(6,7,9)              115.0316         estimate D2E/DX2                !
 ! A15   A(6,7,13)             112.6926         estimate D2E/DX2                !
 ! A16   A(8,7,9)              106.0989         estimate D2E/DX2                !
 ! A17   A(8,7,13)             105.946          estimate D2E/DX2                !
 ! A18   A(9,7,13)             110.8706         estimate D2E/DX2                !
 ! A19   A(7,9,10)             109.4105         estimate D2E/DX2                !
 ! A20   A(7,9,19)             110.1601         estimate D2E/DX2                !
 ! A21   A(7,9,20)             110.1552         estimate D2E/DX2                !
 ! A22   A(10,9,19)            109.9706         estimate D2E/DX2                !
 ! A23   A(10,9,20)            109.1605         estimate D2E/DX2                !
 ! A24   A(19,9,20)            107.9621         estimate D2E/DX2                !
 ! A25   A(9,10,11)            111.1793         estimate D2E/DX2                !
 ! A26   A(9,10,21)            109.9414         estimate D2E/DX2                !
 ! A27   A(9,10,22)            109.1519         estimate D2E/DX2                !
 ! A28   A(11,10,21)           109.785          estimate D2E/DX2                !
 ! A29   A(11,10,22)           108.7808         estimate D2E/DX2                !
 ! A30   A(21,10,22)           107.9315         estimate D2E/DX2                !
 ! A31   A(10,11,12)           111.4118         estimate D2E/DX2                !
 ! A32   A(10,11,23)           109.0017         estimate D2E/DX2                !
 ! A33   A(10,11,24)           109.8575         estimate D2E/DX2                !
 ! A34   A(12,11,23)           109.2533         estimate D2E/DX2                !
 ! A35   A(12,11,24)           109.7416         estimate D2E/DX2                !
 ! A36   A(23,11,24)           107.4854         estimate D2E/DX2                !
 ! A37   A(11,12,13)           111.4958         estimate D2E/DX2                !
 ! A38   A(11,12,25)           109.2187         estimate D2E/DX2                !
 ! A39   A(11,12,26)           109.507          estimate D2E/DX2                !
 ! A40   A(13,12,25)           109.2348         estimate D2E/DX2                !
 ! A41   A(13,12,26)           109.5546         estimate D2E/DX2                !
 ! A42   A(25,12,26)           107.7508         estimate D2E/DX2                !
 ! A43   A(7,13,12)            105.8079         estimate D2E/DX2                !
 ! A44   A(7,13,14)            110.8733         estimate D2E/DX2                !
 ! A45   A(7,13,15)            113.9525         estimate D2E/DX2                !
 ! A46   A(12,13,14)           107.9515         estimate D2E/DX2                !
 ! A47   A(12,13,15)           108.3985         estimate D2E/DX2                !
 ! A48   A(14,13,15)           109.6008         estimate D2E/DX2                !
 ! A49   A(13,15,16)           120.1489         estimate D2E/DX2                !
 ! A50   A(4,16,15)            129.8814         estimate D2E/DX2                !
 ! A51   A(4,16,27)            112.5865         estimate D2E/DX2                !
 ! A52   A(15,16,27)           116.7368         estimate D2E/DX2                !
 ! D1    D(1,2,4,5)           -173.7512         estimate D2E/DX2                !
 ! D2    D(1,2,4,16)             8.2578         Frozen                          !
 ! D3    D(3,2,4,5)              7.271          estimate D2E/DX2                !
 ! D4    D(3,2,4,16)          -170.72           estimate D2E/DX2                !
 ! D5    D(2,4,5,6)            175.582          estimate D2E/DX2                !
 ! D6    D(2,4,5,17)            -1.3912         estimate D2E/DX2                !
 ! D7    D(16,4,5,6)            -6.6968         estimate D2E/DX2                !
 ! D8    D(16,4,5,17)          176.33           estimate D2E/DX2                !
 ! D9    D(16,4,15,27)           6.4558         Frozen                          !
 ! D10   D(2,4,16,15)         -165.4838         estimate D2E/DX2                !
 ! D11   D(2,4,16,27)           25.2311         estimate D2E/DX2                !
 ! D12   D(5,4,16,15)           16.7974         estimate D2E/DX2                !
 ! D13   D(5,4,16,27)         -152.4877         estimate D2E/DX2                !
 ! D14   D(4,5,6,7)              4.0619         estimate D2E/DX2                !
 ! D15   D(4,5,6,18)           160.8808         estimate D2E/DX2                !
 ! D16   D(17,5,6,7)          -178.891          estimate D2E/DX2                !
 ! D17   D(17,5,6,18)          -22.0721         estimate D2E/DX2                !
 ! D18   D(5,6,7,8)           -151.9199         estimate D2E/DX2                !
 ! D19   D(5,6,7,9)             91.5909         estimate D2E/DX2                !
 ! D20   D(5,6,7,13)           -36.8313         estimate D2E/DX2                !
 ! D21   D(18,6,7,8)            48.8144         estimate D2E/DX2                !
 ! D22   D(18,6,7,9)           -67.6748         estimate D2E/DX2                !
 ! D23   D(18,6,7,13)          163.903          estimate D2E/DX2                !
 ! D24   D(6,7,9,10)           168.6885         estimate D2E/DX2                !
 ! D25   D(6,7,9,19)           -70.306          estimate D2E/DX2                !
 ! D26   D(6,7,9,20)            48.6868         estimate D2E/DX2                !
 ! D27   D(8,7,9,10)            52.6003         estimate D2E/DX2                !
 ! D28   D(8,7,9,19)           173.6058         estimate D2E/DX2                !
 ! D29   D(8,7,9,20)           -67.4014         estimate D2E/DX2                !
 ! D30   D(13,7,9,10)          -61.9861         estimate D2E/DX2                !
 ! D31   D(13,7,9,19)           59.0194         estimate D2E/DX2                !
 ! D32   D(13,7,9,20)          178.0122         estimate D2E/DX2                !
 ! D33   D(6,7,13,12)         -165.9837         estimate D2E/DX2                !
 ! D34   D(6,7,13,14)          -49.1896         estimate D2E/DX2                !
 ! D35   D(6,7,13,15)           75.0227         Frozen                          !
 ! D36   D(8,7,13,12)          -51.227          estimate D2E/DX2                !
 ! D37   D(8,7,13,14)           65.5672         estimate D2E/DX2                !
 ! D38   D(8,7,13,15)         -170.2206         estimate D2E/DX2                !
 ! D39   D(9,7,13,12)           63.4552         estimate D2E/DX2                !
 ! D40   D(9,7,13,14)         -179.7507         estimate D2E/DX2                !
 ! D41   D(9,7,13,15)          -55.5384         estimate D2E/DX2                !
 ! D42   D(7,9,10,11)           54.8121         Frozen                          !
 ! D43   D(7,9,10,21)          176.5976         estimate D2E/DX2                !
 ! D44   D(7,9,10,22)          -65.1921         estimate D2E/DX2                !
 ! D45   D(19,9,10,11)         -66.3083         estimate D2E/DX2                !
 ! D46   D(19,9,10,21)          55.4772         estimate D2E/DX2                !
 ! D47   D(19,9,10,22)         173.6876         estimate D2E/DX2                !
 ! D48   D(20,9,10,11)         175.4218         estimate D2E/DX2                !
 ! D49   D(20,9,10,21)         -62.7927         estimate D2E/DX2                !
 ! D50   D(20,9,10,22)          55.4177         estimate D2E/DX2                !
 ! D51   D(9,10,11,12)         -52.8219         Frozen                          !
 ! D52   D(9,10,11,23)          67.8179         estimate D2E/DX2                !
 ! D53   D(9,10,11,24)        -174.6506         estimate D2E/DX2                !
 ! D54   D(21,10,11,12)       -174.6985         estimate D2E/DX2                !
 ! D55   D(21,10,11,23)        -54.0586         estimate D2E/DX2                !
 ! D56   D(21,10,11,24)         63.4729         estimate D2E/DX2                !
 ! D57   D(22,10,11,12)         67.4021         estimate D2E/DX2                !
 ! D58   D(22,10,11,23)       -171.9581         estimate D2E/DX2                !
 ! D59   D(22,10,11,24)        -54.4265         estimate D2E/DX2                !
 ! D60   D(10,11,12,13)         56.6478         estimate D2E/DX2                !
 ! D61   D(10,11,12,25)        177.4619         estimate D2E/DX2                !
 ! D62   D(10,11,12,26)        -64.7614         estimate D2E/DX2                !
 ! D63   D(23,11,12,13)        -63.8443         estimate D2E/DX2                !
 ! D64   D(23,11,12,25)         56.9698         estimate D2E/DX2                !
 ! D65   D(23,11,12,26)        174.7465         estimate D2E/DX2                !
 ! D66   D(24,11,12,13)        178.5436         estimate D2E/DX2                !
 ! D67   D(24,11,12,25)        -60.6424         estimate D2E/DX2                !
 ! D68   D(24,11,12,26)         57.1344         estimate D2E/DX2                !
 ! D69   D(11,12,13,7)         -60.506          estimate D2E/DX2                !
 ! D70   D(11,12,13,14)       -179.2556         estimate D2E/DX2                !
 ! D71   D(11,12,13,15)         62.0986         estimate D2E/DX2                !
 ! D72   D(25,12,13,7)         178.6894         estimate D2E/DX2                !
 ! D73   D(25,12,13,14)         59.9397         estimate D2E/DX2                !
 ! D74   D(25,12,13,15)        -58.7061         estimate D2E/DX2                !
 ! D75   D(26,12,13,7)          60.8756         estimate D2E/DX2                !
 ! D76   D(26,12,13,14)        -57.8741         estimate D2E/DX2                !
 ! D77   D(26,12,13,15)       -176.5198         estimate D2E/DX2                !
 ! D78   D(7,13,15,16)         -67.1606         Frozen                          !
 ! D79   D(12,13,15,16)        175.3293         estimate D2E/DX2                !
 ! D80   D(14,13,15,16)         57.7328         estimate D2E/DX2                !
 ! D81   D(13,15,16,4)          16.1442         estimate D2E/DX2                !
 ! D82   D(13,15,16,27)       -174.9378         estimate D2E/DX2                !
 --------------------------------------------------------------------------------
 Trust Radius=3.00D-01 FncErr=1.00D-07 GrdErr=1.00D-07 EigMax=2.50D+02 EigMin=1.00D-04
 Number of steps in this run=     20 maximum allowed number of steps=    162.
 GradGradGradGradGradGradGradGradGradGradGradGradGradGradGradGradGradGrad

                          Input orientation:                          
 ---------------------------------------------------------------------
 Center     Atomic      Atomic             Coordinates (Angstroms)
 Number     Number       Type             X           Y           Z
 ---------------------------------------------------------------------
      1          8           0       -3.644860   -1.394760   -0.301510
      2          7           0       -3.259350   -0.235970   -0.155630
      3          8           0       -4.017540    0.733960   -0.116760
      4          6           0       -1.752530    0.003310   -0.041230
      5          6           0       -1.358810    1.312360    0.258950
      6          7           0       -0.080350    1.743020    0.492300
      7          6           0        1.201030    0.983470    0.411090
      8          1           0        1.891710    1.486400    1.137100
      9          6           0        1.909970    1.039130   -0.965370
     10          6           0        3.333520    0.465130   -0.831720
     11          6           0        3.307600   -0.950320   -0.233280
     12          6           0        2.511790   -0.988650    1.089200
     13          6           0        1.061940   -0.466070    0.896330
     14          1           0        0.547640   -0.506500    1.885010
     15          7           0        0.375590   -1.346530   -0.050630
     16          6           0       -0.878840   -1.171470   -0.307650
     17          1           0       -2.143060    2.079610    0.368610
     18          1           0        0.157040    2.735110    0.417010
     19          1           0        1.334880    0.456390   -1.716020
     20          1           0        1.972310    2.089320   -1.321560
     21          1           0        3.828910    0.443960   -1.827060
     22          1           0        3.932220    1.125130   -0.164970
     23          1           0        2.836910   -1.644840   -0.965280
     24          1           0        4.346530   -1.304840   -0.056820
     25          1           0        2.477220   -2.034570    1.465450
     26          1           0        3.030790   -0.371480    1.852170
     27          1           0       -1.359270   -1.916280   -0.960740
 ---------------------------------------------------------------------
                    Distance matrix (angstroms):
                    1          2          3          4          5
     1  O    0.000000
     2  N    1.229916   0.000000
     3  O    2.168979   1.231717   0.000000
     4  C    2.367120   1.529983   2.381139   0.000000
     5  C    3.587288   2.486213   2.746734   1.399548   0.000000
     6  N    4.814720   3.800297   4.109820   2.471322   1.369080
     7  C    5.444853   4.658669   5.251129   3.144650   2.585362
     8  H    6.405021   5.583111   6.087493   4.107128   3.371545
     9  C    6.100874   5.385483   5.995719   3.916742   3.501219
    10  C    7.241416   6.664426   7.390637   5.167790   4.891352
    11  C    6.966985   6.606145   7.517184   5.152787   5.209356
    12  C    6.324819   5.951654   6.859583   4.521756   4.578811
    13  C    4.944821   4.453438   5.316723   3.003428   3.070683
    14  H    4.811126   4.327883   5.136798   3.043204   3.096268
    15  N    4.028559   3.802257   4.861317   2.520129   3.189621
    16  C    2.775025   2.562245   3.676757   1.488093   2.592454
    17  H    3.843919   2.623517   2.357972   2.152093   1.102609
    18  H    5.659200   4.563656   4.660111   3.364398   2.084946
    19  H    5.497764   4.901135   5.593128   3.541511   3.448066
    20  H    6.688192   5.842656   6.258342   4.457030   3.768029
    21  H    7.846364   7.314329   8.035920   5.876720   5.658445
    22  H    7.986278   7.319246   7.959524   5.795703   5.311286
    23  H    6.520466   6.309107   7.304941   4.963187   5.277105
    24  H    7.995641   7.681254   8.609179   6.237791   6.284930
    25  H    6.404012   6.226644   7.235334   4.930905   5.231893
    26  H    7.088705   6.604202   7.401192   5.158060   4.964097
    27  H    2.435260   2.661193   3.847398   2.164481   3.451342
                    6          7          8          9         10
     6  N    0.000000
     7  C    1.491793   0.000000
     8  H    2.090608   1.121190   0.000000
     9  C    2.565470   1.549302   2.149596   0.000000
    10  C    3.878214   2.522056   2.645385   1.540725   0.000000
    11  C    4.388479   2.931278   3.133734   2.539141   1.536978
    12  C    3.812807   2.463165   2.551993   2.948786   2.545319
    13  C    2.519553   1.534917   2.135094   2.539825   3.002227
    14  H    2.719256   2.195306   2.517448   3.517042   4.010712
    15  N    3.169854   2.514644   3.425612   2.980343   3.555498
    16  C    3.125981   3.079970   4.102136   3.618951   4.549405
    17  H    2.093649   3.519413   4.149921   4.391942   5.834404
    18  H    1.022871   2.039165   2.255413   2.803585   4.099044
    19  H    2.921467   2.195524   3.084035   1.110761   2.185549
    20  H    2.761055   2.195416   2.532789   1.110701   2.175047
    21  H    4.727505   3.493729   3.691296   2.186108   1.112008
    22  H    4.112725   2.794872   2.447363   2.176587   1.112923
    23  H    4.702397   3.387995   3.888196   2.839527   2.171735
    24  H    5.402615   3.917840   3.904178   3.500926   2.181617
    25  H    4.664587   3.442223   3.584392   3.959582   3.501248
    26  H    3.999944   2.694554   2.293588   3.344337   2.827513
    27  H    4.139739   4.104340   5.152479   4.407085   5.264032
                   11         12         13         14         15
    11  C    0.000000
    12  C    1.543935   0.000000
    13  C    2.559982   1.553175   0.000000
    14  H    3.507351   2.173400   1.115180   0.000000
    15  N    2.964292   2.447579   1.463906   2.117063   0.000000
    16  C    4.192937   3.671646   2.390352   2.699035   1.292401
    17  H    6.265177   5.621485   4.126863   4.028312   4.272914
    18  H    4.891963   4.456801   3.360974   3.579892   4.114151
    19  H    2.840594   3.367865   2.783846   3.809767   2.635201
    20  H    3.493818   3.946733   3.503973   4.364637   3.996229
    21  H    2.180806   3.505959   3.987622   5.044757   4.276328
    22  H    2.168481   2.838773   3.449171   4.280189   4.332643
    23  H    1.113432   2.181095   2.829418   3.828933   2.642663
    24  H    1.111844   2.186232   3.521443   4.340463   3.971164
    25  H    2.179636   1.112074   2.187946   2.496860   2.681184
    26  H    2.181921   1.110127   2.190650   2.487035   3.409026
    27  H    4.820991   4.477483   3.378472   3.704332   2.040258
                   16         17         18         19         20
    16  C    0.000000
    17  H    3.553182   0.000000
    18  H    4.106038   2.392171   0.000000
    19  H    3.087716   4.367676   3.336119   0.000000
    20  H    4.448575   4.448937   2.595164   1.796768   0.000000
    21  H    5.203953   6.569684   4.875228   2.496532   2.531739
    22  H    5.333013   6.172906   4.145205   3.098249   2.471560
    23  H    3.803072   6.360102   5.317555   2.689772   3.849470
    24  H    5.233087   7.331458   5.839310   3.863277   4.330913
    25  H    3.892552   6.283034   5.406691   4.198997   5.002882
    26  H    4.537622   5.914179   4.468671   4.036516   4.153129
    27  H    1.100946   4.283531   5.082600   3.668577   5.222494
                   21         22         23         24         25
    21  H    0.000000
    22  H    1.799224   0.000000
    23  H    2.467755   3.084304   0.000000
    24  H    2.541649   2.467408   1.794395   0.000000
    25  H    4.337142   3.841744   2.487914   2.518756   0.000000
    26  H    3.852100   2.668571   3.097912   2.499315   1.794954
    27  H    5.765280   6.154940   4.204953   5.809224   4.540820
                   26         27
    26  H    0.000000
    27  H    5.437968   0.000000
 Symmetry turned off by external request.
 Stoichiometry    C9H13N3O2
 Framework group  C1[X(C9H13N3O2)]
 Deg. of freedom    75
 Full point group                 C1      NOp   1
 Rotational constants (GHZ):           1.6578872           0.3999022           0.3557739
 Standard basis: 6-31G(d) (6D, 7F)
   236 basis functions,   444 primitive gaussians,   236 cartesian basis functions
    52 alpha electrons       52 beta electrons
       nuclear repulsion energy       917.0594860660 Hartrees.
 NAtoms=   27 NActive=   27 NUniq=   27 SFac= 1.00D+00 NAtFMM=   60 NAOKFM=F Big=F
 Integral buffers will be    131072 words long.
 Raffenetti 1 integral format.
 Two-electron integral symmetry is turned off.
 One-electron integrals computed using PRISM.
 NBasis=   236 RedAO= T EigKep=  1.27D-03  NBF=   236
 NBsUse=   236 1.00D-06 EigRej= -1.00D+00 NBFU=   236
 ExpMin= 1.61D-01 ExpMax= 5.48D+03 ExpMxC= 8.25D+02 IAcc=3 IRadAn=         5 AccDes= 0.00D+00
 Harris functional with IExCor=  205 and IRadAn=       5 diagonalized for initial guess.
 HarFok:  IExCor=  205 AccDes= 0.00D+00 IRadAn=         5 IDoV= 1 UseB2=F ITyADJ=14
 ICtDFT=  3500011 ScaDFX=  1.000000  1.000000  1.000000  1.000000
 FoFCou: FMM=F IPFlag=           0 FMFlag=      100000 FMFlg1=           0
         NFxFlg=           0 DoJE=T BraDBF=F KetDBF=T FulRan=T
         wScrn=  0.000000 ICntrl=       500 IOpCl=  0 I1Cent=   200000004 NGrid=           0
         NMat0=    1 NMatS0=      1 NMatT0=    0 NMatD0=    1 NMtDS0=    0 NMtDT0=    0
 Symmetry not used in FoFCou.
 Keep R1 ints in memory in canonical form, NReq=397720213.
 Requested convergence on RMS density matrix=1.00D-08 within 128 cycles.
 Requested convergence on MAX density matrix=1.00D-06.
 Requested convergence on             energy=1.00D-06.
 No special actions if energy rises.
 SCF Done:  E(RHF) =  -661.281835379     A.U. after   16 cycles
            NFock= 16  Conv=0.76D-08     -V/T= 2.0037
 ExpMin= 1.61D-01 ExpMax= 5.48D+03 ExpMxC= 8.25D+02 IAcc=3 IRadAn=         5 AccDes= 0.00D+00
 HarFok:  IExCor=  205 AccDes= 0.00D+00 IRadAn=         5 IDoV=-2 UseB2=F ITyADJ=14
 ICtDFT= 12500011 ScaDFX=  1.000000  1.000000  1.000000  1.000000
 Range of M.O.s used for correlation:    15   236
 NBasis=   236 NAE=    52 NBE=    52 NFC=    14 NFV=     0
 NROrb=    222 NOA=    38 NOB=    38 NVA=   184 NVB=   184
 Fully direct method using O(ONN) memory.
 JobTyp=1 Pass  1:  I=  15 to  52 NPSUse=  4 ParTrn=T ParDer=T DoDerP=T.
 Spin components of T(2) and E(2):
     alpha-alpha T2 =       0.9201893585D-01 E2=     -0.2718165357D+00
     alpha-beta  T2 =       0.4995429158D+00 E2=     -0.1493628130D+01
     beta-beta   T2 =       0.9201893585D-01 E2=     -0.2718165357D+00
 ANorm=    0.1297528723D+01
 E2 =    -0.2037261201D+01 EUMP2 =    -0.66331909658035D+03
          IDoAtm=111111111111111111111111111
          Differentiating once with respect to electric field.
                with respect to dipole field.
          Differentiating once with respect to nuclear coordinates.
 Keep R1 ints in memory in canonical form, NReq=397723379.
          There are     1 degrees of freedom in the 1st order CPHF.  IDoFFX=0 NUNeed=     1.
 LinEq1:  Iter=  0 NonCon=     1 RMS=4.63D-03 Max=1.12D-01 NDo=     1
 AX will form     1 AO Fock derivatives at one time.
 LinEq1:  Iter=  1 NonCon=     1 RMS=1.57D-03 Max=2.98D-02 NDo=     1
 LinEq1:  Iter=  2 NonCon=     1 RMS=6.44D-04 Max=1.83D-02 NDo=     1
 LinEq1:  Iter=  3 NonCon=     1 RMS=2.94D-04 Max=9.20D-03 NDo=     1
 LinEq1:  Iter=  4 NonCon=     1 RMS=9.09D-05 Max=2.20D-03 NDo=     1
 LinEq1:  Iter=  5 NonCon=     1 RMS=3.78D-05 Max=1.85D-03 NDo=     1
 LinEq1:  Iter=  6 NonCon=     1 RMS=1.56D-05 Max=5.87D-04 NDo=     1
 LinEq1:  Iter=  7 NonCon=     1 RMS=5.95D-06 Max=9.50D-05 NDo=     1
 LinEq1:  Iter=  8 NonCon=     1 RMS=2.37D-06 Max=5.74D-05 NDo=     1
 LinEq1:  Iter=  9 NonCon=     1 RMS=8.81D-07 Max=2.52D-05 NDo=     1
 LinEq1:  Iter= 10 NonCon=     1 RMS=4.29D-07 Max=1.46D-05 NDo=     1
 LinEq1:  Iter= 11 NonCon=     1 RMS=1.53D-07 Max=5.73D-06 NDo=     1
 LinEq1:  Iter= 12 NonCon=     1 RMS=5.35D-08 Max=8.03D-07 NDo=     1
 LinEq1:  Iter= 13 NonCon=     1 RMS=1.66D-08 Max=2.82D-07 NDo=     1
 LinEq1:  Iter= 14 NonCon=     1 RMS=5.09D-09 Max=1.13D-07 NDo=     1
 LinEq1:  Iter= 15 NonCon=     1 RMS=1.84D-09 Max=4.27D-08 NDo=     1
 LinEq1:  Iter= 16 NonCon=     1 RMS=6.99D-10 Max=1.29D-08 NDo=     1
 LinEq1:  Iter= 17 NonCon=     1 RMS=2.34D-10 Max=3.93D-09 NDo=     1
 LinEq1:  Iter= 18 NonCon=     1 RMS=8.26D-11 Max=1.04D-09 NDo=     1
 LinEq1:  Iter= 19 NonCon=     0 RMS=2.82D-11 Max=3.98D-10 NDo=     1
 Linear equations converged to 1.000D-10 1.000D-09 after    19 iterations.
 End of Minotr F.D. properties file   721 does not exist.
 End of Minotr F.D. properties file   722 does not exist.
 End of Minotr F.D. properties file   788 does not exist.

 **********************************************************************

            Population analysis using the SCF Density.

 **********************************************************************

 Alpha  occ. eigenvalues --  -20.59753 -20.59339 -15.85227 -15.63685 -15.56634
 Alpha  occ. eigenvalues --  -11.35951 -11.30451 -11.30127 -11.30096 -11.27633
 Alpha  occ. eigenvalues --  -11.24672 -11.23914 -11.23380 -11.22868  -1.58418
 Alpha  occ. eigenvalues --   -1.37909  -1.28840  -1.22669  -1.13312  -1.08405
 Alpha  occ. eigenvalues --   -1.01815  -1.00737  -0.93678  -0.88958  -0.84960
 Alpha  occ. eigenvalues --   -0.81548  -0.77984  -0.77048  -0.74381  -0.71197
 Alpha  occ. eigenvalues --   -0.70268  -0.69721  -0.67366  -0.64323  -0.63218
 Alpha  occ. eigenvalues --   -0.61804  -0.60084  -0.57406  -0.56627  -0.54839
 Alpha  occ. eigenvalues --   -0.53917  -0.50680  -0.49607  -0.48479  -0.47879
 Alpha  occ. eigenvalues --   -0.47686  -0.46169  -0.45706  -0.43972  -0.42061
 Alpha  occ. eigenvalues --   -0.39700  -0.33736
 Alpha virt. eigenvalues --    0.07502   0.11748   0.17684   0.21429   0.23471
 Alpha virt. eigenvalues --    0.24416   0.26410   0.28083   0.28512   0.28854
 Alpha virt. eigenvalues --    0.29682   0.31310   0.31809   0.32326   0.33274
 Alpha virt. eigenvalues --    0.33889   0.34126   0.35506   0.37631   0.38608
 Alpha virt. eigenvalues --    0.40484   0.41337   0.44058   0.45210   0.45489
 Alpha virt. eigenvalues --    0.46533   0.49859   0.53248   0.57486   0.59120
 Alpha virt. eigenvalues --    0.63402   0.68855   0.69238   0.72293   0.74094
 Alpha virt. eigenvalues --    0.74857   0.75579   0.75822   0.78127   0.78878
 Alpha virt. eigenvalues --    0.80521   0.83602   0.84642   0.85371   0.87883
 Alpha virt. eigenvalues --    0.88848   0.90514   0.90925   0.92035   0.94091
 Alpha virt. eigenvalues --    0.94854   0.97097   0.98955   1.00552   1.01930
 Alpha virt. eigenvalues --    1.02883   1.05081   1.06514   1.07032   1.08475
 Alpha virt. eigenvalues --    1.09811   1.10512   1.10999   1.12014   1.13224
 Alpha virt. eigenvalues --    1.13795   1.14165   1.15656   1.16045   1.16908
 Alpha virt. eigenvalues --    1.18026   1.19948   1.21509   1.22278   1.22862
 Alpha virt. eigenvalues --    1.23293   1.24733   1.25186   1.27149   1.27607
 Alpha virt. eigenvalues --    1.29487   1.31507   1.33413   1.36467   1.39281
 Alpha virt. eigenvalues --    1.42577   1.46334   1.47843   1.51301   1.52761
 Alpha virt. eigenvalues --    1.55554   1.57312   1.59452   1.61800   1.64938
 Alpha virt. eigenvalues --    1.67399   1.70321   1.72247   1.73710   1.76426
 Alpha virt. eigenvalues --    1.78476   1.81085   1.85307   1.88270   1.91531
 Alpha virt. eigenvalues --    1.93959   1.95715   1.97762   1.99086   2.01978
 Alpha virt. eigenvalues --    2.02923   2.03445   2.05872   2.08865   2.11933
 Alpha virt. eigenvalues --    2.12392   2.13046   2.17603   2.18954   2.19942
 Alpha virt. eigenvalues --    2.20066   2.22108   2.23864   2.25162   2.25832
 Alpha virt. eigenvalues --    2.29262   2.31875   2.33028   2.34743   2.36134
 Alpha virt. eigenvalues --    2.39481   2.40177   2.42129   2.44031   2.46562
 Alpha virt. eigenvalues --    2.48587   2.50550   2.50723   2.56633   2.57230
 Alpha virt. eigenvalues --    2.60694   2.63804   2.65254   2.68137   2.68480
 Alpha virt. eigenvalues --    2.69186   2.69566   2.74237   2.76248   2.81122
 Alpha virt. eigenvalues --    2.84816   2.87012   2.89886   2.91309   2.94659
 Alpha virt. eigenvalues --    2.97630   2.98219   3.02309   3.04856   3.05960
 Alpha virt. eigenvalues --    3.07299   3.13772   3.18654   3.22732   3.27180
 Alpha virt. eigenvalues --    3.31545   3.33444   3.37778   3.43079   3.60551
 Alpha virt. eigenvalues --    4.10105   4.23383   4.32060   4.36711   4.43674
 Alpha virt. eigenvalues --    4.52431   4.59406   4.60367   4.70811   4.77895
 Alpha virt. eigenvalues --    4.97042   4.99213   5.03582   5.09443
          Condensed to atoms (all electrons):
               1          2          3          4          5          6
     1  O    8.300037   0.313135  -0.090024  -0.079786   0.003530  -0.000011
     2  N    0.313135   5.676253   0.310664   0.267848  -0.047989   0.000745
     3  O   -0.090024   0.310664   8.331702  -0.088717   0.008169   0.000479
     4  C   -0.079786   0.267848  -0.088717   5.253090   0.568209  -0.049325
     5  C    0.003530  -0.047989   0.008169   0.568209   4.675783   0.311253
     6  N   -0.000011   0.000745   0.000479  -0.049325   0.311253   7.171154
     7  C    0.000002  -0.000095   0.000002   0.005235  -0.029149   0.201691
     8  H   -0.000000   0.000001  -0.000000  -0.000224   0.002681  -0.047700
     9  C   -0.000000  -0.000004   0.000000   0.000538   0.001194  -0.057980
    10  C   -0.000000   0.000000   0.000000  -0.000022  -0.000051   0.003377
    11  C   -0.000000  -0.000000  -0.000000  -0.000011   0.000014  -0.000153
    12  C   -0.000000   0.000001  -0.000000  -0.000188  -0.000147   0.003668
    13  C   -0.000014  -0.000016  -0.000002  -0.009380   0.000318  -0.047187
    14  H   -0.000001  -0.000045   0.000000   0.002445   0.003720  -0.005259
    15  N    0.000326   0.001581  -0.000012  -0.060370  -0.004272   0.001954
    16  C    0.004262  -0.025830   0.002042   0.316033  -0.043113  -0.000259
    17  H    0.000143  -0.004358   0.012673  -0.024828   0.375162  -0.032551
    18  H    0.000000  -0.000034   0.000008   0.001264  -0.025595   0.330092
    19  H    0.000000  -0.000001   0.000000  -0.000888   0.000950   0.000217
    20  H    0.000000  -0.000000   0.000000  -0.000031   0.000010  -0.001132
    21  H   -0.000000  -0.000000  -0.000000   0.000001   0.000001  -0.000061
    22  H   -0.000000   0.000000  -0.000000  -0.000000  -0.000002  -0.000095
    23  H    0.000000  -0.000000   0.000000   0.000025  -0.000000  -0.000024
    24  H    0.000000   0.000000   0.000000   0.000000  -0.000000   0.000005
    25  H    0.000000  -0.000000   0.000000   0.000021  -0.000001  -0.000072
    26  H    0.000000  -0.000000   0.000000   0.000004  -0.000000  -0.000070
    27  H    0.004843  -0.000176  -0.000001  -0.068922   0.002083   0.000029
               7          8          9         10         11         12
     1  O    0.000002  -0.000000  -0.000000  -0.000000  -0.000000  -0.000000
     2  N   -0.000095   0.000001  -0.000004   0.000000  -0.000000   0.000001
     3  O    0.000002  -0.000000   0.000000   0.000000  -0.000000  -0.000000
     4  C    0.005235  -0.000224   0.000538  -0.000022  -0.000011  -0.000188
     5  C   -0.029149   0.002681   0.001194  -0.000051   0.000014  -0.000147
     6  N    0.201691  -0.047700  -0.057980   0.003377  -0.000153   0.003668
     7  C    5.021600   0.415734   0.341592  -0.049326  -0.007845  -0.065064
     8  H    0.415734   0.543932  -0.059201   0.001143  -0.000294  -0.002939
     9  C    0.341592  -0.059201   5.178545   0.318671  -0.053257  -0.005847
    10  C   -0.049326   0.001143   0.318671   5.126721   0.332701  -0.060445
    11  C   -0.007845  -0.000294  -0.053257   0.332701   5.124721   0.330353
    12  C   -0.065064  -0.002939  -0.005847  -0.060445   0.330353   5.138718
    13  C    0.325099  -0.039009  -0.052862  -0.001307  -0.047674   0.368858
    14  H   -0.040662  -0.001040   0.003863  -0.000393   0.003972  -0.040762
    15  N   -0.059446   0.003972  -0.012389   0.001356  -0.007651  -0.074822
    16  C   -0.001712  -0.000032  -0.000489  -0.000059   0.000013   0.002177
    17  H    0.001429  -0.000032  -0.000062   0.000001   0.000000   0.000001
    18  H   -0.029431  -0.003419   0.000928  -0.000117   0.000011  -0.000146
    19  H   -0.034994   0.004009   0.387255  -0.032918  -0.002192   0.000603
    20  H   -0.041878  -0.001827   0.397203  -0.037198   0.004129  -0.000373
    21  H    0.004064  -0.000076  -0.035853   0.400094  -0.035800   0.004225
    22  H   -0.004353   0.003529  -0.045687   0.395910  -0.045616  -0.001212
    23  H    0.000452   0.000035  -0.002014  -0.040102   0.396659  -0.036592
    24  H   -0.000145  -0.000103   0.004403  -0.038473   0.400331  -0.037858
    25  H    0.005039  -0.000005  -0.000377   0.004100  -0.033804   0.395162
    26  H   -0.004350   0.001506   0.001060  -0.002410  -0.042442   0.394606
    27  H   -0.000446   0.000008  -0.000048   0.000004   0.000007  -0.000022
              13         14         15         16         17         18
     1  O   -0.000014  -0.000001   0.000326   0.004262   0.000143   0.000000
     2  N   -0.000016  -0.000045   0.001581  -0.025830  -0.004358  -0.000034
     3  O   -0.000002   0.000000  -0.000012   0.002042   0.012673   0.000008
     4  C   -0.009380   0.002445  -0.060370   0.316033  -0.024828   0.001264
     5  C    0.000318   0.003720  -0.004272  -0.043113   0.375162  -0.025595
     6  N   -0.047187  -0.005259   0.001954  -0.000259  -0.032551   0.330092
     7  C    0.325099  -0.040662  -0.059446  -0.001712   0.001429  -0.029431
     8  H   -0.039009  -0.001040   0.003972  -0.000032  -0.000032  -0.003419
     9  C   -0.052862   0.003863  -0.012389  -0.000489  -0.000062   0.000928
    10  C   -0.001307  -0.000393   0.001356  -0.000059   0.000001  -0.000117
    11  C   -0.047674   0.003972  -0.007651   0.000013   0.000000   0.000011
    12  C    0.368858  -0.040762  -0.074822   0.002177   0.000001  -0.000146
    13  C    5.023990   0.404382   0.240219  -0.068070  -0.000056   0.003859
    14  H    0.404382   0.518169  -0.035396  -0.004859   0.000037  -0.000001
    15  N    0.240219  -0.035396   6.946742   0.587744  -0.000045  -0.000119
    16  C   -0.068070  -0.004859   0.587744   4.687787   0.001555  -0.000201
    17  H   -0.000056   0.000037  -0.000045   0.001555   0.382120  -0.002266
    18  H    0.003859  -0.000001  -0.000119  -0.000201  -0.002266   0.325803
    19  H   -0.006152   0.000058   0.006637   0.002217   0.000011  -0.000132
    20  H    0.003904  -0.000051   0.000083  -0.000037  -0.000005   0.002494
    21  H   -0.000396   0.000009  -0.000033   0.000003  -0.000000   0.000000
    22  H    0.000316  -0.000043   0.000004  -0.000001   0.000000   0.000002
    23  H   -0.005945   0.000007   0.006816   0.000091   0.000000   0.000000
    24  H    0.004158  -0.000059   0.000035   0.000005   0.000000  -0.000000
    25  H   -0.034328  -0.002662   0.000984  -0.000068  -0.000000   0.000003
    26  H   -0.045049  -0.000943   0.004214  -0.000037   0.000000  -0.000001
    27  H    0.005072  -0.000167  -0.041379   0.405611  -0.000066   0.000001
              19         20         21         22         23         24
     1  O    0.000000   0.000000  -0.000000  -0.000000   0.000000   0.000000
     2  N   -0.000001  -0.000000  -0.000000   0.000000  -0.000000   0.000000
     3  O    0.000000   0.000000  -0.000000  -0.000000   0.000000   0.000000
     4  C   -0.000888  -0.000031   0.000001  -0.000000   0.000025   0.000000
     5  C    0.000950   0.000010   0.000001  -0.000002  -0.000000  -0.000000
     6  N    0.000217  -0.001132  -0.000061  -0.000095  -0.000024   0.000005
     7  C   -0.034994  -0.041878   0.004064  -0.004353   0.000452  -0.000145
     8  H    0.004009  -0.001827  -0.000076   0.003529   0.000035  -0.000103
     9  C    0.387255   0.397203  -0.035853  -0.045687  -0.002014   0.004403
    10  C   -0.032918  -0.037198   0.400094   0.395910  -0.040102  -0.038473
    11  C   -0.002192   0.004129  -0.035800  -0.045616   0.396659   0.400331
    12  C    0.000603  -0.000373   0.004225  -0.001212  -0.036592  -0.037858
    13  C   -0.006152   0.003904  -0.000396   0.000316  -0.005945   0.004158
    14  H    0.000058  -0.000051   0.000009  -0.000043   0.000007  -0.000059
    15  N    0.006637   0.000083  -0.000033   0.000004   0.006816   0.000035
    16  C    0.002217  -0.000037   0.000003  -0.000001   0.000091   0.000005
    17  H    0.000011  -0.000005  -0.000000   0.000000   0.000000   0.000000
    18  H   -0.000132   0.002494   0.000000   0.000002   0.000000  -0.000000
    19  H    0.506122  -0.023875  -0.002578   0.003757   0.001652  -0.000072
    20  H   -0.023875   0.548739  -0.002642  -0.002945  -0.000049  -0.000090
    21  H   -0.002578  -0.002642   0.525745  -0.024684  -0.002812  -0.002064
    22  H    0.003757  -0.002945  -0.024684   0.569243   0.004061  -0.003588
    23  H    0.001652  -0.000049  -0.002812   0.004061   0.509375  -0.024953
    24  H   -0.000072  -0.000090  -0.002064  -0.003588  -0.024953   0.540845
    25  H   -0.000027   0.000011  -0.000086  -0.000083  -0.002076  -0.002393
    26  H    0.000021  -0.000035  -0.000073   0.002463   0.003823  -0.002766
    27  H    0.000059  -0.000000  -0.000000   0.000000  -0.000024  -0.000000
              25         26         27
     1  O    0.000000   0.000000   0.004843
     2  N   -0.000000  -0.000000  -0.000176
     3  O    0.000000   0.000000  -0.000001
     4  C    0.000021   0.000004  -0.068922
     5  C   -0.000001  -0.000000   0.002083
     6  N   -0.000072  -0.000070   0.000029
     7  C    0.005039  -0.004350  -0.000446
     8  H   -0.000005   0.001506   0.000008
     9  C   -0.000377   0.001060  -0.000048
    10  C    0.004100  -0.002410   0.000004
    11  C   -0.033804  -0.042442   0.000007
    12  C    0.395162   0.394606  -0.000022
    13  C   -0.034328  -0.045049   0.005072
    14  H   -0.002662  -0.000943  -0.000167
    15  N    0.000984   0.004214  -0.041379
    16  C   -0.000068  -0.000037   0.405611
    17  H   -0.000000   0.000000  -0.000066
    18  H    0.000003  -0.000001   0.000001
    19  H   -0.000027   0.000021   0.000059
    20  H    0.000011  -0.000035  -0.000000
    21  H   -0.000086  -0.000073  -0.000000
    22  H   -0.000083   0.002463   0.000000
    23  H   -0.002076   0.003823  -0.000024
    24  H   -0.002393  -0.002766  -0.000000
    25  H    0.509840  -0.023082  -0.000012
    26  H   -0.023082   0.562209   0.000001
    27  H   -0.000012   0.000001   0.455723
 Mulliken charges:
               1
     1  O   -0.456444
     2  N    0.508318
     3  O   -0.486984
     4  C   -0.032020
     5  C    0.197240
     6  N   -0.782785
     7  C    0.046958
     8  H    0.179349
     9  C   -0.309182
    10  C   -0.321257
    11  C   -0.316173
    12  C   -0.311953
    13  C   -0.022732
    14  H    0.195680
    15  N   -0.506736
    16  C    0.135228
    17  H    0.291137
    18  H    0.396996
    19  H    0.190259
    20  H    0.155595
    21  H    0.173016
    22  H    0.149025
    23  H    0.191596
    24  H    0.162783
    25  H    0.183916
    26  H    0.151353
    27  H    0.237818
 Sum of Mulliken charges =  -0.00000
 Mulliken charges with hydrogens summed into heavy atoms:
               1
     1  O   -0.456444
     2  N    0.508318
     3  O   -0.486984
     4  C   -0.032020
     5  C    0.488377
     6  N   -0.385789
     7  C    0.226307
     9  C    0.036671
    10  C    0.000784
    11  C    0.038206
    12  C    0.023315
    13  C    0.172948
    15  N   -0.506736
    16  C    0.373046
 Electronic spatial extent (au):  <R**2>=           3126.9229
 Charge=             -0.0000 electrons
 Dipole moment (field-independent basis, Debye):
    X=              5.4572    Y=              4.5316    Z=              0.8652  Tot=              7.1460
 Quadrupole moment (field-independent basis, Debye-Ang):
   XX=           -105.6174   YY=            -80.0658   ZZ=            -82.4017
   XY=             -1.3937   XZ=             -0.5824   YZ=              0.5829
 Traceless Quadrupole moment (field-independent basis, Debye-Ang):
   XX=            -16.2558   YY=              9.2959   ZZ=              6.9599
   XY=             -1.3937   XZ=             -0.5824   YZ=              0.5829
 Octapole moment (field-independent basis, Debye-Ang**2):
  XXX=            102.2694  YYY=             36.5789  ZZZ=             -3.8444  XYY=             -1.5286
  XXY=             10.0347  XXZ=              7.6078  XZZ=             -7.3786  YZZ=             -2.8231
  YYZ=              3.0225  XYZ=             -0.9170
 Hexadecapole moment (field-independent basis, Debye-Ang**3):
 XXXX=          -3554.2794 YYYY=           -618.7155 ZZZZ=           -306.4534 XXXY=            -23.6013
 XXXZ=            -37.1604 YYYX=             -7.3500 YYYZ=             17.3706 ZZZX=             -9.6056
 ZZZY=              8.3093 XXYY=           -656.0221 XXZZ=           -545.6166 YYZZ=           -165.6108
 XXYZ=              3.8725 YYXZ=             -1.0699 ZZXY=              5.6232
 N-N= 9.170594860660D+02 E-N=-3.380125545715D+03  KE= 6.588596414762D+02
 Calling FoFJK, ICntrl=  10002127 FMM=F ISym2X=0 I1Cent= 0 IOpClX= 0 NMat=1 NMatS=1 NMatT=0.
 -------------------------------------------------------------------
 Center     Atomic                   Forces (Hartrees/Bohr)
 Number     Number              X              Y              Z
 -------------------------------------------------------------------
      1        8           0.002047335   -0.019090189   -0.001461653
      2        7           0.039853570    0.011881275    0.000867300
      3        8          -0.004748601    0.016460220    0.002438383
      4        6          -0.004287922    0.005700566    0.011392122
      5        6           0.003171718   -0.016084628   -0.002961885
      6        7           0.015209038   -0.006396516   -0.008581682
      7        6          -0.004253993    0.004906663    0.003308556
      8        1          -0.011289528   -0.001831609   -0.007330522
      9        6          -0.003882302    0.000656506   -0.002236599
     10        6           0.002767077   -0.001091762    0.000817527
     11        6          -0.000965229   -0.004514403   -0.002226037
     12        6           0.000637590   -0.009007304   -0.002846827
     13        6           0.008163333   -0.002621963    0.005062349
     14        1           0.001457837    0.004301804   -0.009864696
     15        7          -0.000024856   -0.002256491    0.007967982
     16        6          -0.017857391    0.015958610   -0.013956620
     17        1           0.007473873   -0.007267022   -0.003096551
     18        1          -0.018127608   -0.002195265    0.003223747
     19        1           0.003261544    0.005819186    0.007497168
     20        1          -0.003100859   -0.007531100    0.002786628
     21        1          -0.003984687    0.002413984    0.009763360
     22        1          -0.004263976   -0.003996229   -0.007191228
     23        1           0.004246056    0.006139867    0.009091589
     24        1          -0.009485613    0.002500663   -0.001792515
     25        1          -0.000983552    0.010609392   -0.002465135
     26        1          -0.004831672   -0.004790078   -0.004167724
     27        1           0.003798818    0.001325822    0.005962962
 -------------------------------------------------------------------
 Cartesian Forces:  Max     0.039853570 RMS     0.008574103

 GradGradGradGradGradGradGradGradGradGradGradGradGradGradGradGradGradGrad
 Berny optimization.
 FormGI is forming the generalized inverse of G from B-inverse, IUseBI=4.
 Internal  Forces:  Max     0.038174563 RMS     0.006924982
 Search for a local minimum.
 Step number   1 out of a maximum of   20
 All quantities printed in internal units (Hartrees-Bohrs-Radians)
 Mixed Optimization -- RFO/linear search
 Second derivative matrix not updated -- first step.
 ITU=  0
     Eigenvalues ---    0.00231   0.00775   0.01075   0.01146   0.01212
     Eigenvalues ---    0.01438   0.01539   0.01719   0.02021   0.02100
     Eigenvalues ---    0.02695   0.03663   0.04511   0.04690   0.04837
     Eigenvalues ---    0.05073   0.05139   0.05304   0.05887   0.06260
     Eigenvalues ---    0.07163   0.07688   0.07704   0.07839   0.07993
     Eigenvalues ---    0.08038   0.08048   0.10453   0.11671   0.12183
     Eigenvalues ---    0.13017   0.14499   0.15307   0.15883   0.15989
     Eigenvalues ---    0.20087   0.22058   0.23329   0.24985   0.25000
     Eigenvalues ---    0.25000   0.25385   0.26253   0.26649   0.27975
     Eigenvalues ---    0.28081   0.28493   0.29425   0.31443   0.32008
     Eigenvalues ---    0.32058   0.32239   0.32293   0.32381   0.32388
     Eigenvalues ---    0.32406   0.32520   0.32526   0.32587   0.33386
     Eigenvalues ---    0.33395   0.33529   0.35507   0.43883   0.44319
     Eigenvalues ---    0.49753   0.67315   0.90375   0.911211000.00000
     Eigenvalues --- 1000.000001000.000001000.000001000.000001000.00000
     Eigenvalues --- 1000.000001000.000001000.000001000.000001000.00000
     Eigenvalues --- 1000.000001000.000001000.000001000.000001000.00000
     Eigenvalues --- 1000.000001000.000001000.000001000.000001000.00000
     Eigenvalues --- 1000.000001000.000001000.000001000.000001000.00000
     Eigenvalues --- 1000.000001000.000001000.000001000.000001000.00000
     Eigenvalues --- 1000.000001000.000001000.000001000.000001000.00000
     Eigenvalues --- 1000.000001000.000001000.000001000.000001000.00000
     Eigenvalues --- 1000.000001000.000001000.000001000.000001000.00000
     Eigenvalues --- 1000.000001000.000001000.000001000.000001000.00000
     Eigenvalues --- 1000.000001000.000001000.000001000.000001000.00000
     Eigenvalues --- 1000.000001000.000001000.000001000.000001000.00000
     Eigenvalues --- 1000.000001000.000001000.000001000.000001000.00000
     Eigenvalues --- 1000.000001000.000001000.000001000.000001000.00000
     Eigenvalues --- 1000.000001000.000001000.000001000.000001000.00000
     Eigenvalues --- 1000.000001000.000001000.000001000.000001000.00000
     Eigenvalues --- 1000.000001000.000001000.000001000.000001000.00000
     Eigenvalues --- 1000.000001000.000001000.000001000.000001000.00000
     Eigenvalues --- 1000.000001000.00000
 RFO step:  Lambda=-2.37236624D-02 EMin= 2.31140188D-03
 Linear search not attempted -- first point.
 Iteration  1 RMS(Cart)=  0.05673619 RMS(Int)=  0.00110501
 Iteration  2 RMS(Cart)=  0.00123610 RMS(Int)=  0.00027160
 Iteration  3 RMS(Cart)=  0.00000073 RMS(Int)=  0.00027159
 Iteration  1 RMS(Cart)=  0.00002916 RMS(Int)=  0.00002084
 Iteration  2 RMS(Cart)=  0.00001581 RMS(Int)=  0.00002314
 Iteration  3 RMS(Cart)=  0.00000908 RMS(Int)=  0.00002593
 Iteration  4 RMS(Cart)=  0.00000552 RMS(Int)=  0.00002789
 Iteration  5 RMS(Cart)=  0.00000356 RMS(Int)=  0.00002919
 Iteration  6 RMS(Cart)=  0.00000243 RMS(Int)=  0.00003008
 Iteration  7 RMS(Cart)=  0.00000175 RMS(Int)=  0.00003071
 Iteration  8 RMS(Cart)=  0.00000133 RMS(Int)=  0.00003117
 Iteration  9 RMS(Cart)=  0.00000104 RMS(Int)=  0.00003151
 Iteration 10 RMS(Cart)=  0.00000084 RMS(Int)=  0.00003178
 Variable       Old X    -DE/DX   Delta X   Delta X   Delta X     New X
                                 (Linear)    (Quad)   (Total)
    R1        2.32420   0.01752   0.00000   0.01874   0.01874   2.34294
    R2        2.32761   0.01596   0.00000   0.01721   0.01721   2.34482
    R3        2.89125  -0.03817   0.00000  -0.12006  -0.12006   2.77119
    R4        2.64476  -0.03393   0.00000  -0.07361  -0.07337   2.57139
    R5        2.81209  -0.02314   0.00000  -0.06762  -0.06743   2.74466
    R6        2.58719  -0.02475   0.00000  -0.04732  -0.04718   2.54001
    R7        2.08363  -0.01068   0.00000  -0.02986  -0.02986   2.05377
    R8        2.81908  -0.01870   0.00000  -0.05052  -0.05060   2.76848
    R9        1.93295  -0.00657   0.00000  -0.01421  -0.01421   1.91873
   R10        2.11874  -0.01252   0.00000  -0.03703  -0.03703   2.08171
   R11        2.92776  -0.01279   0.00000  -0.04307  -0.04310   2.88466
   R12        2.90057  -0.00299   0.00000  -0.00351  -0.00349   2.89709
   R13        2.91155  -0.00444   0.00000  -0.01439  -0.01443   2.89712
   R14        2.09903  -0.00981   0.00000  -0.02811  -0.02811   2.07092
   R15        2.09892  -0.00819   0.00000  -0.02346  -0.02346   2.07546
   R16        2.90447  -0.00171   0.00000  -0.00723  -0.00725   2.89722
   R17        2.10139  -0.01056   0.00000  -0.03038  -0.03038   2.07101
   R18        2.10312  -0.00897   0.00000  -0.02588  -0.02588   2.07724
   R19        2.91761  -0.00908   0.00000  -0.02923  -0.02920   2.88842
   R20        2.10408  -0.01160   0.00000  -0.03352  -0.03352   2.07056
   R21        2.10108  -0.00995   0.00000  -0.02860  -0.02860   2.07248
   R22        2.93508  -0.01078   0.00000  -0.03640  -0.03636   2.89871
   R23        2.10151  -0.01078   0.00000  -0.03102  -0.03102   2.07049
   R24        2.09784  -0.00779   0.00000  -0.02227  -0.02227   2.07556
   R25        2.10739  -0.00957   0.00000  -0.02781  -0.02781   2.07958
   R26        2.76638  -0.00482   0.00000  -0.00952  -0.00992   2.75647
   R27        2.44228  -0.00457   0.00000  -0.00657  -0.00665   2.43563
   R28        2.08049  -0.00605   0.00000  -0.01636  -0.01636   2.06412
    A1        2.15643   0.01128   0.00000   0.04137   0.04121   2.19763
    A2        2.05434  -0.00727   0.00000  -0.02641  -0.02657   2.02777
    A3        2.07227  -0.00399   0.00000  -0.01443  -0.01459   2.05768
    A4        2.02570  -0.00843   0.00000  -0.02692  -0.02720   1.99851
    A5        2.02793  -0.00276   0.00000  -0.00613  -0.00644   2.02149
    A6        2.22892   0.01115   0.00000   0.03202   0.03217   2.26109
    A7        2.20617   0.00649   0.00000   0.01978   0.02015   2.22632
    A8        2.06246  -0.00367   0.00000  -0.01201  -0.01222   2.05024
    A9        2.01346  -0.00280   0.00000  -0.00722  -0.00746   2.00601
   A10        2.25578  -0.00653   0.00000  -0.02111  -0.02121   2.23457
   A11        2.10513  -0.01238   0.00000  -0.07149  -0.07212   2.03301
   A12        1.86552   0.01917   0.00000   0.10443   0.10469   1.97021
   A13        1.83951  -0.00219   0.00000  -0.01862  -0.01838   1.82114
   A14        2.00768  -0.00069   0.00000  -0.01557  -0.01566   1.99203
   A15        1.96686   0.00124   0.00000   0.00167   0.00107   1.96793
   A16        1.85177   0.00286   0.00000   0.02558   0.02544   1.87721
   A17        1.84911   0.00121   0.00000   0.02347   0.02319   1.87230
   A18        1.93506  -0.00211   0.00000  -0.01126  -0.01089   1.92417
   A19        1.90957   0.00017   0.00000  -0.00469  -0.00482   1.90476
   A20        1.92266  -0.00068   0.00000  -0.01372  -0.01370   1.90896
   A21        1.92257  -0.00176   0.00000  -0.00670  -0.00671   1.91586
   A22        1.91935  -0.00052   0.00000   0.00469   0.00464   1.92399
   A23        1.90521   0.00319   0.00000   0.02572   0.02573   1.93094
   A24        1.88429  -0.00038   0.00000  -0.00488  -0.00513   1.87917
   A25        1.94045  -0.00084   0.00000   0.00594   0.00586   1.94631
   A26        1.91884  -0.00075   0.00000  -0.00717  -0.00719   1.91165
   A27        1.90506   0.00030   0.00000  -0.00312  -0.00320   1.90186
   A28        1.91611   0.00069   0.00000   0.00694   0.00697   1.92308
   A29        1.89858   0.00183   0.00000   0.01143   0.01145   1.91003
   A30        1.88376  -0.00121   0.00000  -0.01450  -0.01458   1.86918
   A31        1.94450   0.00112   0.00000   0.00636   0.00642   1.95092
   A32        1.90244   0.00032   0.00000   0.00556   0.00558   1.90801
   A33        1.91738   0.00041   0.00000   0.00516   0.00512   1.92249
   A34        1.90683  -0.00128   0.00000  -0.01486  -0.01490   1.89193
   A35        1.91535  -0.00062   0.00000   0.00016   0.00009   1.91544
   A36        1.87597   0.00000   0.00000  -0.00281  -0.00285   1.87312
   A37        1.94597  -0.00338   0.00000  -0.01943  -0.01939   1.92658
   A38        1.90623   0.00247   0.00000   0.01600   0.01587   1.92210
   A39        1.91126   0.00164   0.00000   0.01420   0.01411   1.92537
   A40        1.90651   0.00049   0.00000  -0.00297  -0.00286   1.90364
   A41        1.91209  -0.00023   0.00000  -0.00387  -0.00379   1.90830
   A42        1.88061  -0.00091   0.00000  -0.00340  -0.00358   1.87703
   A43        1.84670   0.00511   0.00000   0.02380   0.02375   1.87045
   A44        1.93510  -0.00429   0.00000  -0.02822  -0.02863   1.90648
   A45        1.98885  -0.00011   0.00000   0.00646   0.00684   1.99568
   A46        1.88411   0.00185   0.00000   0.02684   0.02714   1.91125
   A47        1.89191  -0.00418   0.00000  -0.02998  -0.02998   1.86193
   A48        1.91290   0.00179   0.00000   0.00302   0.00303   1.91593
   A49        2.09699  -0.00556   0.00000  -0.01231  -0.01295   2.08405
   A50        2.26686  -0.00615   0.00000  -0.02700  -0.02685   2.24000
   A51        1.96500   0.00587   0.00000   0.02705   0.02696   1.99197
   A52        2.03744   0.00069   0.00000  -0.00075  -0.00082   2.03662
    D1       -3.03253  -0.00013   0.00000  -0.02823  -0.02774  -3.06027
    D2        0.14413   0.00086   0.00000   0.00000  -0.00000   0.14413
    D3        0.12690  -0.00170   0.00000  -0.06026  -0.06002   0.06688
    D4       -2.97963  -0.00071   0.00000  -0.03204  -0.03228  -3.01190
    D5        3.06448   0.00052   0.00000   0.01558   0.01557   3.08005
    D6       -0.02428   0.00001   0.00000   0.00273   0.00250  -0.02178
    D7       -0.11688  -0.00100   0.00000  -0.01755  -0.01800  -0.13488
    D8        3.07754  -0.00151   0.00000  -0.03040  -0.03107   3.04647
    D9        0.11267  -0.00230   0.00000   0.00000   0.00000   0.11268
   D10       -2.88824   0.00100   0.00000  -0.00781  -0.00827  -2.89650
   D11        0.44037  -0.00206   0.00000  -0.00410  -0.00448   0.43588
   D12        0.29317   0.00263   0.00000   0.02576   0.02606   0.31923
   D13       -2.66141  -0.00042   0.00000   0.02947   0.02984  -2.63157
   D14        0.07089  -0.00171   0.00000  -0.01438  -0.01432   0.05658
   D15        2.80790   0.00315   0.00000   0.04733   0.04586   2.85376
   D16       -3.12224  -0.00124   0.00000  -0.00200  -0.00168  -3.12392
   D17       -0.38523   0.00362   0.00000   0.05972   0.05849  -0.32674
   D18       -2.65150  -0.00010   0.00000   0.00655   0.00695  -2.64455
   D19        1.59856  -0.00180   0.00000  -0.00419  -0.00392   1.59464
   D20       -0.64283   0.00067   0.00000   0.02440   0.02425  -0.61857
   D21        0.85197   0.00058   0.00000  -0.01999  -0.02071   0.83127
   D22       -1.18115  -0.00112   0.00000  -0.03074  -0.03158  -1.21273
   D23        2.86065   0.00135   0.00000  -0.00214  -0.00341   2.85724
   D24        2.94417   0.00234   0.00000   0.02996   0.02982   2.97399
   D25       -1.22707   0.00137   0.00000   0.02411   0.02399  -1.20308
   D26        0.84974  -0.00061   0.00000   0.00536   0.00532   0.85507
   D27        0.91805   0.00352   0.00000   0.04457   0.04455   0.96260
   D28        3.02999   0.00255   0.00000   0.03872   0.03872   3.06871
   D29       -1.17638   0.00057   0.00000   0.01997   0.02005  -1.15633
   D30       -1.08186   0.00156   0.00000   0.00836   0.00839  -1.07347
   D31        1.03008   0.00059   0.00000   0.00251   0.00256   1.03264
   D32        3.10690  -0.00139   0.00000  -0.01623  -0.01611   3.09079
   D33       -2.89696  -0.00065   0.00000  -0.01748  -0.01728  -2.91424
   D34       -0.85852   0.00227   0.00000   0.01352   0.01337  -0.84515
   D35        1.30939   0.00117   0.00000   0.00000  -0.00001   1.30938
   D36       -0.89408  -0.00192   0.00000  -0.02502  -0.02498  -0.91906
   D37        1.14436   0.00100   0.00000   0.00599   0.00568   1.15004
   D38       -2.97091  -0.00010   0.00000  -0.00754  -0.00771  -2.97862
   D39        1.10750   0.00108   0.00000   0.01250   0.01257   1.12007
   D40       -3.13724   0.00401   0.00000   0.04350   0.04323  -3.09401
   D41       -0.96933   0.00290   0.00000   0.02998   0.02984  -0.93949
   D42        0.95665   0.00086   0.00000   0.00000   0.00000   0.95665
   D43        3.08221   0.00066   0.00000   0.00784   0.00780   3.09001
   D44       -1.13782  -0.00108   0.00000  -0.01588  -0.01585  -1.15366
   D45       -1.15730   0.00192   0.00000   0.01699   0.01706  -1.14024
   D46        0.96826   0.00172   0.00000   0.02483   0.02485   0.99311
   D47        3.03142  -0.00002   0.00000   0.00112   0.00121   3.03263
   D48        3.06169   0.00077   0.00000   0.00474   0.00471   3.06640
   D49       -1.09594   0.00057   0.00000   0.01258   0.01250  -1.08343
   D50        0.96722  -0.00116   0.00000  -0.01113  -0.01114   0.95608
   D51       -0.92192  -0.00081   0.00000   0.00000   0.00000  -0.92191
   D52        1.18365  -0.00149   0.00000  -0.01083  -0.01083   1.17281
   D53       -3.04823  -0.00106   0.00000  -0.00799  -0.00801  -3.05624
   D54       -3.04906   0.00022   0.00000   0.00039   0.00040  -3.04867
   D55       -0.94350  -0.00046   0.00000  -0.01044  -0.01044  -0.95394
   D56        1.10781  -0.00003   0.00000  -0.00760  -0.00762   1.10019
   D57        1.17639   0.00022   0.00000   0.00721   0.00724   1.18362
   D58       -3.00123  -0.00046   0.00000  -0.00362  -0.00360  -3.00483
   D59       -0.94992  -0.00003   0.00000  -0.00078  -0.00078  -0.95070
   D60        0.98869  -0.00117   0.00000  -0.01139  -0.01138   0.97731
   D61        3.09729  -0.00108   0.00000  -0.01689  -0.01699   3.08030
   D62       -1.13030   0.00023   0.00000  -0.00341  -0.00334  -1.13364
   D63       -1.11429  -0.00144   0.00000  -0.01257  -0.01253  -1.12682
   D64        0.99431  -0.00134   0.00000  -0.01806  -0.01814   0.97617
   D65        3.04990  -0.00004   0.00000  -0.00458  -0.00449   3.04542
   D66        3.11617  -0.00033   0.00000  -0.00052  -0.00051   3.11567
   D67       -1.05841  -0.00023   0.00000  -0.00601  -0.00612  -1.06452
   D68        0.99718   0.00107   0.00000   0.00747   0.00754   1.00472
   D69       -1.05603   0.00021   0.00000  -0.00135  -0.00128  -1.05731
   D70       -3.12860   0.00159   0.00000   0.00558   0.00529  -3.12331
   D71        1.08383   0.00073   0.00000   0.00358   0.00364   1.08746
   D72        3.11872  -0.00104   0.00000  -0.00694  -0.00686   3.11186
   D73        1.04615   0.00034   0.00000  -0.00001  -0.00029   1.04586
   D74       -1.02461  -0.00052   0.00000  -0.00202  -0.00194  -1.02655
   D75        1.06248  -0.00010   0.00000   0.00116   0.00130   1.06378
   D76       -1.01009   0.00129   0.00000   0.00809   0.00787  -1.00222
   D77       -3.08085   0.00043   0.00000   0.00609   0.00622  -3.07463
   D78       -1.17217   0.00482   0.00000   0.00000  -0.00001  -1.17218
   D79        3.06007   0.00130   0.00000  -0.01348  -0.01347   3.04660
   D80        1.00763   0.00048   0.00000  -0.03015  -0.03038   0.97725
   D81        0.28177  -0.00229   0.00000  -0.00919  -0.00908   0.27269
   D82       -3.05324   0.00129   0.00000  -0.01075  -0.01061  -3.06385
         Item               Value     Threshold  Converged?
 Maximum Force            0.038175     0.000450     NO 
 RMS     Force            0.006990     0.000300     NO 
 Maximum Displacement     0.298900     0.001800     NO 
 RMS     Displacement     0.056757     0.001200     NO 
 Predicted change in Energy=-1.310977D-02
 GradGradGradGradGradGradGradGradGradGradGradGradGradGradGradGradGradGrad

                          Input orientation:                          
 ---------------------------------------------------------------------
 Center     Atomic      Atomic             Coordinates (Angstroms)
 Number     Number       Type             X           Y           Z
 ---------------------------------------------------------------------
      1          8           0       -3.497566   -1.382926   -0.326096
      2          7           0       -3.122763   -0.213458   -0.155661
      3          8           0       -3.859369    0.780778   -0.063178
      4          6           0       -1.675596   -0.008680   -0.036266
      5          6           0       -1.308139    1.270074    0.248916
      6          7           0       -0.067783    1.734364    0.478264
      7          6           0        1.197435    0.998485    0.415143
      8          1           0        1.852722    1.520475    1.130428
      9          6           0        1.878168    1.043426   -0.950422
     10          6           0        3.287696    0.452799   -0.828961
     11          6           0        3.256520   -0.957701   -0.228926
     12          6           0        2.485137   -0.995978    1.090076
     13          6           0        1.064442   -0.451737    0.894183
     14          1           0        0.528803   -0.468339    1.855348
     15          7           0        0.402883   -1.340192   -0.054855
     16          6           0       -0.847261   -1.168205   -0.317098
     17          1           0       -2.098539    2.010513    0.339291
     18          1           0        0.057164    2.740294    0.419696
     19          1           0        1.286500    0.467202   -1.670741
     20          1           0        1.922662    2.080435   -1.309396
     21          1           0        3.763081    0.433323   -1.816228
     22          1           0        3.896102    1.108664   -0.190227
     23          1           0        2.770105   -1.640940   -0.934000
     24          1           0        4.278206   -1.323939   -0.071431
     25          1           0        2.426220   -2.024645    1.462685
     26          1           0        3.002252   -0.397009    1.851773
     27          1           0       -1.316093   -1.903064   -0.975329
 ---------------------------------------------------------------------
                    Distance matrix (angstroms):
                    1          2          3          4          5
     1  O    0.000000
     2  N    1.239831   0.000000
     3  O    2.209444   1.240824   0.000000
     4  C    2.300463   1.466452   2.322247   0.000000
     5  C    3.487498   2.378531   2.616407   1.360722   0.000000
     6  N    4.704030   3.678148   3.946974   2.426521   1.344116
     7  C    5.316350   4.523133   5.084039   3.077735   2.525726
     8  H    6.259136   5.423652   5.882162   4.018522   3.291019
     9  C    5.930892   5.217348   5.811671   3.817309   3.412086
    10  C    7.047165   6.480063   7.195452   5.047335   4.790768
    11  C    6.768156   6.422969   7.327050   5.026284   5.101709
    12  C    6.160195   5.797650   6.688768   4.422116   4.497943
    13  C    4.813326   4.323383   5.165225   2.927430   3.001691
    14  H    4.669776   4.176489   4.949453   2.940895   2.996174
    15  N    3.910102   3.702685   4.760816   2.468470   3.135819
    16  C    2.659004   2.472957   3.596638   1.452413   2.545189
    17  H    3.730341   2.498011   2.185120   2.096917   1.086807
    18  H    5.494838   4.378084   4.405916   3.281343   2.013644
    19  H    5.302672   4.711726   5.400236   3.416428   3.325934
    20  H    6.506967   5.661216   6.055911   4.351175   3.677376
    21  H    7.631267   7.112711   7.829154   5.739585   5.539155
    22  H    7.803384   7.142386   7.763439   5.684715   5.225230
    23  H    6.302366   6.113053   7.111467   4.820213   5.148336
    24  H    7.780164   7.484291   8.405357   6.097450   6.167559
    25  H    6.221155   6.057281   7.050339   4.809975   5.125802
    26  H    6.925516   6.448201   7.220530   5.059422   4.891604
    27  H    2.334710   2.605894   3.808317   2.144708   3.401124
                    6          7          8          9         10
     6  N    0.000000
     7  C    1.465018   0.000000
     8  H    2.039462   1.101593   0.000000
     9  C    2.511029   1.526494   2.134984   0.000000
    10  C    3.822367   2.492942   2.652977   1.533089   0.000000
    11  C    4.335703   2.912271   3.155922   2.534743   1.533142
    12  C    3.787675   2.468116   2.595017   2.948086   2.534908
    13  C    2.496790   1.533072   2.137011   2.510026   2.954703
    14  H    2.665365   2.161673   2.496728   3.461007   3.957967
    15  N    3.155730   2.514283   3.419114   2.942812   3.483705
    16  C    3.108873   3.067817   4.076057   3.566563   4.470741
    17  H    2.054152   3.448681   4.059372   4.291016   5.727374
    18  H    1.015351   2.081859   2.284103   2.841239   4.150676
    19  H    2.838663   2.154323   3.045741   1.095886   2.171080
    20  H    2.697660   2.161158   2.504234   1.098284   2.177919
    21  H    4.651120   3.446877   3.676159   2.162115   1.095932
    22  H    4.068264   2.767927   2.467614   2.157362   1.099227
    23  H    4.630418   3.355598   3.885614   2.828717   2.159323
    24  H    5.342565   3.888645   3.926592   3.483852   2.170659
    25  H    4.617280   3.427327   3.606545   3.941637   3.483032
    26  H    3.981758   2.696048   2.349150   3.345253   2.826657
    27  H    4.111215   4.082918   5.118224   4.345771   5.173623
                   11         12         13         14         15
    11  C    0.000000
    12  C    1.528484   0.000000
    13  C    2.514474   1.533932   0.000000
    14  H    3.467581   2.165939   1.100465   0.000000
    15  N    2.884414   2.401069   1.458659   2.103535   0.000000
    16  C    4.110122   3.621419   2.373844   2.665124   1.288880
    17  H    6.148970   5.532880   4.046607   3.917405   4.199963
    18  H    4.932723   4.506017   3.380652   3.546669   4.122509
    19  H    2.826688   3.346602   2.733605   3.725943   2.580415
    20  H    3.489536   3.941847   3.464707   4.295893   3.947694
    21  H    2.170503   3.481759   3.925851   4.975341   4.187925
    22  H    2.163429   2.838929   3.410146   4.243822   4.268231
    23  H    1.095694   2.143377   2.768708   3.765487   2.543046
    24  H    1.096712   2.161424   3.467192   4.301460   3.875392
    25  H    2.165483   1.095657   2.156773   2.485249   2.620171
    26  H    2.169870   1.098341   2.162194   2.474480   3.358801
    27  H    4.728596   4.420187   3.356839   3.670805   2.029526
                   16         17         18         19         20
    16  C    0.000000
    17  H    3.478619   0.000000
    18  H    4.078874   2.277301   0.000000
    19  H    3.009957   4.228537   3.323874   0.000000
    20  H    4.383011   4.346622   2.627786   1.771381   0.000000
    21  H    5.105637   6.441458   4.904619   2.481082   2.521308
    22  H    5.263052   6.085183   4.215646   3.068130   2.468065
    23  H    3.699916   6.217562   5.328016   2.681070   3.835063
    24  H    5.133713   7.207645   5.880169   3.836182   4.320984
    25  H    3.823191   6.165870   5.422628   4.162526   4.978924
    26  H    4.485253   5.839678   4.535092   4.012328   4.158875
    27  H    1.092286   4.201967   5.039117   3.588209   5.144841
                   21         22         23         24         25
    21  H    0.000000
    22  H    1.765690   0.000000
    23  H    2.463107   3.062905   0.000000
    24  H    2.529356   2.465294   1.766036   0.000000
    25  H    4.310461   3.835401   2.451446   2.504866   0.000000
    26  H    3.836997   2.689942   3.059704   2.487161   1.769859
    27  H    5.653655   6.070738   4.094805   5.696367   4.468064
                   26         27
    26  H    0.000000
    27  H    5.376691   0.000000
 Symmetry turned off by external request.
 Stoichiometry    C9H13N3O2
 Framework group  C1[X(C9H13N3O2)]
 Deg. of freedom    75
 Full point group                 C1      NOp   1
 Rotational constants (GHZ):           1.6699734           0.4222825           0.3735188
 Standard basis: 6-31G(d) (6D, 7F)
   236 basis functions,   444 primitive gaussians,   236 cartesian basis functions
    52 alpha electrons       52 beta electrons
       nuclear repulsion energy       932.0677782279 Hartrees.
 NAtoms=   27 NActive=   27 NUniq=   27 SFac= 1.00D+00 NAtFMM=   60 NAOKFM=F Big=F
 Integral buffers will be    131072 words long.
 Raffenetti 1 integral format.
 Two-electron integral symmetry is turned off.
 One-electron integrals computed using PRISM.
 NBasis=   236 RedAO= T EigKep=  1.00D-03  NBF=   236
 NBsUse=   236 1.00D-06 EigRej= -1.00D+00 NBFU=   236
 Initial guess from the checkpoint file:  "/home/alexey/tmp/Gau-1610857.chk"
 B after Tr=     0.058340    0.005561    0.002621
         Rot=    0.999999   -0.001525   -0.000177    0.000779 Ang=  -0.20 deg.
 ExpMin= 1.61D-01 ExpMax= 5.48D+03 ExpMxC= 8.25D+02 IAcc=3 IRadAn=         5 AccDes= 0.00D+00
 Harris functional with IExCor=  205 and IRadAn=       5 diagonalized for initial guess.
 HarFok:  IExCor=  205 AccDes= 0.00D+00 IRadAn=         5 IDoV= 1 UseB2=F ITyADJ=14
 ICtDFT=  3500011 ScaDFX=  1.000000  1.000000  1.000000  1.000000
 FoFCou: FMM=F IPFlag=           0 FMFlag=      100000 FMFlg1=           0
         NFxFlg=           0 DoJE=T BraDBF=F KetDBF=T FulRan=T
         wScrn=  0.000000 ICntrl=       500 IOpCl=  0 I1Cent=   200000004 NGrid=           0
         NMat0=    1 NMatS0=      1 NMatT0=    0 NMatD0=    1 NMtDS0=    0 NMtDT0=    0
 Symmetry not used in FoFCou.
 Keep R1 ints in memory in canonical form, NReq=397720213.
 Requested convergence on RMS density matrix=1.00D-08 within 128 cycles.
 Requested convergence on MAX density matrix=1.00D-06.
 Requested convergence on             energy=1.00D-06.
 No special actions if energy rises.
 SCF Done:  E(RHF) =  -661.298498900     A.U. after   15 cycles
            NFock= 15  Conv=0.42D-08     -V/T= 2.0024
 ExpMin= 1.61D-01 ExpMax= 5.48D+03 ExpMxC= 8.25D+02 IAcc=3 IRadAn=         5 AccDes= 0.00D+00
 HarFok:  IExCor=  205 AccDes= 0.00D+00 IRadAn=         5 IDoV=-2 UseB2=F ITyADJ=14
 ICtDFT= 12500011 ScaDFX=  1.000000  1.000000  1.000000  1.000000
 Range of M.O.s used for correlation:    15   236
 NBasis=   236 NAE=    52 NBE=    52 NFC=    14 NFV=     0
 NROrb=    222 NOA=    38 NOB=    38 NVA=   184 NVB=   184
 Fully direct method using O(ONN) memory.
 JobTyp=1 Pass  1:  I=  15 to  52 NPSUse=  4 ParTrn=T ParDer=T DoDerP=T.
 Spin components of T(2) and E(2):
     alpha-alpha T2 =       0.9130647679D-01 E2=     -0.2724079520D+00
     alpha-beta  T2 =       0.4912479332D+00 E2=     -0.1488006605D+01
     beta-beta   T2 =       0.9130647679D-01 E2=     -0.2724079520D+00
 ANorm=    0.1293777758D+01
 E2 =    -0.2032822509D+01 EUMP2 =    -0.66333132140897D+03
          IDoAtm=111111111111111111111111111
          Differentiating once with respect to electric field.
                with respect to dipole field.
          Differentiating once with respect to nuclear coordinates.
 Keep R1 ints in memory in canonical form, NReq=397723379.
          There are     1 degrees of freedom in the 1st order CPHF.  IDoFFX=0 NUNeed=     1.
 LinEq1:  Iter=  0 NonCon=     1 RMS=4.58D-03 Max=1.05D-01 NDo=     1
 AX will form     1 AO Fock derivatives at one time.
 LinEq1:  Iter=  1 NonCon=     1 RMS=1.54D-03 Max=2.87D-02 NDo=     1
 LinEq1:  Iter=  2 NonCon=     1 RMS=6.44D-04 Max=1.77D-02 NDo=     1
 LinEq1:  Iter=  3 NonCon=     1 RMS=2.81D-04 Max=8.33D-03 NDo=     1
 LinEq1:  Iter=  4 NonCon=     1 RMS=8.79D-05 Max=2.03D-03 NDo=     1
 LinEq1:  Iter=  5 NonCon=     1 RMS=3.68D-05 Max=1.76D-03 NDo=     1
 LinEq1:  Iter=  6 NonCon=     1 RMS=1.44D-05 Max=5.37D-04 NDo=     1
[...]
    26  H    2.175541   1.098795   2.167093   2.496336   3.363048
    27  H    4.692103   4.415166   3.358415   3.684605   2.023447
                   16         17         18         19         20
    16  C    0.000000
    17  H    3.468552   0.000000
    18  H    4.100036   2.237757   0.000000
    19  H    2.988838   4.256897   3.512783   0.000000
    20  H    4.376694   4.403493   2.880975   1.768400   0.000000
    21  H    5.093755   6.477108   5.086094   2.498942   2.520727
    22  H    5.249730   6.088857   4.312525   3.070080   2.461114
    23  H    3.690609   6.223060   5.422950   2.704850   3.843183
    24  H    5.131936   7.200661   5.937408   3.849843   4.316902
    25  H    3.823418   6.117766   5.371338   4.172143   4.984664
    26  H    4.499039   5.811439   4.484930   4.035167   4.180419
    27  H    1.090661   4.206799   5.070840   3.519898   5.094427
                   21         22         23         24         25
    21  H    0.000000
    22  H    1.758881   0.000000
    23  H    2.469653   3.062291   0.000000
    24  H    2.517469   2.459721   1.764511   0.000000
    25  H    4.311954   3.838647   2.444666   2.519482   0.000000
    26  H    3.845670   2.702687   3.060494   2.491784   1.768044
    27  H    5.593137   6.021085   4.050441   5.665105   4.465880
                   26         27
    26  H    0.000000
    27  H    5.379229   0.000000
 Symmetry turned off by external request.
 Stoichiometry    C9H13N3O2
 Framework group  C1[X(C9H13N3O2)]
 Deg. of freedom    75
 Full point group                 C1      NOp   1
 Rotational constants (GHZ):           1.6703186           0.4201187           0.3729206

 **********************************************************************

            Population analysis using the SCF Density.

 **********************************************************************

 Alpha  occ. eigenvalues --  -20.59218 -20.58882 -15.84686 -15.64126 -15.56166
 Alpha  occ. eigenvalues --  -11.34987 -11.29616 -11.29593 -11.28662 -11.27154
 Alpha  occ. eigenvalues --  -11.23745 -11.23216 -11.22700 -11.22096  -1.57091
 Alpha  occ. eigenvalues --   -1.36688  -1.30990  -1.23055  -1.14705  -1.09829
 Alpha  occ. eigenvalues --   -1.02813  -1.01326  -0.94504  -0.89689  -0.85567
 Alpha  occ. eigenvalues --   -0.82471  -0.78621  -0.77417  -0.75203  -0.72008
 Alpha  occ. eigenvalues --   -0.69789  -0.69363  -0.67813  -0.64901  -0.63770
 Alpha  occ. eigenvalues --   -0.62359  -0.60275  -0.57726  -0.57050  -0.55107
 Alpha  occ. eigenvalues --   -0.54519  -0.50789  -0.50136  -0.48637  -0.48118
 Alpha  occ. eigenvalues --   -0.47366  -0.46162  -0.46022  -0.43651  -0.41644
 Alpha  occ. eigenvalues --   -0.39833  -0.33853
 Alpha virt. eigenvalues --    0.07482   0.11733   0.17289   0.21853   0.24063
 Alpha virt. eigenvalues --    0.25599   0.27134   0.28822   0.29004   0.29668
 Alpha virt. eigenvalues --    0.30576   0.31928   0.32017   0.32775   0.33943
 Alpha virt. eigenvalues --    0.34408   0.35779   0.37323   0.38560   0.40329
 Alpha virt. eigenvalues --    0.41335   0.42280   0.44910   0.46080   0.46678
 Alpha virt. eigenvalues --    0.47168   0.49053   0.54016   0.57509   0.59590
 Alpha virt. eigenvalues --    0.63896   0.69515   0.69846   0.72883   0.74197
 Alpha virt. eigenvalues --    0.74863   0.75742   0.76614   0.78808   0.79350
 Alpha virt. eigenvalues --    0.81389   0.84592   0.85607   0.85916   0.88545
 Alpha virt. eigenvalues --    0.89310   0.91245   0.92045   0.92978   0.94639
 Alpha virt. eigenvalues --    0.95439   0.97812   0.99684   1.01644   1.02376
 Alpha virt. eigenvalues --    1.03250   1.05881   1.07082   1.07815   1.09027
 Alpha virt. eigenvalues --    1.10206   1.10966   1.11914   1.12473   1.13913
 Alpha virt. eigenvalues --    1.14750   1.15056   1.15829   1.17032   1.18711
 Alpha virt. eigenvalues --    1.18840   1.20960   1.22799   1.23875   1.24250
 Alpha virt. eigenvalues --    1.24735   1.25948   1.27163   1.27743   1.29543
 Alpha virt. eigenvalues --    1.30227   1.33142   1.35871   1.37338   1.40901
 Alpha virt. eigenvalues --    1.41862   1.46770   1.48624   1.52151   1.55073
 Alpha virt. eigenvalues --    1.56372   1.58783   1.59297   1.63473   1.64642
 Alpha virt. eigenvalues --    1.67641   1.68079   1.72792   1.75018   1.78749
 Alpha virt. eigenvalues --    1.81480   1.84716   1.88412   1.89985   1.93168
 Alpha virt. eigenvalues --    1.95947   1.96733   1.99831   2.01292   2.02946
 Alpha virt. eigenvalues --    2.04573   2.06158   2.08350   2.09402   2.12486
 Alpha virt. eigenvalues --    2.13044   2.15292   2.19160   2.19987   2.22542
 Alpha virt. eigenvalues --    2.22876   2.24466   2.25242   2.28147   2.29362
 Alpha virt. eigenvalues --    2.31587   2.33578   2.34608   2.36408   2.37729
 Alpha virt. eigenvalues --    2.40483   2.42280   2.44325   2.45234   2.47347
 Alpha virt. eigenvalues --    2.50768   2.52311   2.53171   2.55995   2.60897
 Alpha virt. eigenvalues --    2.62383   2.65384   2.67373   2.69442   2.70424
 Alpha virt. eigenvalues --    2.72057   2.72323   2.76781   2.78218   2.83777
 Alpha virt. eigenvalues --    2.88633   2.89216   2.92956   2.93168   2.95896
 Alpha virt. eigenvalues --    2.99370   3.01271   3.04435   3.06085   3.07676
 Alpha virt. eigenvalues --    3.09479   3.15408   3.21133   3.25031   3.27532
 Alpha virt. eigenvalues --    3.33448   3.37667   3.38483   3.52308   3.66192
 Alpha virt. eigenvalues --    4.13549   4.27971   4.35027   4.39366   4.46356
 Alpha virt. eigenvalues --    4.56107   4.61792   4.62410   4.73443   4.79794
 Alpha virt. eigenvalues --    4.99603   5.00869   5.05710   5.10649
          Condensed to atoms (all electrons):
               1          2          3          4          5          6
     1  O    8.316073   0.307447  -0.082685  -0.086473   0.004619  -0.000015
     2  N    0.307447   5.715762   0.302889   0.266975  -0.055294   0.000906
     3  O   -0.082685   0.302889   8.353824  -0.093877   0.004001   0.000788
     4  C   -0.086473   0.266975  -0.093877   5.228611   0.564951  -0.048335
     5  C    0.004619  -0.055294   0.004001   0.564951   4.708438   0.318348
     6  N   -0.000015   0.000906   0.000788  -0.048335   0.318348   7.193619
     7  C    0.000004  -0.000145   0.000002   0.005125  -0.030396   0.170772
     8  H   -0.000000   0.000002  -0.000000  -0.000249   0.003166  -0.050137
     9  C   -0.000000  -0.000005  -0.000000   0.000746   0.000654  -0.062885
    10  C    0.000000   0.000000   0.000000  -0.000036  -0.000054   0.003780
    11  C   -0.000000  -0.000000  -0.000000  -0.000028   0.000024  -0.000185
    12  C   -0.000000   0.000002  -0.000000  -0.000158  -0.000183   0.003835
    13  C   -0.000024  -0.000041  -0.000003  -0.011321  -0.000495  -0.047888
    14  H   -0.000003  -0.000086   0.000001   0.002435   0.005420  -0.006498
    15  N    0.000443   0.002369  -0.000016  -0.062196  -0.006993   0.001584
    16  C    0.002235  -0.027467   0.002545   0.327201  -0.051426  -0.001081
    17  H    0.000226  -0.007089   0.017522  -0.022909   0.374014  -0.033707
    18  H    0.000001  -0.000051   0.000012   0.001469  -0.031330   0.338912
    19  H    0.000001  -0.000005   0.000000  -0.001235   0.001340  -0.000502
    20  H    0.000000  -0.000000   0.000000  -0.000083   0.000141  -0.000280
    21  H   -0.000000   0.000000  -0.000000   0.000001   0.000001  -0.000079
    22  H   -0.000000   0.000000  -0.000000  -0.000000  -0.000003  -0.000116
    23  H    0.000000  -0.000000   0.000000   0.000041   0.000000  -0.000031
    24  H    0.000000   0.000000   0.000000   0.000000  -0.000000   0.000006
    25  H    0.000000  -0.000000   0.000000   0.000026  -0.000000  -0.000089
    26  H    0.000000  -0.000000   0.000000   0.000005  -0.000000  -0.000062
    27  H    0.004775  -0.000762  -0.000003  -0.065555   0.002212   0.000032
               7          8          9         10         11         12
     1  O    0.000004  -0.000000  -0.000000   0.000000  -0.000000  -0.000000
     2  N   -0.000145   0.000002  -0.000005   0.000000  -0.000000   0.000002
     3  O    0.000002  -0.000000  -0.000000   0.000000  -0.000000  -0.000000
     4  C    0.005125  -0.000249   0.000746  -0.000036  -0.000028  -0.000158
     5  C   -0.030396   0.003166   0.000654  -0.000054   0.000024  -0.000183
     6  N    0.170772  -0.050137  -0.062885   0.003780  -0.000185   0.003835
     7  C    5.019147   0.418516   0.351195  -0.054544  -0.009048  -0.061397
     8  H    0.418516   0.536824  -0.054673   0.000676  -0.000309  -0.002195
     9  C    0.351195  -0.054673   5.158184   0.325148  -0.050513  -0.005280
    10  C   -0.054544   0.000676   0.325148   5.118529   0.337107  -0.061157
    11  C   -0.009048  -0.000309  -0.050513   0.337107   5.120088   0.335776
    12  C   -0.061397  -0.002195  -0.005280  -0.061157   0.335776   5.119673
    13  C    0.336487  -0.037745  -0.060599  -0.000203  -0.050404   0.372130
    14  H   -0.046377  -0.000835   0.004424  -0.000407   0.004212  -0.036567
    15  N   -0.058352   0.003884  -0.014547   0.001534  -0.013177  -0.082163
    16  C   -0.001706  -0.000008  -0.001027  -0.000051   0.000043   0.002406
    17  H    0.001602  -0.000049  -0.000063   0.000001   0.000000   0.000000
    18  H   -0.021319  -0.004560   0.001371  -0.000083   0.000004  -0.000112
    19  H   -0.036652   0.004322   0.390601  -0.032194  -0.002191   0.000702
    20  H   -0.042581  -0.002090   0.399474  -0.035229   0.003934  -0.000421
    21  H    0.004593  -0.000075  -0.036383   0.402421  -0.034914   0.004362
    22  H   -0.004836   0.003557  -0.047021   0.397809  -0.045390  -0.001025
    23  H    0.000587   0.000035  -0.001983  -0.038981   0.399178  -0.037846
    24  H   -0.000132  -0.000103   0.004396  -0.038435   0.402372  -0.038692
    25  H    0.005141  -0.000024  -0.000423   0.004195  -0.033395   0.398224
    26  H   -0.003797   0.001672   0.000955  -0.002230  -0.041545   0.396758
    27  H   -0.000463   0.000009  -0.000043   0.000006   0.000016  -0.000041
              13         14         15         16         17         18
     1  O   -0.000024  -0.000003   0.000443   0.002235   0.000226   0.000001
     2  N   -0.000041  -0.000086   0.002369  -0.027467  -0.007089  -0.000051
     3  O   -0.000003   0.000001  -0.000016   0.002545   0.017522   0.000012
     4  C   -0.011321   0.002435  -0.062196   0.327201  -0.022909   0.001469
     5  C   -0.000495   0.005420  -0.006993  -0.051426   0.374014  -0.031330
     6  N   -0.047888  -0.006498   0.001584  -0.001081  -0.033707   0.338912
     7  C    0.336487  -0.046377  -0.058352  -0.001706   0.001602  -0.021319
     8  H   -0.037745  -0.000835   0.003884  -0.000008  -0.000049  -0.004560
     9  C   -0.060599   0.004424  -0.014547  -0.001027  -0.000063   0.001371
    10  C   -0.000203  -0.000407   0.001534  -0.000051   0.000001  -0.000083
    11  C   -0.050404   0.004212  -0.013177   0.000043   0.000000   0.000004
    12  C    0.372130  -0.036567  -0.082163   0.002406   0.000000  -0.000112
    13  C    5.042248   0.403367   0.241785  -0.069539  -0.000024   0.002962
    14  H    0.403367   0.525735  -0.036611  -0.004243   0.000074  -0.000103
    15  N    0.241785  -0.036611   6.968384   0.586357  -0.000070  -0.000134
    16  C   -0.069539  -0.004243   0.586357   4.695880   0.001902  -0.000198
    17  H   -0.000024   0.000074  -0.000070   0.001902   0.375412  -0.002795
    18  H    0.002962  -0.000103  -0.000134  -0.000198  -0.002795   0.310089
    19  H   -0.007679   0.000096   0.007495   0.002762   0.000016  -0.000149
    20  H    0.004361  -0.000067   0.000130  -0.000041   0.000000   0.000812
    21  H   -0.000440   0.000010  -0.000042   0.000004  -0.000000   0.000001
    22  H    0.000037  -0.000055   0.000020  -0.000002   0.000000   0.000001
    23  H   -0.007547   0.000002   0.008572   0.000132   0.000000   0.000000
    24  H    0.004696  -0.000057   0.000134   0.000006   0.000000  -0.000000
    25  H   -0.035553  -0.002823   0.000467  -0.000037  -0.000000   0.000002
    26  H   -0.047487  -0.001078   0.004905  -0.000050   0.000000  -0.000000
    27  H    0.005337  -0.000171  -0.042200   0.406624  -0.000084   0.000001
              19         20         21         22         23         24
     1  O    0.000001   0.000000  -0.000000  -0.000000   0.000000   0.000000
     2  N   -0.000005  -0.000000   0.000000   0.000000  -0.000000   0.000000
     3  O    0.000000   0.000000  -0.000000  -0.000000   0.000000   0.000000
     4  C   -0.001235  -0.000083   0.000001  -0.000000   0.000041   0.000000
     5  C    0.001340   0.000141   0.000001  -0.000003   0.000000  -0.000000
     6  N   -0.000502  -0.000280  -0.000079  -0.000116  -0.000031   0.000006
     7  C   -0.036652  -0.042581   0.004593  -0.004836   0.000587  -0.000132
     8  H    0.004322  -0.002090  -0.000075   0.003557   0.000035  -0.000103
     9  C    0.390601   0.399474  -0.036383  -0.047021  -0.001983   0.004396
    10  C   -0.032194  -0.035229   0.402421   0.397809  -0.038981  -0.038435
    11  C   -0.002191   0.003934  -0.034914  -0.045390   0.399178   0.402372
    12  C    0.000702  -0.000421   0.004362  -0.001025  -0.037846  -0.038692
    13  C   -0.007679   0.004361  -0.000440   0.000037  -0.007547   0.004696
    14  H    0.000096  -0.000067   0.000010  -0.000055   0.000002  -0.000057
    15  N    0.007495   0.000130  -0.000042   0.000020   0.008572   0.000134
    16  C    0.002762  -0.000041   0.000004  -0.000002   0.000132   0.000006
    17  H    0.000016   0.000000  -0.000000   0.000000   0.000000   0.000000
    18  H   -0.000149   0.000812   0.000001   0.000001   0.000000  -0.000000
    19  H    0.505262  -0.024808  -0.002784   0.003966   0.001516  -0.000067
    20  H   -0.024808   0.541144  -0.002708  -0.002995  -0.000045  -0.000083
    21  H   -0.002784  -0.002708   0.524108  -0.027409  -0.002899  -0.002243
    22  H    0.003966  -0.002995  -0.027409   0.571299   0.004136  -0.003657
    23  H    0.001516  -0.000045  -0.002899   0.004136   0.498880  -0.025453
    24  H   -0.000067  -0.000083  -0.002243  -0.003657  -0.025453   0.538054
    25  H   -0.000028   0.000012  -0.000087  -0.000081  -0.002303  -0.002296
    26  H    0.000019  -0.000030  -0.000081   0.002388   0.004065  -0.003038
    27  H    0.000063   0.000000  -0.000000   0.000000  -0.000037  -0.000000
              25         26         27
     1  O    0.000000   0.000000   0.004775
     2  N   -0.000000  -0.000000  -0.000762
     3  O    0.000000   0.000000  -0.000003
     4  C    0.000026   0.000005  -0.065555
     5  C   -0.000000  -0.000000   0.002212
     6  N   -0.000089  -0.000062   0.000032
     7  C    0.005141  -0.003797  -0.000463
     8  H   -0.000024   0.001672   0.000009
     9  C   -0.000423   0.000955  -0.000043
    10  C    0.004195  -0.002230   0.000006
    11  C   -0.033395  -0.041545   0.000016
    12  C    0.398224   0.396758  -0.000041
    13  C   -0.035553  -0.047487   0.005337
    14  H   -0.002823  -0.001078  -0.000171
    15  N    0.000467   0.004905  -0.042200
    16  C   -0.000037  -0.000050   0.406624
    17  H   -0.000000   0.000000  -0.000084
    18  H    0.000002  -0.000000   0.000001
    19  H   -0.000028   0.000019   0.000063
    20  H    0.000012  -0.000030   0.000000
    21  H   -0.000087  -0.000081  -0.000000
    22  H   -0.000081   0.002388   0.000000
    23  H   -0.002303   0.004065  -0.000037
    24  H   -0.002296  -0.003038  -0.000000
    25  H    0.506016  -0.024031  -0.000013
    26  H   -0.024031   0.562325   0.000001
    27  H   -0.000013   0.000001   0.447496
 Mulliken charges:
               1
     1  O   -0.466623
     2  N    0.494591
     3  O   -0.505000
     4  C   -0.005133
     5  C    0.188845
     6  N   -0.780693
     7  C    0.058573
     8  H    0.180390
     9  C   -0.301701
    10  C   -0.327603
    11  C   -0.321651
    12  C   -0.306632
    13  C   -0.036419
    14  H    0.190205
    15  N   -0.511560
    16  C    0.128779
    17  H    0.296019
    18  H    0.405196
    19  H    0.190132
    20  H    0.161452
    21  H    0.174641
    22  H    0.149377
    23  H    0.199980
    24  H    0.164593
    25  H    0.187100
    26  H    0.150338
    27  H    0.242802
 Sum of Mulliken charges =  -0.00000
 Mulliken charges with hydrogens summed into heavy atoms:
               1
     1  O   -0.466623
     2  N    0.494591
     3  O   -0.505000
     4  C   -0.005133
     5  C    0.484864
     6  N   -0.375497
     7  C    0.238963
     9  C    0.049883
    10  C   -0.003584
    11  C    0.042922
    12  C    0.030807
    13  C    0.153786
    15  N   -0.511560
    16  C    0.371581
 Electronic spatial extent (au):  <R**2>=           3001.9385
 Charge=             -0.0000 electrons
 Dipole moment (field-independent basis, Debye):
    X=              5.4453    Y=              4.7824    Z=              1.3891  Tot=              7.3792
 Quadrupole moment (field-independent basis, Debye-Ang):
   XX=           -106.1166   YY=            -79.3775   ZZ=            -81.3897
   XY=             -1.6735   XZ=             -0.7110   YZ=              2.0755
 Traceless Quadrupole moment (field-independent basis, Debye-Ang):
   XX=            -17.1553   YY=              9.5838   ZZ=              7.5716
   XY=             -1.6735   XZ=             -0.7110   YZ=              2.0755
 Octapole moment (field-independent basis, Debye-Ang**2):
  XXX=             92.0035  YYY=             36.4947  ZZZ=             -1.3477  XYY=             -4.2028
  XXY=              8.9895  XXZ=              7.7066  XZZ=             -9.7076  YZZ=             -0.4494
  YYZ=              8.2193  XYZ=             -0.1451
 Hexadecapole moment (field-independent basis, Debye-Ang**3):
 XXXX=          -3369.8958 YYYY=           -603.5940 ZZZZ=           -306.8186 XXXY=            -13.9685
 XXXZ=            -35.4811 YYYX=             -4.5158 YYYZ=             26.6186 ZZZX=             -9.0887
 ZZZY=              8.0721 XXYY=           -627.4574 XXZZ=           -523.0592 YYZZ=           -157.6753
 XXYZ=             -1.7891 YYXZ=             -2.5263 ZZXY=              6.1809
 N-N= 9.312319583980D+02 E-N=-3.409175974629D+03  KE= 6.596272230631D+02
 Unable to Open any file for archive entry.
 1\1\GINC-LOTUS\FOpt\RMP2-FC\6-31G(d)\C9H13N3O2\ALEXEY\03-Jul-2023\0\\#
 MP2/6-31G* SCF=Tight Opt=(ModRedun, MaxCycle=20 ) NoSymm\\MolName:\\0,
 1\O,-3.5055964467,-1.381618069,-0.3836933004\N,-3.1168270742,-0.217982
 454,-0.1631485947\O,-3.8864288225,0.7562284298,-0.0530729421\C,-1.6835
 703336,-0.0184018206,-0.0220766023\C,-1.2990436125,1.2628626827,0.2750
 742238\N,-0.0564947983,1.7447468865,0.4262975532\C,1.2041445149,1.0190
 613534,0.3820338242\H,1.8622866731,1.5493897562,1.0864959869\C,1.88568
 52149,1.0297853288,-0.985621376\C,3.2883305843,0.4272598008,-0.8452696
 172\C,3.2554069818,-0.9681691296,-0.2164662992\C,2.4833179043,-0.97886
 55357,1.1045380326\C,1.0677263413,-0.4307339893,0.8914043052\H,0.50843
 07439,-0.4105111202,1.8398766391\N,0.4094662076,-1.3263633122,-0.05498
 46718\C,-0.8429402962,-1.157674026,-0.3355293701\H,-2.0938502586,1.994
 1112153,0.3940769809\H,0.0032679348,2.7295055302,0.6564677946\H,1.2808
 714087,0.4500509896,-1.6911825078\H,1.9422972194,2.0574438981,-1.36553
 96071\H,3.7754236606,0.3897105636,-1.8263849144\H,3.8970071273,1.09604
 49003,-0.220155948\H,2.7679757912,-1.6673921428,-0.9030410245\H,4.2785
 578339,-1.3283824759,-0.0564523943\H,2.408044118,-2.0002154627,1.49196
 86885\H,3.0044478239,-0.3775133904,1.8622653617\H,-1.2749464413,-1.878
 3584066,-1.0308902206\\Version=ES64L-G16RevC.02\HF=-661.2994923\MP2=-6
 63.3339238\RMSD=7.037e-09\RMSF=1.742e-03\Dipole=1.9933224,1.6902892,0.
 5017514\PG=C01 [X(C9H13N3O2)]\\@
 The archive entry for this job was punched.


 When cryptography is outlawed, bayl bhgynjf jvyy unir cevinpl.
 Job cpu time:       0 days  1 hours 13 minutes 11.6 seconds.
 Elapsed time:       0 days  0 hours 22 minutes  6.4 seconds.
 File lengths (MBytes):  RWF=     36 Int=      0 D2E=      0 Chk=      7 Scr=      1
 Normal termination of Gaussian 16 at Mon Jul  3 01:28:00 2023.
