 Entering Gaussian System, Link 0=g16
 Initial command:
 /home/alexey/programs//g16/l1.exe "/home/alexey/tmp/Gau-1613681.inp" -scrdir="/home/alexey/tmp/"
 Entering Link 1 = /home/alexey/programs//g16/l1.exe PID=   1613683.
  
 Copyright (c) 1988-2021, Gaussian, Inc.  All Rights Reserved.
  
 This is part of the Gaussian(R) 16 program.  It is based on
 the Gaussian(R) 09 system (copyright 2009, Gaussian, Inc.),
 the Gaussian(R) 03 system (copyright 2003, Gaussian, Inc.),
 the Gaussian(R) 98 system (copyright 1998, Gaussian, Inc.),
 the Gaussian(R) 94 system (copyright 1995, Gaussian, Inc.),
 the Gaussian 92(TM) system (copyright 1992, Gaussian, Inc.),
 the Gaussian 90(TM) system (copyright 1990, Gaussian, Inc.),
 the Gaussian 88(TM) system (copyright 1988, Gaussian, Inc.),
 the Gaussian 86(TM) system (copyright 1986, Carnegie Mellon
 University), and the Gaussian 82(TM) system (copyright 1983,
 Carnegie Mellon University). Gaussian is a federally registered
 trademark of Gaussian, Inc.
  
 This software contains proprietary and confidential information,
 including trade secrets, belonging to Gaussian, Inc.
  
 This software is provided under written license and may be
 used, copied, transmitted, or stored only in accord with that
 written license.
  
 The following legend is applicable only to US Government
 contracts under FAR:
  
                    RESTRICTED RIGHTS LEGEND
  
 Use, reproduction and disclosure by the US Government is
 subject to restrictions as set forth in subparagraphs (a)
 and (c) of the Commercial Computer Software - Restricted
 Rights clause in FAR 52.227-19.
  
 Gaussian, Inc.
 340 Quinnipiac St., Bldg. 40, Wallingford CT 06492
  
  
 ---------------------------------------------------------------
 Warning -- This program may not be used in any manner that
 competes with the business of Gaussian, Inc. or will provide
 assistance to any competitor of Gaussian, Inc.  The licensee
 of this program is prohibited from giving any competitor of
 Gaussian, Inc. access to this program.  By using this program,
 the user acknowledges that Gaussian, Inc. is engaged in the
 business of creating and licensing software in the field of
 computational chemistry and represents and warrants to the
 licensee that it is not a competitor of Gaussian, Inc. and that
 it will not use this program in any manner prohibited above.
 ---------------------------------------------------------------
  

 Cite this work as:
 Gaussian 16, Revision C.02,
 M. J. Frisch, G. W. Trucks, H. B. Schlegel, G. E. Scuseria, 
 M. A. Robb, J. R. Cheeseman, G. Scalmani, V. Barone, 
 G. A. Petersson, H. Nakatsuji, X. Li, M. Caricato, A. V. Marenich, 
 J. Bloino, B. G. Janesko, R. Gomperts, B. Mennucci, H. P. Hratchian, 
 J. V. Ortiz, A. F. Izmaylov, J. L. Sonnenberg, D. Williams-Young, 
 F. Ding, F. Lipparini, F. Egidi, J. Goings, B. Peng, A. Petrone, 
 T. Henderson, D. Ranasinghe, V. G. Zakrzewski, J. Gao, N. Rega, 
 G. Zheng, W. Liang, M. Hada, M. Ehara, K. Toyota, R. Fukuda, 
 J. Hasegawa, M. Ishida, T. Nakajima, Y. Honda, O. Kitao, H. Nakai, 
 T. Vreven, K. Throssell, J. A. Montgomery, Jr., J. E. Peralta, 
 F. Ogliaro, M. J. Bearpark, J. J. Heyd, E. N. Brothers, K. N. Kudin, 
 V. N. Staroverov, T. A. Keith, R. Kobayashi, J. Normand, 
 K. Raghavachari, A. P. Rendell, J. C. Burant, S. S. Iyengar, 
 J. Tomasi, M. Cossi, J. M. Millam, M. Klene, C. Adamo, R. Cammi, 
 J. W. Ochterski, R. L. Martin, K. Morokuma, O. Farkas, 
 J. B. Foresman, and D. J. Fox, Gaussian, Inc., Wallingford CT, 2019.
 
 ******************************************
 Gaussian 16:  ES64L-G16RevC.02  7-Dec-2021
                 3-Jul-2023 
 ******************************************
 %mem=8GB
 %NPROCS=4
 Will use up to    4 processors via shared memory.
 %NoSave
 ---------------------------------------------------------
 #MP2/6-31G* SCF=Tight Opt=(ModRedun, MaxCycle=20 ) NoSymm
 ---------------------------------------------------------
 1/6=20,18=120,19=15,38=1/1,3;
 2/9=110,12=2,15=1,17=6,18=5,40=1/2;
 3/5=1,6=6,7=1,11=9,25=1,30=1,71=1/1,2,3;
 4//1;
 5/5=2,32=2,38=5/2;
 8/6=4,10=2/1;
 9/15=2,16=-3/6;
 10/5=1,31=1/2;
 6/7=2,8=2,9=2,10=2/1;
 7/12=2,30=1/1,2,3,16;
 1/6=20,18=20,19=15/3(2);
 2/9=110,15=1/2;
 99//99;
 2/9=110,15=1/2;
 3/5=1,6=6,7=1,11=9,25=1,30=1,71=1/1,2,3;
 4/5=5,16=3,69=1/1;
 5/5=2,32=2,38=5/2;
 8/6=4,10=2/1;
 9/15=2,16=-3/6;
 10/5=1,31=1/2;
 7/12=2,30=1/1,2,3,16;
 1/6=20,18=20,19=15/3(-8);
 2/9=110,15=1/2;
 6/7=2,8=2,9=2,10=2/1;
 99/9=10/99;
 --------
 MolName:
 --------
 Symbolic Z-matrix:
 Charge =  0 Multiplicity = 1
 8                    0    -3.56984  -1.25992  -0.76789 
 7                    0    -3.11809  -0.12586  -0.62007 
 8                    0    -3.73227   0.89548  -0.93188 
 6                    0    -1.7004    0.01251  -0.05661 
 6                    0    -1.3157    1.31164   0.29588 
 7                    0    -0.0863    1.67298   0.76902 
 6                    0     1.19421   0.9542    0.53313 
 1                    0     1.95137   1.4721    1.17875 
 6                    0     1.749     1.02722  -0.91115 
 6                    0     3.19156   0.48786  -0.93294 
 6                    0     3.26163  -0.92796  -0.33859 
 6                    0     2.61272  -0.98413   1.06163 
 6                    0     1.13905  -0.49382   1.03018 
 1                    0     0.74217  -0.53665   2.07197 
 7                    0     0.36811  -1.40672   0.1826 
 6                    0    -0.91337  -1.24981   0.08821 
 1                    0    -2.04249   2.13036   0.16452 
 1                    0     0.14238   2.65791   0.92371 
 1                    0     1.11187   0.42753  -1.59574 
 1                    0     1.74399   2.07842  -1.26983 
 1                    0     3.57688   0.47782  -1.97604 
 1                    0     3.84327   1.16176  -0.33329 
 1                    0     2.72828  -1.63192  -1.01681 
 1                    0     4.32072  -1.2603   -0.27632 
 1                    0     2.64335  -2.03028   1.4376 
 1                    0     3.19809  -0.35552   1.76498 
 1                    0    -1.48019  -2.14089  -0.21903 
 
 The following ModRedundant input section has been read:
 D      16       4      15      27 F                                           
 D       1       2       4      16 F                                           
 D       7      13      15      16 F                                           
 D       7       9      10      11 F                                           
 D       9      10      11      12 F                                           
 D       6       7      13      15 F                                           
 

 GradGradGradGradGradGradGradGradGradGradGradGradGradGradGradGradGradGrad
 Berny optimization.
 Initialization pass.
                           ----------------------------
                           !    Initial Parameters    !
                           ! (Angstroms and Degrees)  !
 --------------------------                            --------------------------
 ! Name  Definition              Value          Derivative Info.                !
 --------------------------------------------------------------------------------
 ! R1    R(1,2)                  1.2296         estimate D2E/DX2                !
 ! R2    R(2,3)                  1.2319         estimate D2E/DX2                !
 ! R3    R(2,4)                  1.5318         estimate D2E/DX2                !
 ! R4    R(4,5)                  1.4            estimate D2E/DX2                !
 ! R5    R(4,16)                 1.4946         estimate D2E/DX2                !
 ! R6    R(5,6)                  1.366          estimate D2E/DX2                !
 ! R7    R(5,17)                 1.1026         estimate D2E/DX2                !
 ! R8    R(6,7)                  1.4873         estimate D2E/DX2                !
 ! R9    R(6,18)                 1.0229         estimate D2E/DX2                !
 ! R10   R(7,8)                  1.1218         estimate D2E/DX2                !
 ! R11   R(7,9)                  1.5489         estimate D2E/DX2                !
 ! R12   R(7,13)                 1.5319         estimate D2E/DX2                !
 ! R13   R(9,10)                 1.5402         estimate D2E/DX2                !
 ! R14   R(9,19)                 1.111          estimate D2E/DX2                !
 ! R15   R(9,20)                 1.1107         estimate D2E/DX2                !
 ! R16   R(10,11)                1.5371         estimate D2E/DX2                !
 ! R17   R(10,21)                1.112          estimate D2E/DX2                !
 ! R18   R(10,22)                1.1129         estimate D2E/DX2                !
 ! R19   R(11,12)                1.5443         estimate D2E/DX2                !
 ! R20   R(11,23)                1.1136         estimate D2E/DX2                !
 ! R21   R(11,24)                1.1118         estimate D2E/DX2                !
 ! R22   R(12,13)                1.5534         estimate D2E/DX2                !
 ! R23   R(12,25)                1.1121         estimate D2E/DX2                !
 ! R24   R(12,26)                1.1102         estimate D2E/DX2                !
 ! R25   R(13,14)                1.1156         estimate D2E/DX2                !
 ! R26   R(13,15)                1.465          estimate D2E/DX2                !
 ! R27   R(15,16)                1.2945         estimate D2E/DX2                !
 ! R28   R(16,27)                1.0999         estimate D2E/DX2                !
 ! A1    A(1,2,3)              123.4384         estimate D2E/DX2                !
 ! A2    A(1,2,4)              117.8746         estimate D2E/DX2                !
 ! A3    A(3,2,4)              118.6612         estimate D2E/DX2                !
 ! A4    A(2,4,5)              115.5151         estimate D2E/DX2                !
 ! A5    A(2,4,16)             116.532          estimate D2E/DX2                !
 ! A6    A(5,4,16)             127.9259         estimate D2E/DX2                !
 ! A7    A(4,5,6)              125.4505         estimate D2E/DX2                !
 ! A8    A(4,5,17)             118.5486         estimate D2E/DX2                !
 ! A9    A(6,5,17)             115.9823         estimate D2E/DX2                !
 ! A10   A(5,6,7)              126.3075         estimate D2E/DX2                !
 ! A11   A(5,6,18)             120.5511         estimate D2E/DX2                !
 ! A12   A(7,6,18)             107.2687         estimate D2E/DX2                !
 ! A13   A(6,7,8)              105.4697         estimate D2E/DX2                !
 ! A14   A(6,7,9)              115.6897         estimate D2E/DX2                !
 ! A15   A(6,7,13)             111.984          estimate D2E/DX2                !
 ! A16   A(8,7,9)              105.8512         estimate D2E/DX2                !
 ! A17   A(8,7,13)             105.8999         estimate D2E/DX2                !
 ! A18   A(9,7,13)             111.1002         estimate D2E/DX2                !
 ! A19   A(7,9,10)             109.3994         estimate D2E/DX2                !
 ! A20   A(7,9,19)             110.1044         estimate D2E/DX2                !
 ! A21   A(7,9,20)             110.1279         estimate D2E/DX2                !
 ! A22   A(10,9,19)            109.8392         estimate D2E/DX2                !
 ! A23   A(10,9,20)            109.3337         estimate D2E/DX2                !
 ! A24   A(19,9,20)            108.0165         estimate D2E/DX2                !
 ! A25   A(9,10,11)            111.0861         estimate D2E/DX2                !
 ! A26   A(9,10,21)            109.935          estimate D2E/DX2                !
 ! A27   A(9,10,22)            109.196          estimate D2E/DX2                !
 ! A28   A(11,10,21)           109.7907         estimate D2E/DX2                !
 ! A29   A(11,10,22)           108.828          estimate D2E/DX2                !
 ! A30   A(21,10,22)           107.9379         estimate D2E/DX2                !
 ! A31   A(10,11,12)           111.4039         estimate D2E/DX2                !
 ! A32   A(10,11,23)           108.9628         estimate D2E/DX2                !
 ! A33   A(10,11,24)           109.903          estimate D2E/DX2                !
 ! A34   A(12,11,23)           109.1464         estimate D2E/DX2                !
 ! A35   A(12,11,24)           109.7937         estimate D2E/DX2                !
 ! A36   A(23,11,24)           107.5423         estimate D2E/DX2                !
 ! A37   A(11,12,13)           111.641          estimate D2E/DX2                !
 ! A38   A(11,12,25)           109.219          estimate D2E/DX2                !
 ! A39   A(11,12,26)           109.4074         estimate D2E/DX2                !
 ! A40   A(13,12,25)           109.2624         estimate D2E/DX2                !
 ! A41   A(13,12,26)           109.5308         estimate D2E/DX2                !
 ! A42   A(25,12,26)           107.6946         estimate D2E/DX2                !
 ! A43   A(7,13,12)            105.7091         estimate D2E/DX2                !
 ! A44   A(7,13,14)            110.6141         estimate D2E/DX2                !
 ! A45   A(7,13,15)            114.85           estimate D2E/DX2                !
 ! A46   A(12,13,14)           107.8457         estimate D2E/DX2                !
 ! A47   A(12,13,15)           108.3162         estimate D2E/DX2                !
 ! A48   A(14,13,15)           109.2161         estimate D2E/DX2                !
 ! A49   A(13,15,16)           119.1837         estimate D2E/DX2                !
 ! A50   A(4,16,15)            129.1037         estimate D2E/DX2                !
 ! A51   A(4,16,27)            112.6944         estimate D2E/DX2                !
 ! A52   A(15,16,27)           115.616          estimate D2E/DX2                !
 ! D1    D(1,2,4,5)           -170.004          estimate D2E/DX2                !
 ! D2    D(1,2,4,16)             8.2584         Frozen                          !
 ! D3    D(3,2,4,5)             11.7785         estimate D2E/DX2                !
 ! D4    D(3,2,4,16)          -169.9591         estimate D2E/DX2                !
 ! D5    D(2,4,5,6)           -177.4455         estimate D2E/DX2                !
 ! D6    D(2,4,5,17)             0.9158         estimate D2E/DX2                !
 ! D7    D(16,4,5,6)             4.5255         estimate D2E/DX2                !
 ! D8    D(16,4,5,17)         -177.1132         estimate D2E/DX2                !
 ! D9    D(16,4,15,27)          11.5364         Frozen                          !
 ! D10   D(2,4,16,15)          159.5004         estimate D2E/DX2                !
 ! D11   D(2,4,16,27)           -1.1976         estimate D2E/DX2                !
 ! D12   D(5,4,16,15)          -22.4876         estimate D2E/DX2                !
 ! D13   D(5,4,16,27)          176.8143         estimate D2E/DX2                !
 ! D14   D(4,5,6,7)             24.9403         estimate D2E/DX2                !
 ! D15   D(4,5,6,18)           174.4205         estimate D2E/DX2                !
 ! D16   D(17,5,6,7)          -153.4584         estimate D2E/DX2                !
 ! D17   D(17,5,6,18)           -3.9783         estimate D2E/DX2                !
 ! D18   D(5,6,7,8)           -173.1105         estimate D2E/DX2                !
 ! D19   D(5,6,7,9)             70.2981         estimate D2E/DX2                !
 ! D20   D(5,6,7,13)           -58.3849         estimate D2E/DX2                !
 ! D21   D(18,6,7,8)            34.1464         estimate D2E/DX2                !
 ! D22   D(18,6,7,9)           -82.445          estimate D2E/DX2                !
 ! D23   D(18,6,7,13)          148.872          estimate D2E/DX2                !
 ! D24   D(6,7,9,10)           168.8201         estimate D2E/DX2                !
 ! D25   D(6,7,9,19)           -70.3793         estimate D2E/DX2                !
 ! D26   D(6,7,9,20)            48.6289         estimate D2E/DX2                !
 ! D27   D(8,7,9,10)            52.4434         estimate D2E/DX2                !
 ! D28   D(8,7,9,19)           173.244          estimate D2E/DX2                !
 ! D29   D(8,7,9,20)           -67.7478         estimate D2E/DX2                !
 ! D30   D(13,7,9,10)          -62.0644         estimate D2E/DX2                !
 ! D31   D(13,7,9,19)           58.7362         estimate D2E/DX2                !
 ! D32   D(13,7,9,20)          177.7444         estimate D2E/DX2                !
 ! D33   D(6,7,13,12)         -165.6371         estimate D2E/DX2                !
 ! D34   D(6,7,13,14)          -49.1549         estimate D2E/DX2                !
 ! D35   D(6,7,13,15)           75.0209         Frozen                          !
 ! D36   D(8,7,13,12)          -51.1755         estimate D2E/DX2                !
 ! D37   D(8,7,13,14)           65.3066         estimate D2E/DX2                !
 ! D38   D(8,7,13,15)         -170.5175         estimate D2E/DX2                !
 ! D39   D(9,7,13,12)           63.3018         estimate D2E/DX2                !
 ! D40   D(9,7,13,14)          179.784          estimate D2E/DX2                !
 ! D41   D(9,7,13,15)          -56.0402         estimate D2E/DX2                !
 ! D42   D(7,9,10,11)           54.8124         Frozen                          !
 ! D43   D(7,9,10,21)          176.5386         estimate D2E/DX2                !
 ! D44   D(7,9,10,22)          -65.2206         estimate D2E/DX2                !
 ! D45   D(19,9,10,11)         -66.1494         estimate D2E/DX2                !
 ! D46   D(19,9,10,21)          55.5769         estimate D2E/DX2                !
 ! D47   D(19,9,10,22)         173.8176         estimate D2E/DX2                !
 ! D48   D(20,9,10,11)         175.4885         estimate D2E/DX2                !
 ! D49   D(20,9,10,21)         -62.7853         estimate D2E/DX2                !
 ! D50   D(20,9,10,22)          55.4554         estimate D2E/DX2                !
 ! D51   D(9,10,11,12)         -52.823          Frozen                          !
 ! D52   D(9,10,11,23)          67.653          estimate D2E/DX2                !
 ! D53   D(9,10,11,24)        -174.7433         estimate D2E/DX2                !
 ! D54   D(21,10,11,12)       -174.6334         estimate D2E/DX2                !
 ! D55   D(21,10,11,23)        -54.1574         estimate D2E/DX2                !
 ! D56   D(21,10,11,24)         63.4462         estimate D2E/DX2                !
 ! D57   D(22,10,11,12)         67.4284         estimate D2E/DX2                !
 ! D58   D(22,10,11,23)       -172.0956         estimate D2E/DX2                !
 ! D59   D(22,10,11,24)        -54.4919         estimate D2E/DX2                !
 ! D60   D(10,11,12,13)         56.6001         estimate D2E/DX2                !
 ! D61   D(10,11,12,25)        177.5422         estimate D2E/DX2                !
 ! D62   D(10,11,12,26)        -64.8066         estimate D2E/DX2                !
 ! D63   D(23,11,12,13)        -63.7678         estimate D2E/DX2                !
 ! D64   D(23,11,12,25)         57.1743         estimate D2E/DX2                !
 ! D65   D(23,11,12,26)        174.8255         estimate D2E/DX2                !
 ! D66   D(24,11,12,13)        178.5837         estimate D2E/DX2                !
 ! D67   D(24,11,12,25)        -60.4742         estimate D2E/DX2                !
 ! D68   D(24,11,12,26)         57.177          estimate D2E/DX2                !
 ! D69   D(11,12,13,7)         -60.2844         estimate D2E/DX2                !
 ! D70   D(11,12,13,14)       -178.6286         estimate D2E/DX2                !
 ! D71   D(11,12,13,15)         63.2854         estimate D2E/DX2                !
 ! D72   D(25,12,13,7)         178.7988         estimate D2E/DX2                !
 ! D73   D(25,12,13,14)         60.4546         estimate D2E/DX2                !
 ! D74   D(25,12,13,15)        -57.6314         estimate D2E/DX2                !
 ! D75   D(26,12,13,7)          61.0508         estimate D2E/DX2                !
 ! D76   D(26,12,13,14)        -57.2935         estimate D2E/DX2                !
 ! D77   D(26,12,13,15)       -175.3795         estimate D2E/DX2                !
 ! D78   D(7,13,15,16)         -67.1606         Frozen                          !
 ! D79   D(12,13,15,16)        174.9601         estimate D2E/DX2                !
 ! D80   D(14,13,15,16)         57.7511         estimate D2E/DX2                !
 ! D81   D(13,15,16,4)          42.3525         estimate D2E/DX2                !
 ! D82   D(13,15,16,27)       -157.4145         estimate D2E/DX2                !
 --------------------------------------------------------------------------------
 Trust Radius=3.00D-01 FncErr=1.00D-07 GrdErr=1.00D-07 EigMax=2.50D+02 EigMin=1.00D-04
 Number of steps in this run=     20 maximum allowed number of steps=    162.
 GradGradGradGradGradGradGradGradGradGradGradGradGradGradGradGradGradGrad

                          Input orientation:                          
 ---------------------------------------------------------------------
 Center     Atomic      Atomic             Coordinates (Angstroms)
 Number     Number       Type             X           Y           Z
 ---------------------------------------------------------------------
      1          8           0       -3.569840   -1.259920   -0.767890
      2          7           0       -3.118090   -0.125860   -0.620070
      3          8           0       -3.732270    0.895480   -0.931880
      4          6           0       -1.700400    0.012510   -0.056610
      5          6           0       -1.315700    1.311640    0.295880
      6          7           0       -0.086300    1.672980    0.769020
      7          6           0        1.194210    0.954200    0.533130
      8          1           0        1.951370    1.472100    1.178750
      9          6           0        1.749000    1.027220   -0.911150
     10          6           0        3.191560    0.487860   -0.932940
     11          6           0        3.261630   -0.927960   -0.338590
     12          6           0        2.612720   -0.984130    1.061630
     13          6           0        1.139050   -0.493820    1.030180
     14          1           0        0.742170   -0.536650    2.071970
     15          7           0        0.368110   -1.406720    0.182600
     16          6           0       -0.913370   -1.249810    0.088210
     17          1           0       -2.042490    2.130360    0.164520
     18          1           0        0.142380    2.657910    0.923710
     19          1           0        1.111870    0.427530   -1.595740
     20          1           0        1.743990    2.078420   -1.269830
     21          1           0        3.576880    0.477820   -1.976040
     22          1           0        3.843270    1.161760   -0.333290
     23          1           0        2.728280   -1.631920   -1.016810
     24          1           0        4.320720   -1.260300   -0.276320
     25          1           0        2.643350   -2.030280    1.437600
     26          1           0        3.198090   -0.355520    1.764980
     27          1           0       -1.480190   -2.140890   -0.219030
 ---------------------------------------------------------------------
                    Distance matrix (angstroms):
                    1          2          3          4          5
     1  O    0.000000
     2  N    1.229643   0.000000
     3  O    2.167724   1.231900   0.000000
     4  C    2.370612   1.531822   2.382064   0.000000
     5  C    3.581295   2.480722   2.742334   1.399994   0.000000
     6  N    4.806147   3.789083   4.097641   2.458484   1.365962
     7  C    5.412130   4.592639   5.140030   3.100539   2.546311
     8  H    6.460426   5.611475   6.090239   4.122128   3.388060
     9  C    5.791510   5.010278   5.482892   3.695705   3.306086
    10  C    6.985593   6.347143   6.935818   4.992513   4.743839
    11  C    6.852990   6.436103   7.252004   5.058235   5.135203
    12  C    6.453468   6.033815   6.911289   4.565825   4.614046
    13  C    5.098393   4.580607   5.432273   3.082200   3.134435
    14  H    5.213574   4.724133   5.576264   3.286119   3.287172
    15  N    4.053694   3.799799   4.832733   2.519954   3.199614
    16  C    2.791029   2.574046   3.686333   1.494604   2.601158
    17  H    3.833560   2.619738   2.362706   2.156667   1.102625
    18  H    5.656101   4.556676   4.643521   3.369719   2.081492
    19  H    5.044921   4.376155   4.911759   3.232650   3.202026
    20  H    6.295494   5.377812   5.612752   4.195677   3.521520
    21  H    7.453521   6.857529   7.395159   5.634750   5.458408
    22  H    7.810737   7.085248   7.603816   5.668298   5.199355
    23  H    6.314005   6.050261   6.937843   4.820720   5.171216
    24  H    7.905857   7.532663   8.362284   6.158101   6.221858
    25  H    6.637874   6.407419   7.404258   5.027307   5.305283
    26  H    7.282736   6.755393   7.541084   5.239164   5.031101
    27  H    2.333236   2.627526   3.847020   2.170715   3.494589
                    6          7          8          9         10
     6  N    0.000000
     7  C    1.487278   0.000000
     8  H    2.088140   1.121756   0.000000
     9  C    2.570662   1.548893   2.146288   0.000000
    10  C    3.878859   2.521159   2.639325   1.540248   0.000000
    11  C    4.381817   2.928591   3.127202   2.537440   1.537110
    12  C    3.798758   2.459391   2.546403   2.946761   2.545608
    13  C    2.502940   1.531948   2.132318   2.540544   3.005051
    14  H    2.695646   2.189749   2.509000   3.515452   4.009815
    15  N    3.167796   2.525719   3.433166   3.004532   3.578510
    16  C    3.112916   3.081803   4.099367   3.643048   4.573040
    17  H    2.097927   3.463445   4.172875   4.092601   5.594417
    18  H    1.022893   2.039982   2.177989   2.933784   4.177770
    19  H    2.928967   2.194595   3.081182   1.110957   2.183587
    20  H    2.769703   2.194719   2.531042   1.110720   2.176887
    21  H    4.731030   3.492848   3.685590   2.185630   1.112039
    22  H    4.113144   2.794867   2.441692   2.176692   1.112855
    23  H    4.693976   3.382854   3.880594   2.835697   2.171435
    24  H    5.396174   3.915901   3.898340   3.499929   2.182250
    25  H    4.648884   3.438778   3.579456   3.957878   3.501574
    26  H    3.986724   2.692277   2.288705   3.342679   2.826677
    27  H    4.179088   4.159055   5.175238   4.576420   5.407887
                   11         12         13         14         15
    11  C    0.000000
    12  C    1.544298   0.000000
    13  C    2.562685   1.553414   0.000000
    14  H    3.508789   2.172552   1.115650   0.000000
    15  N    2.978810   2.447356   1.464966   2.113448   0.000000
    16  C    4.209082   3.667621   2.381440   2.680432   1.294497
    17  H    6.143300   5.672375   4.214011   4.301818   4.280450
    18  H    4.917478   4.402960   3.307278   3.447240   4.137803
    19  H    2.835357   3.362581   2.782998   3.810304   2.660854
    20  H    3.494104   3.945835   3.503201   4.360030   4.018557
    21  H    2.181019   3.506329   3.990546   5.044910   4.302025
    22  H    2.169162   2.839877   3.451493   4.276294   4.352007
    23  H    1.113555   2.180114   2.830387   3.832077   2.657010
    24  H    1.111755   2.187154   3.523841   4.340986   3.981855
    25  H    2.179961   1.112080   2.188520   2.499568   2.672184
    26  H    2.180993   1.110185   2.190594   2.481651   3.408480
    27  H    4.895952   4.441857   3.336732   3.572275   2.028922
                   16         17         18         19         20
    16  C    0.000000
    17  H    3.564588   0.000000
    18  H    4.133152   2.372411   0.000000
    19  H    3.122620   3.993511   3.501733   0.000000
    20  H    4.470229   4.049381   2.777153   1.797562   0.000000
    21  H    5.235282   6.236201   4.995711   2.494681   2.533799
    22  H    5.349669   5.985664   4.185105   3.097325   2.474742
    23  H    3.824747   6.189551   5.371698   2.681282   3.847008
    24  H    5.246779   7.223666   5.852433   3.858284   4.332857
    25  H    3.883329   6.394432   5.338357   4.193735   5.002044
    26  H    4.529395   6.017038   4.373312   4.032359   4.153136
    27  H    1.099866   4.325144   5.192983   3.900114   5.413141
                   21         22         23         24         25
    21  H    0.000000
    22  H    1.799268   0.000000
    23  H    2.468045   3.084648   0.000000
    24  H    2.542323   2.469328   1.795074   0.000000
    25  H    4.337624   3.842522   2.487978   2.518722   0.000000
    26  H    3.851385   2.668545   3.096494   2.499166   1.794362
    27  H    5.959755   6.265762   4.313551   5.867647   4.445249
                   26         27
    26  H    0.000000
    27  H    5.386107   0.000000
 Symmetry turned off by external request.
 Stoichiometry    C9H13N3O2
 Framework group  C1[X(C9H13N3O2)]
 Deg. of freedom    75
 Full point group                 C1      NOp   1
 Rotational constants (GHZ):           1.5362817           0.4122265           0.3727576
 Standard basis: 6-31G(d) (6D, 7F)
   236 basis functions,   444 primitive gaussians,   236 cartesian basis functions
    52 alpha electrons       52 beta electrons
       nuclear repulsion energy       919.7572265941 Hartrees.
 NAtoms=   27 NActive=   27 NUniq=   27 SFac= 1.00D+00 NAtFMM=   60 NAOKFM=F Big=F
 Integral buffers will be    131072 words long.
 Raffenetti 1 integral format.
 Two-electron integral symmetry is turned off.
 One-electron integrals computed using PRISM.
 NBasis=   236 RedAO= T EigKep=  1.32D-03  NBF=   236
 NBsUse=   236 1.00D-06 EigRej= -1.00D+00 NBFU=   236
 ExpMin= 1.61D-01 ExpMax= 5.48D+03 ExpMxC= 8.25D+02 IAcc=3 IRadAn=         5 AccDes= 0.00D+00
 Harris functional with IExCor=  205 and IRadAn=       5 diagonalized for initial guess.
 HarFok:  IExCor=  205 AccDes= 0.00D+00 IRadAn=         5 IDoV= 1 UseB2=F ITyADJ=14
 ICtDFT=  3500011 ScaDFX=  1.000000  1.000000  1.000000  1.000000
 FoFCou: FMM=F IPFlag=           0 FMFlag=      100000 FMFlg1=           0
         NFxFlg=           0 DoJE=T BraDBF=F KetDBF=T FulRan=T
         wScrn=  0.000000 ICntrl=       500 IOpCl=  0 I1Cent=   200000004 NGrid=           0
         NMat0=    1 NMatS0=      1 NMatT0=    0 NMatD0=    1 NMtDS0=    0 NMtDT0=    0
 Symmetry not used in FoFCou.
 Keep R1 ints in memory in canonical form, NReq=397720213.
 Requested convergence on RMS density matrix=1.00D-08 within 128 cycles.
 Requested convergence on MAX density matrix=1.00D-06.
 Requested convergence on             energy=1.00D-06.
 No special actions if energy rises.
 SCF Done:  E(RHF) =  -661.265439091     A.U. after   16 cycles
            NFock= 16  Conv=0.78D-08     -V/T= 2.0036
 ExpMin= 1.61D-01 ExpMax= 5.48D+03 ExpMxC= 8.25D+02 IAcc=3 IRadAn=         5 AccDes= 0.00D+00
 HarFok:  IExCor=  205 AccDes= 0.00D+00 IRadAn=         5 IDoV=-2 UseB2=F ITyADJ=14
 ICtDFT= 12500011 ScaDFX=  1.000000  1.000000  1.000000  1.000000
 Range of M.O.s used for correlation:    15   236
 NBasis=   236 NAE=    52 NBE=    52 NFC=    14 NFV=     0
 NROrb=    222 NOA=    38 NOB=    38 NVA=   184 NVB=   184
 Fully direct method using O(ONN) memory.
 JobTyp=1 Pass  1:  I=  15 to  52 NPSUse=  4 ParTrn=T ParDer=T DoDerP=T.
 Spin components of T(2) and E(2):
     alpha-alpha T2 =       0.9227414755D-01 E2=     -0.2721721365D+00
     alpha-beta  T2 =       0.5007753052D+00 E2=     -0.1494811826D+01
     beta-beta   T2 =       0.9227414755D-01 E2=     -0.2721721365D+00
 ANorm=    0.1298200139D+01
 E2 =    -0.2039156099D+01 EUMP2 =    -0.66330459518988D+03
          IDoAtm=111111111111111111111111111
          Differentiating once with respect to electric field.
                with respect to dipole field.
          Differentiating once with respect to nuclear coordinates.
 Keep R1 ints in memory in canonical form, NReq=397723379.
          There are     1 degrees of freedom in the 1st order CPHF.  IDoFFX=0 NUNeed=     1.
 LinEq1:  Iter=  0 NonCon=     1 RMS=4.70D-03 Max=1.33D-01 NDo=     1
 AX will form     1 AO Fock derivatives at one time.
 LinEq1:  Iter=  1 NonCon=     1 RMS=1.60D-03 Max=3.79D-02 NDo=     1
 LinEq1:  Iter=  2 NonCon=     1 RMS=6.65D-04 Max=2.18D-02 NDo=     1
 LinEq1:  Iter=  3 NonCon=     1 RMS=3.04D-04 Max=1.01D-02 NDo=     1
 LinEq1:  Iter=  4 NonCon=     1 RMS=9.84D-05 Max=2.88D-03 NDo=     1
 LinEq1:  Iter=  5 NonCon=     1 RMS=4.12D-05 Max=1.81D-03 NDo=     1
 LinEq1:  Iter=  6 NonCon=     1 RMS=1.70D-05 Max=5.10D-04 NDo=     1
 LinEq1:  Iter=  7 NonCon=     1 RMS=6.56D-06 Max=9.66D-05 NDo=     1
 LinEq1:  Iter=  8 NonCon=     1 RMS=2.61D-06 Max=5.87D-05 NDo=     1
 LinEq1:  Iter=  9 NonCon=     1 RMS=1.02D-06 Max=3.18D-05 NDo=     1
 LinEq1:  Iter= 10 NonCon=     1 RMS=4.70D-07 Max=1.33D-05 NDo=     1
 LinEq1:  Iter= 11 NonCon=     1 RMS=1.87D-07 Max=4.79D-06 NDo=     1
 LinEq1:  Iter= 12 NonCon=     1 RMS=6.79D-08 Max=1.36D-06 NDo=     1
 LinEq1:  Iter= 13 NonCon=     1 RMS=2.21D-08 Max=4.89D-07 NDo=     1
 LinEq1:  Iter= 14 NonCon=     1 RMS=7.36D-09 Max=1.85D-07 NDo=     1
 LinEq1:  Iter= 15 NonCon=     1 RMS=2.65D-09 Max=7.16D-08 NDo=     1
 LinEq1:  Iter= 16 NonCon=     1 RMS=9.02D-10 Max=1.41D-08 NDo=     1
 LinEq1:  Iter= 17 NonCon=     1 RMS=3.02D-10 Max=5.41D-09 NDo=     1
 LinEq1:  Iter= 18 NonCon=     1 RMS=1.03D-10 Max=1.29D-09 NDo=     1
 LinEq1:  Iter= 19 NonCon=     0 RMS=3.40D-11 Max=6.04D-10 NDo=     1
 Linear equations converged to 1.000D-10 1.000D-09 after    19 iterations.
 End of Minotr F.D. properties file   721 does not exist.
 End of Minotr F.D. properties file   722 does not exist.
 End of Minotr F.D. properties file   788 does not exist.

 **********************************************************************

            Population analysis using the SCF Density.

 **********************************************************************

 Alpha  occ. eigenvalues --  -20.59797 -20.59502 -15.85378 -15.63551 -15.55946
 Alpha  occ. eigenvalues --  -11.35846 -11.30615 -11.30293 -11.29838 -11.27460
 Alpha  occ. eigenvalues --  -11.24581 -11.23859 -11.23166 -11.22843  -1.58533
 Alpha  occ. eigenvalues --   -1.38006  -1.29056  -1.22375  -1.13194  -1.08412
 Alpha  occ. eigenvalues --   -1.01563  -1.00645  -0.93678  -0.88903  -0.84785
 Alpha  occ. eigenvalues --   -0.81489  -0.77992  -0.76889  -0.74244  -0.71290
 Alpha  occ. eigenvalues --   -0.70287  -0.69837  -0.67336  -0.63811  -0.63514
 Alpha  occ. eigenvalues --   -0.61933  -0.59532  -0.57325  -0.56450  -0.54717
 Alpha  occ. eigenvalues --   -0.54273  -0.50480  -0.49571  -0.48652  -0.47839
 Alpha  occ. eigenvalues --   -0.47798  -0.46497  -0.45079  -0.44084  -0.42306
 Alpha  occ. eigenvalues --   -0.38500  -0.33376
 Alpha virt. eigenvalues --    0.06943   0.11044   0.17161   0.21726   0.23527
 Alpha virt. eigenvalues --    0.24110   0.26060   0.27957   0.28528   0.28931
 Alpha virt. eigenvalues --    0.30682   0.31618   0.31971   0.32471   0.33105
 Alpha virt. eigenvalues --    0.34037   0.34827   0.35999   0.37528   0.39391
 Alpha virt. eigenvalues --    0.40155   0.41257   0.43998   0.44976   0.45362
 Alpha virt. eigenvalues --    0.47236   0.49821   0.53448   0.57358   0.59298
 Alpha virt. eigenvalues --    0.62764   0.67981   0.69659   0.72697   0.73974
 Alpha virt. eigenvalues --    0.75018   0.75657   0.76744   0.77750   0.78588
 Alpha virt. eigenvalues --    0.80962   0.81889   0.84013   0.85023   0.87733
 Alpha virt. eigenvalues --    0.88181   0.90821   0.92616   0.92862   0.93615
 Alpha virt. eigenvalues --    0.95463   0.97575   0.98715   1.01219   1.01926
 Alpha virt. eigenvalues --    1.03317   1.04908   1.05351   1.06995   1.08458
 Alpha virt. eigenvalues --    1.09901   1.10821   1.11688   1.12451   1.12565
 Alpha virt. eigenvalues --    1.13300   1.14491   1.14811   1.15625   1.16655
 Alpha virt. eigenvalues --    1.17421   1.19008   1.21190   1.22293   1.22729
 Alpha virt. eigenvalues --    1.23332   1.24191   1.26573   1.27278   1.29315
 Alpha virt. eigenvalues --    1.29963   1.31196   1.34714   1.36530   1.39038
 Alpha virt. eigenvalues --    1.41846   1.45973   1.50551   1.52230   1.52987
 Alpha virt. eigenvalues --    1.54802   1.58773   1.61900   1.63752   1.65111
 Alpha virt. eigenvalues --    1.66825   1.68144   1.72456   1.73965   1.75208
 Alpha virt. eigenvalues --    1.79595   1.81824   1.83470   1.86860   1.91543
 Alpha virt. eigenvalues --    1.93544   1.95953   1.98380   1.99881   2.01172
 Alpha virt. eigenvalues --    2.01534   2.04015   2.05242   2.09477   2.11298
 Alpha virt. eigenvalues --    2.11841   2.12759   2.16519   2.18205   2.19371
 Alpha virt. eigenvalues --    2.20859   2.22430   2.24489   2.25045   2.26688
 Alpha virt. eigenvalues --    2.28747   2.31768   2.33089   2.34969   2.37339
 Alpha virt. eigenvalues --    2.39218   2.42638   2.43045   2.44157   2.46161
 Alpha virt. eigenvalues --    2.48476   2.51123   2.53364   2.56458   2.58615
 Alpha virt. eigenvalues --    2.60536   2.62659   2.67736   2.68386   2.68666
 Alpha virt. eigenvalues --    2.69562   2.71500   2.73806   2.74783   2.81703
 Alpha virt. eigenvalues --    2.83761   2.85890   2.89469   2.92172   2.93390
 Alpha virt. eigenvalues --    2.97695   2.98116   3.01995   3.05139   3.06985
 Alpha virt. eigenvalues --    3.09215   3.14570   3.19450   3.22597   3.27307
 Alpha virt. eigenvalues --    3.29162   3.31066   3.37404   3.41570   3.58261
 Alpha virt. eigenvalues --    4.10028   4.22563   4.32142   4.35053   4.43550
 Alpha virt. eigenvalues --    4.51098   4.59275   4.60266   4.70075   4.78160
 Alpha virt. eigenvalues --    4.94776   4.99289   5.04739   5.08767
          Condensed to atoms (all electrons):
               1          2          3          4          5          6
     1  O    8.304603   0.306861  -0.089883  -0.074379   0.003479  -0.000012
     2  N    0.306861   5.678706   0.313249   0.265366  -0.048295   0.000732
     3  O   -0.089883   0.313249   8.325774  -0.087278   0.007783   0.000470
     4  C   -0.074379   0.265366  -0.087278   5.263474   0.560645  -0.055651
     5  C    0.003479  -0.048295   0.007783   0.560645   4.695575   0.319400
     6  N   -0.000012   0.000732   0.000470  -0.055651   0.319400   7.139731
     7  C    0.000001  -0.000113   0.000002   0.007379  -0.031198   0.211753
     8  H   -0.000000   0.000001  -0.000000  -0.000251   0.003136  -0.043911
     9  C    0.000000  -0.000009  -0.000000   0.000534  -0.000254  -0.058106
    10  C   -0.000000   0.000000   0.000000  -0.000023   0.000010   0.003289
    11  C   -0.000000   0.000000  -0.000000  -0.000018   0.000002  -0.000142
    12  C    0.000000   0.000000  -0.000000  -0.000306  -0.000068   0.003970
    13  C   -0.000006   0.000039   0.000000  -0.007812  -0.001806  -0.056738
    14  H    0.000000  -0.000016   0.000000   0.001245   0.001570  -0.004261
    15  N    0.000364   0.001384  -0.000005  -0.068769  -0.005293   0.002002
    16  C   -0.001918  -0.020178   0.002046   0.305085  -0.043737   0.002833
    17  H    0.000156  -0.004417   0.012186  -0.025975   0.376267  -0.032850
    18  H    0.000000  -0.000031   0.000007   0.002068  -0.026796   0.333805
    19  H   -0.000000  -0.000009  -0.000000  -0.000783   0.001543  -0.000933
    20  H    0.000000   0.000000   0.000000  -0.000021  -0.000097   0.000127
    21  H   -0.000000  -0.000000  -0.000000   0.000002   0.000000  -0.000064
    22  H   -0.000000   0.000000  -0.000000  -0.000001  -0.000001  -0.000085
    23  H    0.000000  -0.000000   0.000000   0.000024  -0.000001  -0.000023
    24  H    0.000000   0.000000   0.000000  -0.000000  -0.000000   0.000005
    25  H    0.000000  -0.000000   0.000000   0.000027  -0.000001  -0.000078
    26  H    0.000000  -0.000000   0.000000   0.000004  -0.000002  -0.000082
    27  H    0.007436  -0.000432   0.000095  -0.069559   0.002133  -0.000028
               7          8          9         10         11         12
     1  O    0.000001  -0.000000   0.000000  -0.000000  -0.000000   0.000000
     2  N   -0.000113   0.000001  -0.000009   0.000000   0.000000   0.000000
     3  O    0.000002  -0.000000  -0.000000   0.000000  -0.000000  -0.000000
     4  C    0.007379  -0.000251   0.000534  -0.000023  -0.000018  -0.000306
     5  C   -0.031198   0.003136  -0.000254   0.000010   0.000002  -0.000068
     6  N    0.211753  -0.043911  -0.058106   0.003289  -0.000142   0.003970
     7  C    5.073619   0.411540   0.342845  -0.048434  -0.008645  -0.064195
     8  H    0.411540   0.544725  -0.055024  -0.000116  -0.000123  -0.003531
     9  C    0.342845  -0.055024   5.167855   0.321512  -0.054150  -0.004927
    10  C   -0.048434  -0.000116   0.321512   5.125586   0.332249  -0.060875
    11  C   -0.008645  -0.000123  -0.054150   0.332249   5.125484   0.330194
    12  C   -0.064195  -0.003531  -0.004927  -0.060875   0.330194   5.146408
    13  C    0.301626  -0.037758  -0.056864  -0.000603  -0.046186   0.363087
    14  H   -0.043875  -0.000696   0.003713  -0.000387   0.003961  -0.041610
    15  N   -0.068963   0.004069  -0.009350   0.000928  -0.006249  -0.076203
    16  C    0.000375  -0.000286   0.000250  -0.000090  -0.000044   0.003593
    17  H    0.001600  -0.000068   0.000015   0.000001  -0.000000   0.000002
    18  H   -0.030764  -0.005062   0.001388  -0.000105   0.000008  -0.000160
    19  H   -0.035561   0.003945   0.390554  -0.034428  -0.002076   0.000507
    20  H   -0.042080  -0.001857   0.397267  -0.036525   0.004124  -0.000398
    21  H    0.004102  -0.000055  -0.036148   0.400241  -0.035772   0.004258
    22  H   -0.004688   0.003598  -0.045388   0.395535  -0.045346  -0.001346
    23  H    0.000524   0.000039  -0.002091  -0.040554   0.396572  -0.037363
    24  H   -0.000153  -0.000110   0.004410  -0.038410   0.400556  -0.037396
    25  H    0.005344  -0.000027  -0.000413   0.004132  -0.033712   0.394454
    26  H   -0.004315   0.001464   0.001104  -0.002455  -0.042772   0.393342
    27  H   -0.000404   0.000008  -0.000033   0.000001   0.000007  -0.000024
              13         14         15         16         17         18
     1  O   -0.000006   0.000000   0.000364  -0.001918   0.000156   0.000000
     2  N    0.000039  -0.000016   0.001384  -0.020178  -0.004417  -0.000031
     3  O    0.000000   0.000000  -0.000005   0.002046   0.012186   0.000007
     4  C   -0.007812   0.001245  -0.068769   0.305085  -0.025975   0.002068
     5  C   -0.001806   0.001570  -0.005293  -0.043737   0.376267  -0.026796
     6  N   -0.056738  -0.004261   0.002002   0.002833  -0.032850   0.333805
     7  C    0.301626  -0.043875  -0.068963   0.000375   0.001600  -0.030764
     8  H   -0.037758  -0.000696   0.004069  -0.000286  -0.000068  -0.005062
     9  C   -0.056864   0.003713  -0.009350   0.000250   0.000015   0.001388
    10  C   -0.000603  -0.000387   0.000928  -0.000090   0.000001  -0.000105
    11  C   -0.046186   0.003961  -0.006249  -0.000044  -0.000000   0.000008
    12  C    0.363087  -0.041610  -0.076203   0.003593   0.000002  -0.000160
    13  C    5.023516   0.413631   0.259945  -0.064190  -0.000117   0.004115
    14  H    0.413631   0.515620  -0.031699  -0.011366  -0.000009  -0.000041
    15  N    0.259945  -0.031699   6.970449   0.561229  -0.000088  -0.000134
    16  C   -0.064190  -0.011366   0.561229   4.740528   0.001333  -0.000168
    17  H   -0.000117  -0.000009  -0.000088   0.001333   0.385428  -0.002797
    18  H    0.004115  -0.000041  -0.000134  -0.000168  -0.002797   0.325311
    19  H   -0.005516   0.000047   0.005881   0.000839  -0.000010  -0.000127
    20  H    0.003994  -0.000056   0.000076  -0.000053  -0.000036   0.001481
    21  H   -0.000433   0.000009  -0.000032   0.000003  -0.000000   0.000001
    22  H    0.000361  -0.000040   0.000012   0.000000  -0.000000   0.000001
    23  H   -0.005879  -0.000007   0.006438   0.000040   0.000000   0.000000
    24  H    0.004134  -0.000063  -0.000024   0.000005   0.000000  -0.000000
    25  H   -0.034486  -0.002856   0.001839  -0.000080  -0.000000   0.000003
    26  H   -0.045075  -0.000974   0.004198  -0.000044   0.000000  -0.000001
    27  H    0.004750  -0.000112  -0.043514   0.407182  -0.000064   0.000000
              19         20         21         22         23         24
     1  O   -0.000000   0.000000  -0.000000  -0.000000   0.000000   0.000000
     2  N   -0.000009   0.000000  -0.000000   0.000000  -0.000000   0.000000
     3  O   -0.000000   0.000000  -0.000000  -0.000000   0.000000   0.000000
     4  C   -0.000783  -0.000021   0.000002  -0.000001   0.000024  -0.000000
     5  C    0.001543  -0.000097   0.000000  -0.000001  -0.000001  -0.000000
     6  N   -0.000933   0.000127  -0.000064  -0.000085  -0.000023   0.000005
     7  C   -0.035561  -0.042080   0.004102  -0.004688   0.000524  -0.000153
     8  H    0.003945  -0.001857  -0.000055   0.003598   0.000039  -0.000110
     9  C    0.390554   0.397267  -0.036148  -0.045388  -0.002091   0.004410
    10  C   -0.034428  -0.036525   0.400241   0.395535  -0.040554  -0.038410
    11  C   -0.002076   0.004124  -0.035772  -0.045346   0.396572   0.400556
    12  C    0.000507  -0.000398   0.004258  -0.001346  -0.037363  -0.037396
    13  C   -0.005516   0.003994  -0.000433   0.000361  -0.005879   0.004134
    14  H    0.000047  -0.000056   0.000009  -0.000040  -0.000007  -0.000063
    15  N    0.005881   0.000076  -0.000032   0.000012   0.006438  -0.000024
    16  C    0.000839  -0.000053   0.000003   0.000000   0.000040   0.000005
    17  H   -0.000010  -0.000036  -0.000000  -0.000000   0.000000   0.000000
    18  H   -0.000127   0.001481   0.000001   0.000001   0.000000  -0.000000
    19  H    0.504915  -0.023544  -0.002511   0.003780   0.001759  -0.000077
    20  H   -0.023544   0.543863  -0.002683  -0.002897  -0.000050  -0.000090
    21  H   -0.002511  -0.002683   0.525264  -0.024726  -0.002861  -0.002054
    22  H    0.003780  -0.002897  -0.024726   0.569547   0.004091  -0.003483
    23  H    0.001759  -0.000050  -0.002861   0.004091   0.513148  -0.024814
    24  H   -0.000077  -0.000090  -0.002054  -0.003483  -0.024814   0.539407
    25  H   -0.000028   0.000011  -0.000086  -0.000083  -0.002065  -0.002433
    26  H    0.000026  -0.000035  -0.000071   0.002455   0.003898  -0.002796
    27  H    0.000052   0.000000  -0.000000   0.000000  -0.000019  -0.000000
              25         26         27
     1  O    0.000000   0.000000   0.007436
     2  N   -0.000000  -0.000000  -0.000432
     3  O    0.000000   0.000000   0.000095
     4  C    0.000027   0.000004  -0.069559
     5  C   -0.000001  -0.000002   0.002133
     6  N   -0.000078  -0.000082  -0.000028
     7  C    0.005344  -0.004315  -0.000404
     8  H   -0.000027   0.001464   0.000008
     9  C   -0.000413   0.001104  -0.000033
    10  C    0.004132  -0.002455   0.000001
    11  C   -0.033712  -0.042772   0.000007
    12  C    0.394454   0.393342  -0.000024
    13  C   -0.034486  -0.045075   0.004750
    14  H   -0.002856  -0.000974  -0.000112
    15  N    0.001839   0.004198  -0.043514
    16  C   -0.000080  -0.000044   0.407182
    17  H   -0.000000   0.000000  -0.000064
    18  H    0.000003  -0.000001   0.000000
    19  H   -0.000028   0.000026   0.000052
    20  H    0.000011  -0.000035   0.000000
    21  H   -0.000086  -0.000071  -0.000000
    22  H   -0.000083   0.002455   0.000000
    23  H   -0.002065   0.003898  -0.000019
    24  H   -0.002433  -0.002796  -0.000000
    25  H    0.510131  -0.023317  -0.000020
    26  H   -0.023317   0.567277   0.000001
    27  H   -0.000020   0.000001   0.441261
 Mulliken charges:
               1
     1  O   -0.456703
     2  N    0.507164
     3  O   -0.484445
     4  C   -0.015030
     5  C    0.186009
     6  N   -0.765152
     7  C    0.022678
     8  H    0.176350
     9  C   -0.308689
    10  C   -0.320479
    11  C   -0.317922
    12  C   -0.311415
    13  C   -0.015727
    14  H    0.198270
    15  N   -0.508491
    16  C    0.116814
    17  H    0.289443
    18  H    0.397997
    19  H    0.191755
    20  H    0.159479
    21  H    0.173616
    22  H    0.148704
    23  H    0.189192
    24  H    0.163388
    25  H    0.183745
    26  H    0.148167
    27  H    0.251282
 Sum of Mulliken charges =  -0.00000
 Mulliken charges with hydrogens summed into heavy atoms:
               1
     1  O   -0.456703
     2  N    0.507164
     3  O   -0.484445
     4  C   -0.015030
     5  C    0.475452
     6  N   -0.367156
     7  C    0.199028
     9  C    0.042545
    10  C    0.001841
    11  C    0.034659
    12  C    0.020497
    13  C    0.182542
    15  N   -0.508491
    16  C    0.368097
 Electronic spatial extent (au):  <R**2>=           3051.6462
 Charge=              0.0000 electrons
 Dipole moment (field-independent basis, Debye):
    X=              5.0636    Y=              4.3663    Z=              2.3739  Tot=              7.0951
 Quadrupole moment (field-independent basis, Debye-Ang):
   XX=           -102.4899   YY=            -79.9054   ZZ=            -84.0704
   XY=             -0.0592   XZ=             -6.1324   YZ=              1.9413
 Traceless Quadrupole moment (field-independent basis, Debye-Ang):
   XX=            -13.6680   YY=              8.9165   ZZ=              4.7515
   XY=             -0.0592   XZ=             -6.1324   YZ=              1.9413
 Octapole moment (field-independent basis, Debye-Ang**2):
  XXX=             76.8872  YYY=             31.6094  ZZZ=              8.4373  XYY=             -5.7754
  XXY=              5.4201  XXZ=             32.8999  XZZ=             -0.5674  YZZ=             -1.5691
  YYZ=             12.5048  XYZ=             -0.1077
 Hexadecapole moment (field-independent basis, Debye-Ang**3):
 XXXX=          -3266.5946 YYYY=           -618.2534 ZZZZ=           -387.1806 XXXY=             10.1765
 XXXZ=           -217.5591 YYYX=             26.7529 YYYZ=             35.4256 ZZZX=           -108.4130
 ZZZY=             14.2806 XXYY=           -620.9008 XXZZ=           -562.7452 YYZZ=           -178.4479
 XXYZ=             11.7679 YYXZ=            -41.1465 ZZXY=             14.2817
 N-N= 9.197572265941D+02 E-N=-3.385607089631D+03  KE= 6.589002896048D+02
 Calling FoFJK, ICntrl=  10002127 FMM=F ISym2X=0 I1Cent= 0 IOpClX= 0 NMat=1 NMatS=1 NMatT=0.
 -------------------------------------------------------------------
 Center     Atomic                   Forces (Hartrees/Bohr)
 Number     Number              X              Y              Z
 -------------------------------------------------------------------
      1        8          -0.001389906   -0.018739840    0.001346025
      2        7           0.036558495    0.005702384    0.015804622
      3        8          -0.001738240    0.016991604   -0.000524803
      4        6          -0.004075669    0.006569603    0.017650478
      5        6          -0.000097674   -0.012671972   -0.010479079
      6        7           0.018316257   -0.000774028   -0.010582930
      7        6          -0.000844824    0.007839349    0.009236661
      8        1          -0.013221779   -0.002521508   -0.005868500
      9        6          -0.005524098    0.001323212   -0.002228377
     10        6           0.002655319   -0.001579636    0.000646906
     11        6          -0.001810116   -0.003903431   -0.001381279
     12        6           0.001010431   -0.009517580   -0.002459416
     13        6           0.018912254    0.001996754   -0.007006538
     14        1           0.000820201    0.002566565   -0.013069731
     15        7          -0.000115488   -0.011786101    0.039230559
     16        6          -0.020495136    0.014827602   -0.041184120
     17        1           0.005271364   -0.008865577    0.003158990
     18        1          -0.018258703   -0.003052395   -0.002853736
     19        1           0.003544910    0.005775011    0.006802217
     20        1          -0.002704186   -0.008053266    0.003254175
     21        1          -0.002992640    0.002358027    0.010097003
     22        1          -0.004917559   -0.004119638   -0.006641762
     23        1           0.005045564    0.005794595    0.008149798
     24        1          -0.009789347    0.002055031   -0.000885654
     25        1          -0.001574781    0.010557722   -0.002524139
     26        1          -0.005119984   -0.004676056   -0.003617184
     27        1           0.002535337    0.005903570   -0.004070187
 -------------------------------------------------------------------
 Cartesian Forces:  Max     0.041184120 RMS     0.010997340

 GradGradGradGradGradGradGradGradGradGradGradGradGradGradGradGradGradGrad
 Berny optimization.
 FormGI is forming the generalized inverse of G from B-inverse, IUseBI=4.
 Internal  Forces:  Max     0.037412317 RMS     0.007044092
 Search for a local minimum.
 Step number   1 out of a maximum of   20
 All quantities printed in internal units (Hartrees-Bohrs-Radians)
 Mixed Optimization -- RFO/linear search
 Second derivative matrix not updated -- first step.
 ITU=  0
     Eigenvalues ---    0.00233   0.00777   0.01069   0.01150   0.01285
     Eigenvalues ---    0.01463   0.01545   0.01823   0.02100   0.02116
     Eigenvalues ---    0.02709   0.03663   0.04519   0.04685   0.04841
     Eigenvalues ---    0.05094   0.05135   0.05315   0.05857   0.06234
     Eigenvalues ---    0.07007   0.07605   0.07695   0.07808   0.07978
     Eigenvalues ---    0.08045   0.08063   0.10427   0.10901   0.11868
     Eigenvalues ---    0.12426   0.13532   0.14803   0.15626   0.15996
     Eigenvalues ---    0.20037   0.21724   0.22951   0.24990   0.25000
     Eigenvalues ---    0.25000   0.25472   0.26518   0.26669   0.27969
     Eigenvalues ---    0.28109   0.28530   0.29256   0.31386   0.31877
     Eigenvalues ---    0.32009   0.32227   0.32300   0.32381   0.32385
     Eigenvalues ---    0.32415   0.32499   0.32524   0.32580   0.33201
     Eigenvalues ---    0.33394   0.33548   0.35466   0.43880   0.44357
     Eigenvalues ---    0.50606   0.66626   0.90299   0.912351000.00000
     Eigenvalues --- 1000.000001000.000001000.000001000.000001000.00000
     Eigenvalues --- 1000.000001000.000001000.000001000.000001000.00000
     Eigenvalues --- 1000.000001000.000001000.000001000.000001000.00000
     Eigenvalues --- 1000.000001000.000001000.000001000.000001000.00000
     Eigenvalues --- 1000.000001000.000001000.000001000.000001000.00000
     Eigenvalues --- 1000.000001000.000001000.000001000.000001000.00000
     Eigenvalues --- 1000.000001000.000001000.000001000.000001000.00000
     Eigenvalues --- 1000.000001000.000001000.000001000.000001000.00000
     Eigenvalues --- 1000.000001000.000001000.000001000.000001000.00000
     Eigenvalues --- 1000.000001000.000001000.000001000.000001000.00000
     Eigenvalues --- 1000.000001000.000001000.000001000.000001000.00000
     Eigenvalues --- 1000.000001000.000001000.000001000.000001000.00000
     Eigenvalues --- 1000.000001000.000001000.000001000.000001000.00000
     Eigenvalues --- 1000.000001000.000001000.000001000.000001000.00000
     Eigenvalues --- 1000.000001000.000001000.000001000.000001000.00000
     Eigenvalues --- 1000.000001000.000001000.000001000.000001000.00000
     Eigenvalues --- 1000.000001000.000001000.000001000.000001000.00000
     Eigenvalues --- 1000.000001000.000001000.000001000.000001000.00000
     Eigenvalues --- 1000.000001000.00000
 RFO step:  Lambda=-3.00355990D-02 EMin= 2.33451329D-03
 Linear search not attempted -- first point.
 Iteration  1 RMS(Cart)=  0.07253595 RMS(Int)=  0.00252759
 Iteration  2 RMS(Cart)=  0.00350874 RMS(Int)=  0.00083298
 Iteration  3 RMS(Cart)=  0.00000785 RMS(Int)=  0.00083297
 Iteration  4 RMS(Cart)=  0.00000001 RMS(Int)=  0.00083297
 Iteration  1 RMS(Cart)=  0.00012926 RMS(Int)=  0.00009885
 Iteration  2 RMS(Cart)=  0.00008822 RMS(Int)=  0.00010691
 Iteration  3 RMS(Cart)=  0.00006350 RMS(Int)=  0.00012089
 Iteration  4 RMS(Cart)=  0.00004805 RMS(Int)=  0.00013452
 Iteration  5 RMS(Cart)=  0.00003785 RMS(Int)=  0.00014662
 Iteration  6 RMS(Cart)=  0.00003069 RMS(Int)=  0.00015714
 Iteration  7 RMS(Cart)=  0.00002537 RMS(Int)=  0.00016629
 Iteration  8 RMS(Cart)=  0.00002124 RMS(Int)=  0.00017424
 Iteration  9 RMS(Cart)=  0.00001792 RMS(Int)=  0.00018115
 Iteration 10 RMS(Cart)=  0.00001519 RMS(Int)=  0.00018716
 Iteration 11 RMS(Cart)=  0.00001293 RMS(Int)=  0.00019239
 Iteration 12 RMS(Cart)=  0.00001103 RMS(Int)=  0.00019692
 Iteration 13 RMS(Cart)=  0.00000942 RMS(Int)=  0.00020085
 Iteration 14 RMS(Cart)=  0.00000806 RMS(Int)=  0.00020426
 Iteration 15 RMS(Cart)=  0.00000690 RMS(Int)=  0.00020720
 Iteration 16 RMS(Cart)=  0.00000591 RMS(Int)=  0.00020975
 Iteration 17 RMS(Cart)=  0.00000507 RMS(Int)=  0.00021195
 Iteration 18 RMS(Cart)=  0.00000434 RMS(Int)=  0.00021385
 Iteration 19 RMS(Cart)=  0.00000373 RMS(Int)=  0.00021549
 Iteration 20 RMS(Cart)=  0.00000320 RMS(Int)=  0.00021691
 Iteration 21 RMS(Cart)=  0.00000275 RMS(Int)=  0.00021813
 Iteration 22 RMS(Cart)=  0.00000236 RMS(Int)=  0.00021918
 Iteration 23 RMS(Cart)=  0.00000203 RMS(Int)=  0.00022009
 Iteration 24 RMS(Cart)=  0.00000174 RMS(Int)=  0.00022087
 Iteration 25 RMS(Cart)=  0.00000150 RMS(Int)=  0.00022154
 Iteration 26 RMS(Cart)=  0.00000129 RMS(Int)=  0.00022212
 Iteration 27 RMS(Cart)=  0.00000111 RMS(Int)=  0.00022262
 Iteration 28 RMS(Cart)=  0.00000095 RMS(Int)=  0.00022305
 Variable       Old X    -DE/DX   Delta X   Delta X   Delta X     New X
                                 (Linear)    (Quad)   (Total)
    R1        2.32369   0.01763   0.00000   0.01871   0.01871   2.34240
    R2        2.32795   0.01509   0.00000   0.01617   0.01617   2.34412
    R3        2.89472  -0.03741   0.00000  -0.11597  -0.11597   2.77875
    R4        2.64560  -0.03138   0.00000  -0.06661  -0.06650   2.57911
    R5        2.82439  -0.02473   0.00000  -0.07204  -0.07235   2.75204
    R6        2.58129  -0.01885   0.00000  -0.03451  -0.03401   2.54729
    R7        2.08366  -0.01043   0.00000  -0.02867  -0.02867   2.05499
    R8        2.81055  -0.01451   0.00000  -0.03606  -0.03581   2.77474
    R9        1.93299  -0.00745   0.00000  -0.01590  -0.01590   1.91709
   R10        2.11981  -0.01347   0.00000  -0.03916  -0.03916   2.08065
   R11        2.92698  -0.01331   0.00000  -0.04345  -0.04351   2.88347
   R12        2.89496  -0.00062   0.00000   0.00265   0.00276   2.89772
   R13        2.91065  -0.00393   0.00000  -0.01411  -0.01427   2.89638
   R14        2.09941  -0.00934   0.00000  -0.02631  -0.02631   2.07309
   R15        2.09896  -0.00866   0.00000  -0.02438  -0.02438   2.07458
   R16        2.90472  -0.00120   0.00000  -0.00683  -0.00654   2.89817
   R17        2.10145  -0.01053   0.00000  -0.02975  -0.02975   2.07170
   R18        2.10299  -0.00895   0.00000  -0.02536  -0.02536   2.07763
   R19        2.91830  -0.00948   0.00000  -0.03020  -0.03012   2.88818
   R20        2.10431  -0.01104   0.00000  -0.03135  -0.03135   2.07297
   R21        2.10091  -0.00999   0.00000  -0.02820  -0.02820   2.07271
   R22        2.93553  -0.01161   0.00000  -0.03666  -0.03648   2.89905
   R23        2.10153  -0.01083   0.00000  -0.03060  -0.03060   2.07092
   R24        2.09794  -0.00764   0.00000  -0.02147  -0.02147   2.07648
   R25        2.10827  -0.01259   0.00000  -0.03597  -0.03597   2.07230
   R26        2.76839  -0.00312   0.00000  -0.00556  -0.00611   2.76228
   R27        2.44624   0.00226   0.00000   0.00194   0.00156   2.44780
   R28        2.07845  -0.00480   0.00000  -0.01216  -0.01228   2.06616
    A1        2.15441   0.01123   0.00000   0.04022   0.04017   2.19457
    A2        2.05730  -0.00391   0.00000  -0.01387  -0.01392   2.04338
    A3        2.07103  -0.00726   0.00000  -0.02583  -0.02588   2.04515
    A4        2.01612  -0.00973   0.00000  -0.03502  -0.03438   1.98174
    A5        2.03387  -0.00345   0.00000  -0.01242  -0.01176   2.02211
    A6        2.23273   0.01319   0.00000   0.04820   0.04659   2.27932
    A7        2.18952   0.00444   0.00000   0.02270   0.02193   2.21145
    A8        2.06906  -0.00342   0.00000  -0.01765  -0.01741   2.05166
    A9        2.02427  -0.00099   0.00000  -0.00445  -0.00420   2.02007
   A10        2.20448  -0.00527   0.00000   0.00609   0.00569   2.21017
   A11        2.10401  -0.01293   0.00000  -0.07760  -0.07957   2.02445
   A12        1.87219   0.01855   0.00000   0.09790   0.09887   1.97106
   A13        1.84079  -0.00201   0.00000  -0.01128  -0.01031   1.83048
   A14        2.01917  -0.00221   0.00000  -0.02107  -0.02081   1.99836
   A15        1.95449   0.00311   0.00000  -0.00945  -0.01233   1.94216
   A16        1.84745   0.00390   0.00000   0.03204   0.03171   1.87916
   A17        1.84830   0.00167   0.00000   0.03421   0.03396   1.88226
   A18        1.93906  -0.00388   0.00000  -0.01539  -0.01454   1.92453
   A19        1.90938   0.00009   0.00000  -0.00778  -0.00807   1.90131
   A20        1.92168  -0.00041   0.00000  -0.01248  -0.01239   1.90929
   A21        1.92209  -0.00206   0.00000  -0.00586  -0.00583   1.91627
   A22        1.91706  -0.00092   0.00000   0.00275   0.00247   1.91953
   A23        1.90823   0.00376   0.00000   0.02876   0.02903   1.93727
   A24        1.88524  -0.00044   0.00000  -0.00497  -0.00522   1.88002
   A25        1.93882  -0.00067   0.00000   0.00535   0.00515   1.94397
   A26        1.91873  -0.00096   0.00000  -0.00731  -0.00726   1.91147
   A27        1.90583   0.00040   0.00000  -0.00263  -0.00269   1.90314
   A28        1.91621   0.00045   0.00000   0.00627   0.00630   1.92251
   A29        1.89941   0.00197   0.00000   0.01101   0.01110   1.91051
   A30        1.88387  -0.00117   0.00000  -0.01309  -0.01318   1.87069
   A31        1.94436   0.00206   0.00000   0.01047   0.01054   1.95491
   A32        1.90176  -0.00031   0.00000   0.00351   0.00365   1.90541
   A33        1.91817   0.00055   0.00000   0.00506   0.00489   1.92306
   A34        1.90496  -0.00131   0.00000  -0.01436  -0.01443   1.89053
   A35        1.91626  -0.00106   0.00000  -0.00078  -0.00087   1.91539
   A36        1.87697   0.00000   0.00000  -0.00456  -0.00460   1.87237
   A37        1.94850  -0.00524   0.00000  -0.02605  -0.02577   1.92273
   A38        1.90623   0.00268   0.00000   0.01292   0.01286   1.91909
   A39        1.90952   0.00248   0.00000   0.01873   0.01836   1.92788
   A40        1.90699   0.00135   0.00000  -0.00180  -0.00190   1.90509
   A41        1.91167  -0.00004   0.00000  -0.00125  -0.00105   1.91063
   A42        1.87962  -0.00109   0.00000  -0.00172  -0.00187   1.87776
   A43        1.84497   0.00710   0.00000   0.02201   0.02143   1.86641
   A44        1.93058  -0.00514   0.00000  -0.01691  -0.01719   1.91339
   A45        2.00451  -0.00129   0.00000   0.00523   0.00576   2.01027
   A46        1.88226   0.00197   0.00000   0.02548   0.02564   1.90790
   A47        1.89047  -0.00343   0.00000  -0.03535  -0.03482   1.85566
   A48        1.90618   0.00119   0.00000   0.00126   0.00100   1.90718
   A49        2.08015  -0.00148   0.00000   0.01747   0.01555   2.09570
   A50        2.25328  -0.00438   0.00000  -0.02366  -0.02739   2.22589
   A51        1.96689   0.00164   0.00000   0.00108   0.00270   1.96958
   A52        2.01788   0.00428   0.00000   0.02057   0.02233   2.04021
    D1       -2.96713   0.00071   0.00000  -0.02534  -0.02535  -2.99248
    D2        0.14414   0.00155   0.00000   0.00000   0.00000   0.14414
    D3        0.20557  -0.00143   0.00000  -0.04391  -0.04392   0.16165
    D4       -2.96635  -0.00059   0.00000  -0.01857  -0.01857  -2.98491
    D5       -3.09701   0.00049   0.00000  -0.01507  -0.01624  -3.11325
    D6        0.01598   0.00139   0.00000   0.01085   0.00926   0.02524
    D7        0.07898  -0.00005   0.00000  -0.04231  -0.04474   0.03424
    D8       -3.09121   0.00085   0.00000  -0.01639  -0.01924  -3.11045
    D9        0.20135  -0.00433   0.00000   0.00000   0.00001   0.20136
   D10        2.78381   0.00908   0.00000   0.13926   0.13760   2.92141
   D11       -0.02090   0.00247   0.00000   0.14176   0.14073   0.11983
   D12       -0.39248   0.00952   0.00000   0.16637   0.16629  -0.22620
   D13        3.08599   0.00292   0.00000   0.16888   0.16942  -3.02777
   D14        0.43529  -0.00331   0.00000  -0.06826  -0.06975   0.36554
   D15        3.04421   0.00259   0.00000   0.02172   0.01827   3.06248
   D16       -2.67835  -0.00415   0.00000  -0.09337  -0.09465  -2.77300
   D17       -0.06943   0.00175   0.00000  -0.00340  -0.00663  -0.07606
   D18       -3.02135   0.00024   0.00000   0.05436   0.05566  -2.96568
   D19        1.22693  -0.00202   0.00000   0.03390   0.03483   1.26176
   D20       -1.01901   0.00260   0.00000   0.08380   0.08390  -0.93511
   D21        0.59597   0.00199   0.00000   0.01500   0.01319   0.60916
   D22       -1.43894  -0.00027   0.00000  -0.00545  -0.00765  -1.44658
   D23        2.59831   0.00434   0.00000   0.04444   0.04142   2.63973
   D24        2.94647   0.00315   0.00000   0.04837   0.04918   2.99565
   D25       -1.22835   0.00181   0.00000   0.03898   0.03958  -1.18877
   D26        0.84873  -0.00027   0.00000   0.02145   0.02212   0.87085
   D27        0.91531   0.00422   0.00000   0.05236   0.05251   0.96782
   D28        3.02368   0.00288   0.00000   0.04297   0.04291   3.06658
   D29       -1.18242   0.00080   0.00000   0.02544   0.02545  -1.15698
   D30       -1.08323   0.00199   0.00000   0.00184   0.00173  -1.08150
   D31        1.02514   0.00065   0.00000  -0.00755  -0.00788   1.01726
   D32        3.10222  -0.00143   0.00000  -0.02508  -0.02533   3.07689
   D33       -2.89091  -0.00162   0.00000  -0.02585  -0.02533  -2.91624
   D34       -0.85792   0.00210   0.00000   0.00808   0.00823  -0.84968
   D35        1.30936  -0.00149   0.00000   0.00000   0.00001   1.30937
   D36       -0.89318  -0.00150   0.00000  -0.02434  -0.02447  -0.91765
   D37        1.13982   0.00222   0.00000   0.00959   0.00909   1.14891
   D38       -2.97609  -0.00137   0.00000   0.00152   0.00087  -2.97522
   D39        1.10483   0.00212   0.00000   0.02482   0.02493   1.12975
   D40        3.13782   0.00585   0.00000   0.05875   0.05849  -3.08688
   D41       -0.97809   0.00226   0.00000   0.05068   0.05026  -0.92782
   D42        0.95666   0.00131   0.00000   0.00000   0.00000   0.95666
   D43        3.08118   0.00077   0.00000   0.00650   0.00643   3.08761
   D44       -1.13831  -0.00098   0.00000  -0.01530  -0.01530  -1.15361
   D45       -1.15452   0.00233   0.00000   0.01860   0.01875  -1.13578
   D46        0.97000   0.00180   0.00000   0.02510   0.02517   0.99517
   D47        3.03369   0.00005   0.00000   0.00329   0.00345   3.03714
   D48        3.06285   0.00116   0.00000   0.00578   0.00580   3.06865
   D49       -1.09581   0.00063   0.00000   0.01228   0.01223  -1.08358
   D50        0.96788  -0.00113   0.00000  -0.00953  -0.00950   0.95838
   D51       -0.92193  -0.00111   0.00000   0.00000   0.00000  -0.92193
   D52        1.18077  -0.00166   0.00000  -0.00898  -0.00893   1.17183
   D53       -3.04985  -0.00153   0.00000  -0.00951  -0.00951  -3.05935
   D54       -3.04793   0.00024   0.00000   0.00143   0.00144  -3.04649
   D55       -0.94522  -0.00031   0.00000  -0.00755  -0.00749  -0.95272
   D56        1.10735  -0.00018   0.00000  -0.00808  -0.00807   1.09928
   D57        1.17685   0.00024   0.00000   0.00716   0.00717   1.18402
   D58       -3.00363  -0.00031   0.00000  -0.00182  -0.00177  -3.00540
   D59       -0.95106  -0.00018   0.00000  -0.00235  -0.00234  -0.95340
   D60        0.98786  -0.00180   0.00000  -0.00963  -0.00948   0.97837
   D61        3.09870  -0.00168   0.00000  -0.01999  -0.01993   3.07877
   D62       -1.13109  -0.00000   0.00000  -0.00373  -0.00351  -1.13459
   D63       -1.11296  -0.00184   0.00000  -0.01118  -0.01110  -1.12406
   D64        0.99788  -0.00172   0.00000  -0.02154  -0.02155   0.97633
   D65        3.05128  -0.00005   0.00000  -0.00528  -0.00512   3.04616
   D66        3.11687  -0.00046   0.00000   0.00324   0.00328   3.12015
   D67       -1.05547  -0.00034   0.00000  -0.00712  -0.00717  -1.06264
   D68        0.99793   0.00134   0.00000   0.00914   0.00926   1.00718
   D69       -1.05216  -0.00015   0.00000  -0.00779  -0.00751  -1.05967
   D70       -3.11766   0.00118   0.00000  -0.01213  -0.01215  -3.12980
   D71        1.10454   0.00055   0.00000  -0.00841  -0.00794   1.09660
   D72        3.12063  -0.00104   0.00000  -0.00599  -0.00593   3.11470
   D73        1.05513   0.00029   0.00000  -0.01033  -0.01056   1.04457
   D74       -1.00586  -0.00035   0.00000  -0.00661  -0.00635  -1.01221
   D75        1.06554  -0.00049   0.00000  -0.00214  -0.00196   1.06358
   D76       -0.99996   0.00084   0.00000  -0.00648  -0.00659  -1.00655
   D77       -3.06095   0.00020   0.00000  -0.00276  -0.00238  -3.06333
   D78       -1.17217   0.01137   0.00000   0.00000   0.00001  -1.17216
   D79        3.05363   0.00560   0.00000  -0.00635  -0.00621   3.04742
   D80        1.00795   0.00451   0.00000  -0.01760  -0.01778   0.99017
   D81        0.73919  -0.01491   0.00000  -0.12454  -0.12252   0.61667
   D82       -2.74740  -0.00862   0.00000  -0.13049  -0.12935  -2.87675
         Item               Value     Threshold  Converged?
 Maximum Force            0.037412     0.000450     NO 
 RMS     Force            0.006927     0.000300     NO 
 Maximum Displacement     0.443140     0.001800     NO 
 RMS     Displacement     0.073283     0.001200     NO 
 Predicted change in Energy=-1.879187D-02
 GradGradGradGradGradGradGradGradGradGradGradGradGradGradGradGradGradGrad

                          Input orientation:                          
 ---------------------------------------------------------------------
 Center     Atomic      Atomic             Coordinates (Angstroms)
 Number     Number       Type             X           Y           Z
 ---------------------------------------------------------------------
      1          8           0       -3.467241   -1.270789   -0.692192
      2          7           0       -3.023046   -0.125555   -0.526067
      3          8           0       -3.641496    0.929018   -0.736136
      4          6           0       -1.635443   -0.007790   -0.053924
      5          6           0       -1.279568    1.266710    0.280289
      6          7           0       -0.070907    1.678827    0.711928
      7          6           0        1.210197    0.987216    0.521058
      8          1           0        1.922049    1.528270    1.163558
      9          6           0        1.747437    1.033046   -0.906369
     10          6           0        3.170681    0.464423   -0.920662
     11          6           0        3.217136   -0.941726   -0.310200
     12          6           0        2.580175   -0.984570    1.078439
     13          6           0        1.138990   -0.462534    1.015515
     14          1           0        0.699805   -0.488007    2.020020
     15          7           0        0.406972   -1.381123    0.145450
     16          6           0       -0.871923   -1.247153   -0.010559
     17          1           0       -2.038461    2.040511    0.191570
     18          1           0        0.035857    2.678615    0.846830
     19          1           0        1.098654    0.436003   -1.559133
     20          1           0        1.733060    2.066670   -1.275996
     21          1           0        3.545688    0.441616   -1.950570
     22          1           0        3.830080    1.133673   -0.349652
     23          1           0        2.671265   -1.635414   -0.961474
     24          1           0        4.253766   -1.295581   -0.253431
     25          1           0        2.573730   -2.013565    1.455390
     26          1           0        3.159811   -0.375451    1.785838
     27          1           0       -1.407266   -2.091331   -0.453530
 ---------------------------------------------------------------------
                    Distance matrix (angstroms):
                    1          2          3          4          5
     1  O    0.000000
     2  N    1.239543   0.000000
     3  O    2.207135   1.240457   0.000000
     4  C    2.314743   1.470451   2.316736   0.000000
     5  C    3.488629   2.372409   2.593426   1.364806   0.000000
     6  N    4.712417   3.674717   3.925329   2.424661   1.347967
     7  C    5.333759   4.500564   5.012269   3.068927   2.516946
     8  H    6.350038   5.481234   5.909396   4.061711   3.331505
     9  C    5.704944   4.923869   5.392624   3.640588   3.259680
    10  C    6.864777   6.234262   6.830494   4.906429   4.678746
    11  C    6.703365   6.297032   7.121934   4.948277   5.044424
    12  C    6.307797   5.891386   6.757491   4.473006   4.539043
    13  C    4.978645   4.451131   5.278043   3.007985   3.062722
    14  H    5.033201   4.524770   5.333971   3.159943   3.166009
    15  N    3.965267   3.713813   4.743841   2.469262   3.142231
    16  C    2.683442   2.480133   3.596208   1.456319   2.563254
    17  H    3.713106   2.485207   2.160041   2.101958   1.087455
    18  H    5.498916   4.370938   4.369187   3.289586   2.011166
    19  H    4.950972   4.286138   4.836259   3.152443   3.119212
    20  H    6.206657   5.290443   5.520104   4.140490   3.483947
    21  H    7.327826   6.745306   7.305342   5.535644   5.379648
    22  H    7.690882   6.970087   7.484364   5.591273   5.150051
    23  H    6.155220   5.907151   6.817480   4.692606   5.057013
    24  H    7.733503   7.375315   8.216872   6.031666   6.121108
    25  H    6.454236   6.230140   7.217382   4.900847   5.195091
    26  H    7.131625   6.605684   7.370194   5.149210   4.967037
    27  H    2.230190   2.545640   3.767513   2.133751   3.439656
                    6          7          8          9         10
     6  N    0.000000
     7  C    1.468327   0.000000
     8  H    2.049027   1.101035   0.000000
     9  C    2.518391   1.525868   2.135493   0.000000
    10  C    3.827273   2.489050   2.652325   1.532697   0.000000
    11  C    4.327040   2.905102   3.154377   2.532816   1.533648
    12  C    3.775745   2.464843   2.598988   2.950201   2.538638
    13  C    2.478194   1.533406   2.144388   2.510101   2.955639
    14  H    2.645803   2.164180   2.508542   3.460475   3.957268
    15  N    3.148422   2.528889   3.434613   2.954890   3.490089
    16  C    3.118489   3.100039   4.109477   3.586478   4.483349
    17  H    2.067089   3.431001   4.110084   4.068596   5.554842
    18  H    1.014481   2.084713   2.231889   2.951458   4.225375
    19  H    2.840811   2.154872   3.046978   1.097033   2.168351
    20  H    2.712298   2.160557   2.505396   1.097820   2.181790
    21  H    4.658256   3.444001   3.676250   2.161910   1.096294
    22  H    4.079442   2.764665   2.467001   2.158116   1.099435
    23  H    4.615623   3.348255   3.884068   2.824389   2.158794
    24  H    5.336836   3.882564   3.926690   3.482889   2.171608
    25  H    4.602239   3.425914   3.613095   3.942398   3.484594
    26  H    3.976290   2.693979   2.354452   3.350618   2.833840
    27  H    4.166322   4.156728   5.176951   4.463064   5.263809
                   11         12         13         14         15
    11  C    0.000000
    12  C    1.528357   0.000000
    13  C    2.511143   1.534110   0.000000
    14  H    3.460166   2.160773   1.096614   0.000000
    15  N    2.880575   2.398027   1.461735   2.097003   0.000000
    16  C    4.111384   3.629304   2.390026   2.677664   1.295322
    17  H    6.063565   5.591909   4.127992   4.151474   4.205930
    18  H    4.956422   4.466107   3.333493   3.441613   4.136560
    19  H    2.818855   3.342113   2.727235   3.717959   2.585725
    20  H    3.490800   3.946014   3.464219   4.296244   3.958066
    21  H    2.170805   3.484410   3.925219   4.972810   4.191326
    22  H    2.164379   2.844057   3.413726   4.247801   4.276329
    23  H    1.096967   2.143162   2.762608   3.753999   2.533174
    24  H    1.096830   2.161368   3.464970   4.295509   3.868365
    25  H    2.163358   1.095886   2.158163   2.481478   2.609744
    26  H    2.171941   1.098825   2.164416   2.473690   3.358626
    27  H    4.767309   4.412656   3.360728   3.623374   2.038291
                   16         17         18         19         20
    16  C    0.000000
    17  H    3.494339   0.000000
    18  H    4.119567   2.267011   0.000000
    19  H    3.018985   3.934577   3.456516   0.000000
    20  H    4.400987   4.047074   2.785922   1.772487   0.000000
    21  H    5.111836   6.190957   5.014830   2.478151   2.526157
    22  H    5.281302   5.962806   4.267850   3.067618   2.475094
    23  H    3.689061   6.084690   5.369002   2.668534   3.832045
    24  H    5.131668   7.135801   5.898776   3.828573   4.324849
    25  H    3.822161   6.269376   5.369143   4.154947   4.981517
    26  H    4.499087   5.949840   4.468573   4.011939   4.168260
    27  H    1.093367   4.229265   5.150333   3.726850   5.275137
                   21         22         23         24         25
    21  H    0.000000
    22  H    1.767133   0.000000
    23  H    2.461093   3.063498   0.000000
    24  H    2.529724   2.467801   1.766669   0.000000
    25  H    4.309661   3.839492   2.448212   2.501617   0.000000
    26  H    3.844118   2.699450   3.061683   2.490380   1.770905
    27  H    5.760964   6.151523   4.135249   5.720187   4.415693
                   26         27
    26  H    0.000000
    27  H    5.368165   0.000000
 Symmetry turned off by external request.
 Stoichiometry    C9H13N3O2
 Framework group  C1[X(C9H13N3O2)]
 Deg. of freedom    75
 Full point group                 C1      NOp   1
 Rotational constants (GHZ):           1.5757603           0.4308866           0.3859936
 Standard basis: 6-31G(d) (6D, 7F)
   236 basis functions,   444 primitive gaussians,   236 cartesian basis functions
    52 alpha electrons       52 beta electrons
       nuclear repulsion energy       933.2193414330 Hartrees.
 NAtoms=   27 NActive=   27 NUniq=   27 SFac= 1.00D+00 NAtFMM=   60 NAOKFM=F Big=F
 Integral buffers will be    131072 words long.
 Raffenetti 1 integral format.
 Two-electron integral symmetry is turned off.
 One-electron integrals computed using PRISM.
 NBasis=   236 RedAO= T EigKep=  1.04D-03  NBF=   236
 NBsUse=   236 1.00D-06 EigRej= -1.00D+00 NBFU=   236
 Initial guess from the checkpoint file:  "/home/alexey/tmp/Gau-1613683.chk"
 B after Tr=     0.047258    0.003485    0.027462
         Rot=    0.999988   -0.000597   -0.004873    0.000008 Ang=  -0.56 deg.
 ExpMin= 1.61D-01 ExpMax= 5.48D+03 ExpMxC= 8.25D+02 IAcc=3 IRadAn=         5 AccDes= 0.00D+00
 Harris functional with IExCor=  205 and IRadAn=       5 diagonalized for initial guess.
 HarFok:  IExCor=  205 AccDes= 0.00D+00 IRadAn=         5 IDoV= 1 UseB2=F ITyADJ=14
 ICtDFT=  3500011 ScaDFX=  1.000000  1.000000  1.000000  1.000000
 FoFCou: FMM=F IPFlag=           0 FMFlag=      100000 FMFlg1=           0
         NFxFlg=           0 DoJE=T BraDBF=F KetDBF=T FulRan=T
         wScrn=  0.000000 ICntrl=       500 IOpCl=  0 I1Cent=   200000004 NGrid=           0
         NMat0=    1 NMatS0=      1 NMatT0=    0 NMatD0=    1 NMtDS0=    0 NMtDT0=    0
 Symmetry not used in FoFCou.
 Keep R1 ints in memory in canonical form, NReq=397720213.
 Requested convergence on RMS density matrix=1.00D-08 within 128 cycles.
 Requested convergence on MAX density matrix=1.00D-06.
 Requested convergence on             energy=1.00D-06.
 No special actions if energy rises.
 SCF Done:  E(RHF) =  -661.287231586     A.U. after   15 cycles
            NFock= 15  Conv=0.78D-08     -V/T= 2.0025
 ExpMin= 1.61D-01 ExpMax= 5.48D+03 ExpMxC= 8.25D+02 IAcc=3 IRadAn=         5 AccDes= 0.00D+00
 HarFok:  IExCor=  205 AccDes= 0.00D+00 IRadAn=         5 IDoV=-2 UseB2=F ITyADJ=14
 ICtDFT= 12500011 ScaDFX=  1.000000  1.000000  1.000000  1.000000
 Range of M.O.s used for correlation:    15   236
 NBasis=   236 NAE=    52 NBE=    52 NFC=    14 NFV=     0
 NROrb=    222 NOA=    38 NOB=    38 NVA=   184 NVB=   184
 Fully direct method using O(ONN) memory.
 JobTyp=1 Pass  1:  I=  15 to  52 NPSUse=  4 ParTrn=T ParDer=T DoDerP=T.
 Spin components of T(2) and E(2):
     alpha-alpha T2 =       0.9167971004D-01 E2=     -0.2728099258D+00
[...]
    27  H    4.657197   4.406188   3.354463   3.704625   2.013340
                   16         17         18         19         20
    16  C    0.000000
    17  H    3.472465   0.000000
    18  H    4.107899   2.239894   0.000000
    19  H    2.986780   4.208117   3.512386   0.000000
    20  H    4.376685   4.353784   2.878190   1.768255   0.000000
    21  H    5.091629   6.439876   5.084601   2.498867   2.520564
    22  H    5.250171   6.074548   4.311164   3.070045   2.460889
    23  H    3.688300   6.210455   5.424215   2.705344   3.843289
    24  H    5.131228   7.199260   5.937935   3.850040   4.316707
    25  H    3.825856   6.148500   5.373640   4.172601   4.984249
    26  H    4.502264   5.842137   4.485775   4.034689   4.179054
    27  H    1.092810   4.194774   5.057613   3.456044   5.039152
                   21         22         23         24         25
    21  H    0.000000
    22  H    1.758915   0.000000
    23  H    2.469694   3.062246   0.000000
    24  H    2.517473   2.459581   1.764402   0.000000
    25  H    4.311854   3.837898   2.445184   2.519351   0.000000
    26  H    3.844874   2.701360   3.060637   2.491824   1.768062
    27  H    5.532486   5.978290   4.009244   5.632436   4.471358
                   26         27
    26  H    0.000000
    27  H    5.373680   0.000000
 Symmetry turned off by external request.
 Stoichiometry    C9H13N3O2
 Framework group  C1[X(C9H13N3O2)]
 Deg. of freedom    75
 Full point group                 C1      NOp   1
 Rotational constants (GHZ):           1.6594435           0.4210197           0.3739514

 **********************************************************************

            Population analysis using the SCF Density.

 **********************************************************************

 Alpha  occ. eigenvalues --  -20.59208 -20.58863 -15.84657 -15.64112 -15.56286
 Alpha  occ. eigenvalues --  -11.34961 -11.29621 -11.29606 -11.28702 -11.27170
 Alpha  occ. eigenvalues --  -11.23772 -11.23231 -11.22716 -11.22113  -1.57073
 Alpha  occ. eigenvalues --   -1.36676  -1.30991  -1.23044  -1.14708  -1.09842
 Alpha  occ. eigenvalues --   -1.02821  -1.01345  -0.94522  -0.89696  -0.85572
 Alpha  occ. eigenvalues --   -0.82493  -0.78626  -0.77416  -0.75185  -0.71991
 Alpha  occ. eigenvalues --   -0.69802  -0.69291  -0.67813  -0.64865  -0.63754
 Alpha  occ. eigenvalues --   -0.62354  -0.60238  -0.57742  -0.57093  -0.55133
 Alpha  occ. eigenvalues --   -0.54457  -0.50806  -0.50164  -0.48624  -0.48134
 Alpha  occ. eigenvalues --   -0.47367  -0.46204  -0.45969  -0.43628  -0.41602
 Alpha  occ. eigenvalues --   -0.39847  -0.33863
 Alpha virt. eigenvalues --    0.07479   0.11566   0.17272   0.21859   0.23992
 Alpha virt. eigenvalues --    0.25493   0.27107   0.28886   0.28959   0.29619
 Alpha virt. eigenvalues --    0.30427   0.31964   0.32181   0.32790   0.33923
 Alpha virt. eigenvalues --    0.34434   0.35715   0.37331   0.38533   0.40360
 Alpha virt. eigenvalues --    0.41257   0.42115   0.44784   0.46046   0.46578
 Alpha virt. eigenvalues --    0.47267   0.49117   0.54008   0.57378   0.59846
 Alpha virt. eigenvalues --    0.63839   0.69444   0.69802   0.72917   0.74093
 Alpha virt. eigenvalues --    0.74985   0.75685   0.76557   0.78926   0.79290
 Alpha virt. eigenvalues --    0.81270   0.84463   0.85519   0.86056   0.88559
 Alpha virt. eigenvalues --    0.89050   0.91287   0.91790   0.92830   0.94730
 Alpha virt. eigenvalues --    0.95453   0.97615   0.99677   1.01592   1.02227
 Alpha virt. eigenvalues --    1.03342   1.05904   1.07216   1.07707   1.08993
 Alpha virt. eigenvalues --    1.09819   1.10890   1.12007   1.12480   1.13925
 Alpha virt. eigenvalues --    1.14697   1.15117   1.15826   1.17133   1.18480
 Alpha virt. eigenvalues --    1.18674   1.20296   1.23018   1.23660   1.24147
 Alpha virt. eigenvalues --    1.24467   1.25820   1.27501   1.28173   1.29506
 Alpha virt. eigenvalues --    1.30521   1.33076   1.35607   1.37406   1.40964
 Alpha virt. eigenvalues --    1.41633   1.46750   1.48532   1.52254   1.55105
 Alpha virt. eigenvalues --    1.57063   1.58662   1.59159   1.62863   1.64394
 Alpha virt. eigenvalues --    1.67290   1.67839   1.72675   1.74791   1.79573
 Alpha virt. eigenvalues --    1.81224   1.84605   1.88795   1.89841   1.93138
 Alpha virt. eigenvalues --    1.96031   1.96423   1.99841   2.01042   2.03331
 Alpha virt. eigenvalues --    2.04006   2.06975   2.08254   2.09426   2.12614
 Alpha virt. eigenvalues --    2.12891   2.15175   2.19383   2.19938   2.22525
 Alpha virt. eigenvalues --    2.23040   2.24504   2.25132   2.28053   2.29204
 Alpha virt. eigenvalues --    2.30898   2.33523   2.34479   2.36167   2.37462
 Alpha virt. eigenvalues --    2.40323   2.42671   2.44585   2.45337   2.47606
 Alpha virt. eigenvalues --    2.50806   2.52864   2.53299   2.56331   2.60268
 Alpha virt. eigenvalues --    2.62511   2.65654   2.67109   2.68640   2.70363
 Alpha virt. eigenvalues --    2.71619   2.72213   2.76508   2.78006   2.83813
 Alpha virt. eigenvalues --    2.88534   2.89407   2.92690   2.93411   2.95745
 Alpha virt. eigenvalues --    2.99185   3.01180   3.04461   3.06160   3.07942
 Alpha virt. eigenvalues --    3.09453   3.15786   3.21057   3.24794   3.27525
 Alpha virt. eigenvalues --    3.33448   3.36961   3.38461   3.52384   3.66280
 Alpha virt. eigenvalues --    4.13386   4.27751   4.35086   4.39627   4.46411
 Alpha virt. eigenvalues --    4.55940   4.61779   4.62467   4.73370   4.79775
 Alpha virt. eigenvalues --    4.99672   5.00816   5.06366   5.10183
          Condensed to atoms (all electrons):
               1          2          3          4          5          6
     1  O    8.315789   0.307753  -0.082650  -0.087173   0.004566  -0.000014
     2  N    0.307753   5.709898   0.304465   0.269704  -0.056673   0.000863
     3  O   -0.082650   0.304465   8.353569  -0.095074   0.004383   0.000786
     4  C   -0.087173   0.269704  -0.095074   5.233713   0.567507  -0.049701
     5  C    0.004566  -0.056673   0.004383   0.567507   4.708566   0.319613
     6  N   -0.000014   0.000863   0.000786  -0.049701   0.319613   7.190474
     7  C    0.000004  -0.000149   0.000002   0.005685  -0.030671   0.172850
     8  H   -0.000000   0.000002  -0.000000  -0.000243   0.003236  -0.049588
     9  C   -0.000000  -0.000007  -0.000000   0.000634   0.000682  -0.064088
    10  C   -0.000000   0.000000   0.000000  -0.000034  -0.000054   0.003811
    11  C   -0.000000  -0.000000  -0.000000  -0.000028   0.000023  -0.000180
    12  C    0.000000   0.000002  -0.000000  -0.000180  -0.000187   0.003790
    13  C   -0.000023  -0.000049  -0.000003  -0.011467  -0.000283  -0.048216
    14  H   -0.000002  -0.000068   0.000001   0.002286   0.004719  -0.006022
    15  N    0.000506   0.002382  -0.000015  -0.060714  -0.007573   0.001587
    16  C    0.003358  -0.028048   0.002554   0.325307  -0.052668  -0.000276
    17  H    0.000229  -0.006956   0.017545  -0.022756   0.373696  -0.033351
    18  H    0.000001  -0.000051   0.000012   0.001459  -0.031226   0.339088
    19  H    0.000001  -0.000005   0.000000  -0.001232   0.001453  -0.000664
    20  H    0.000000  -0.000000   0.000000  -0.000085   0.000123  -0.000125
    21  H   -0.000000  -0.000000  -0.000000   0.000001   0.000001  -0.000080
    22  H   -0.000000   0.000000  -0.000000  -0.000000  -0.000003  -0.000114
    23  H    0.000000  -0.000000   0.000000   0.000041   0.000001  -0.000030
    24  H    0.000000   0.000000   0.000000   0.000000  -0.000000   0.000006
    25  H    0.000000  -0.000000   0.000000   0.000027  -0.000000  -0.000088
    26  H    0.000000  -0.000000   0.000000   0.000003   0.000001  -0.000064
    27  H    0.003659  -0.000912  -0.000020  -0.068351   0.002385   0.000042
               7          8          9         10         11         12
     1  O    0.000004  -0.000000  -0.000000  -0.000000  -0.000000   0.000000
     2  N   -0.000149   0.000002  -0.000007   0.000000  -0.000000   0.000002
     3  O    0.000002  -0.000000  -0.000000   0.000000  -0.000000  -0.000000
     4  C    0.005685  -0.000243   0.000634  -0.000034  -0.000028  -0.000180
     5  C   -0.030671   0.003236   0.000682  -0.000054   0.000023  -0.000187
     6  N    0.172850  -0.049588  -0.064088   0.003811  -0.000180   0.003790
     7  C    5.020872   0.418529   0.351894  -0.054400  -0.009063  -0.061623
     8  H    0.418529   0.535549  -0.054256   0.000566  -0.000291  -0.002171
     9  C    0.351894  -0.054256   5.158157   0.325524  -0.050637  -0.005197
    10  C   -0.054400   0.000566   0.325524   5.117725   0.337186  -0.061310
    11  C   -0.009063  -0.000291  -0.050637   0.337186   5.120322   0.335565
    12  C   -0.061623  -0.002171  -0.005197  -0.061310   0.335565   5.120840
    13  C    0.334054  -0.037565  -0.061020  -0.000115  -0.050138   0.371826
    14  H   -0.046068  -0.000918   0.004414  -0.000408   0.004221  -0.036737
    15  N   -0.058821   0.003863  -0.014373   0.001497  -0.013240  -0.082191
    16  C   -0.001774  -0.000023  -0.000816  -0.000071   0.000051   0.002246
    17  H    0.001593  -0.000053  -0.000055   0.000001   0.000000   0.000000
    18  H   -0.021490  -0.004640   0.001405  -0.000082   0.000004  -0.000110
    19  H   -0.036454   0.004280   0.391024  -0.032328  -0.002168   0.000715
    20  H   -0.042765  -0.002107   0.399468  -0.035140   0.003937  -0.000426
    21  H    0.004586  -0.000074  -0.036400   0.402416  -0.034940   0.004375
    22  H   -0.004824   0.003554  -0.047071   0.397857  -0.045374  -0.001033
    23  H    0.000597   0.000035  -0.002011  -0.038965   0.399205  -0.037832
    24  H   -0.000134  -0.000103   0.004404  -0.038429   0.402413  -0.038670
    25  H    0.005130  -0.000024  -0.000421   0.004198  -0.033405   0.398205
    26  H   -0.003694   0.001667   0.000938  -0.002221  -0.041599   0.396773
    27  H   -0.000524   0.000009  -0.000026   0.000006   0.000020  -0.000050
              13         14         15         16         17         18
     1  O   -0.000023  -0.000002   0.000506   0.003358   0.000229   0.000001
     2  N   -0.000049  -0.000068   0.002382  -0.028048  -0.006956  -0.000051
     3  O   -0.000003   0.000001  -0.000015   0.002554   0.017545   0.000012
     4  C   -0.011467   0.002286  -0.060714   0.325307  -0.022756   0.001459
     5  C   -0.000283   0.004719  -0.007573  -0.052668   0.373696  -0.031226
     6  N   -0.048216  -0.006022   0.001587  -0.000276  -0.033351   0.339088
     7  C    0.334054  -0.046068  -0.058821  -0.001774   0.001593  -0.021490
     8  H   -0.037565  -0.000918   0.003863  -0.000023  -0.000053  -0.004640
     9  C   -0.061020   0.004414  -0.014373  -0.000816  -0.000055   0.001405
    10  C   -0.000115  -0.000408   0.001497  -0.000071   0.000001  -0.000082
    11  C   -0.050138   0.004221  -0.013240   0.000051   0.000000   0.000004
    12  C    0.371826  -0.036737  -0.082191   0.002246   0.000000  -0.000110
    13  C    5.045820   0.403671   0.238786  -0.067331  -0.000040   0.002966
    14  H    0.403671   0.524234  -0.035750  -0.004162   0.000058  -0.000096
    15  N    0.238786  -0.035750   6.971982   0.584348  -0.000063  -0.000135
    16  C   -0.067331  -0.004162   0.584348   4.689125   0.001824  -0.000200
    17  H   -0.000040   0.000058  -0.000063   0.001824   0.374945  -0.002790
    18  H    0.002966  -0.000096  -0.000135  -0.000200  -0.002790   0.309845
    19  H   -0.007787   0.000086   0.007253   0.002498   0.000015  -0.000148
    20  H    0.004386  -0.000067   0.000134  -0.000046  -0.000002   0.000826
    21  H   -0.000446   0.000010  -0.000044   0.000005  -0.000000   0.000001
    22  H    0.000031  -0.000054   0.000022  -0.000001   0.000000   0.000001
    23  H   -0.007548   0.000000   0.008504   0.000149   0.000000   0.000000
    24  H    0.004687  -0.000058   0.000131   0.000006   0.000000  -0.000000
    25  H   -0.035559  -0.002825   0.000517  -0.000052  -0.000000   0.000002
    26  H   -0.047488  -0.001111   0.004893  -0.000039   0.000000  -0.000000
    27  H    0.005714  -0.000171  -0.045456   0.410239  -0.000088   0.000001
              19         20         21         22         23         24
     1  O    0.000001   0.000000  -0.000000  -0.000000   0.000000   0.000000
     2  N   -0.000005  -0.000000  -0.000000   0.000000  -0.000000   0.000000
     3  O    0.000000   0.000000  -0.000000  -0.000000   0.000000   0.000000
     4  C   -0.001232  -0.000085   0.000001  -0.000000   0.000041   0.000000
     5  C    0.001453   0.000123   0.000001  -0.000003   0.000001  -0.000000
     6  N   -0.000664  -0.000125  -0.000080  -0.000114  -0.000030   0.000006
     7  C   -0.036454  -0.042765   0.004586  -0.004824   0.000597  -0.000134
     8  H    0.004280  -0.002107  -0.000074   0.003554   0.000035  -0.000103
     9  C    0.391024   0.399468  -0.036400  -0.047071  -0.002011   0.004404
    10  C   -0.032328  -0.035140   0.402416   0.397857  -0.038965  -0.038429
    11  C   -0.002168   0.003937  -0.034940  -0.045374   0.399205   0.402413
    12  C    0.000715  -0.000426   0.004375  -0.001033  -0.037832  -0.038670
    13  C   -0.007787   0.004386  -0.000446   0.000031  -0.007548   0.004687
    14  H    0.000086  -0.000067   0.000010  -0.000054   0.000000  -0.000058
    15  N    0.007253   0.000134  -0.000044   0.000022   0.008504   0.000131
    16  C    0.002498  -0.000046   0.000005  -0.000001   0.000149   0.000006
    17  H    0.000015  -0.000002  -0.000000   0.000000   0.000000   0.000000
    18  H   -0.000148   0.000826   0.000001   0.000001   0.000000  -0.000000
    19  H    0.505422  -0.024872  -0.002778   0.003972   0.001521  -0.000068
    20  H   -0.024872   0.541076  -0.002723  -0.002999  -0.000045  -0.000083
    21  H   -0.002778  -0.002723   0.524117  -0.027410  -0.002901  -0.002243
    22  H    0.003972  -0.002999  -0.027410   0.571218   0.004137  -0.003657
    23  H    0.001521  -0.000045  -0.002901   0.004137   0.498880  -0.025455
    24  H   -0.000068  -0.000083  -0.002243  -0.003657  -0.025455   0.537887
    25  H   -0.000028   0.000013  -0.000087  -0.000081  -0.002292  -0.002299
    26  H    0.000019  -0.000030  -0.000081   0.002395   0.004060  -0.003044
    27  H    0.000042  -0.000000  -0.000000   0.000000  -0.000040  -0.000000
              25         26         27
     1  O    0.000000   0.000000   0.003659
     2  N   -0.000000  -0.000000  -0.000912
     3  O    0.000000   0.000000  -0.000020
     4  C    0.000027   0.000003  -0.068351
     5  C   -0.000000   0.000001   0.002385
     6  N   -0.000088  -0.000064   0.000042
     7  C    0.005130  -0.003694  -0.000524
     8  H   -0.000024   0.001667   0.000009
     9  C   -0.000421   0.000938  -0.000026
    10  C    0.004198  -0.002221   0.000006
    11  C   -0.033405  -0.041599   0.000020
    12  C    0.398205   0.396773  -0.000050
    13  C   -0.035559  -0.047488   0.005714
    14  H   -0.002825  -0.001111  -0.000171
    15  N    0.000517   0.004893  -0.045456
    16  C   -0.000052  -0.000039   0.410239
    17  H   -0.000000   0.000000  -0.000088
    18  H    0.000002  -0.000000   0.000001
    19  H   -0.000028   0.000019   0.000042
    20  H    0.000013  -0.000030  -0.000000
    21  H   -0.000087  -0.000081  -0.000000
    22  H   -0.000081   0.002395   0.000000
    23  H   -0.002292   0.004060  -0.000040
    24  H   -0.002299  -0.003044  -0.000000
    25  H    0.505911  -0.023988  -0.000014
    26  H   -0.023988   0.562218   0.000001
    27  H   -0.000014   0.000001   0.457594
 Mulliken charges:
               1
     1  O   -0.466004
     2  N    0.497849
     3  O   -0.505555
     4  C   -0.009328
     5  C    0.188385
     6  N   -0.780308
     7  C    0.056661
     8  H    0.180766
     9  C   -0.302166
    10  C   -0.327229
    11  C   -0.321885
    12  C   -0.306620
    13  C   -0.036864
    14  H    0.190819
    15  N   -0.508030
    16  C    0.133796
    17  H    0.296249
    18  H    0.405359
    19  H    0.190231
    20  H    0.161551
    21  H    0.174695
    22  H    0.149437
    23  H    0.199988
    24  H    0.164709
    25  H    0.187160
    26  H    0.150394
    27  H    0.235940
 Sum of Mulliken charges =  -0.00000
 Mulliken charges with hydrogens summed into heavy atoms:
               1
     1  O   -0.466004
     2  N    0.497849
     3  O   -0.505555
     4  C   -0.009328
     5  C    0.484633
     6  N   -0.374949
     7  C    0.237427
     9  C    0.049616
    10  C   -0.003097
    11  C    0.042812
    12  C    0.030933
    13  C    0.153955
    15  N   -0.508030
    16  C    0.369736
 Electronic spatial extent (au):  <R**2>=           2997.5221
 Charge=             -0.0000 electrons
 Dipole moment (field-independent basis, Debye):
    X=              5.4782    Y=              4.7739    Z=              1.5066  Tot=              7.4209
 Quadrupole moment (field-independent basis, Debye-Ang):
   XX=           -106.0171   YY=            -79.5331   ZZ=            -81.3489
   XY=             -1.6044   XZ=             -1.3240   YZ=              2.2643
 Traceless Quadrupole moment (field-independent basis, Debye-Ang):
   XX=            -17.0508   YY=              9.4333   ZZ=              7.6175
   XY=             -1.6044   XZ=             -1.3240   YZ=              2.2643
 Octapole moment (field-independent basis, Debye-Ang**2):
  XXX=             91.2627  YYY=             36.7392  ZZZ=             -1.1191  XYY=             -3.8417
  XXY=              8.5130  XXZ=             10.5702  XZZ=             -9.4373  YZZ=             -0.5250
  YYZ=              8.4809  XYZ=             -0.5484
 Hexadecapole moment (field-independent basis, Debye-Ang**3):
 XXXX=          -3353.0690 YYYY=           -605.8917 ZZZZ=           -311.2005 XXXY=             -7.2794
 XXXZ=            -58.0823 YYYX=              0.1382 YYYZ=             28.3693 ZZZX=            -20.4342
 ZZZY=              9.3070 XXYY=           -626.5097 XXZZ=           -522.8793 YYZZ=           -158.3947
 XXYZ=              0.9749 YYXZ=             -6.9776 ZZXY=              7.8278
 N-N= 9.312636223450D+02 E-N=-3.409228252422D+03  KE= 6.596229962046D+02
 Unable to Open any file for archive entry.
 1\1\GINC-LOTUS\FOpt\RMP2-FC\6-31G(d)\C9H13N3O2\ALEXEY\03-Jul-2023\0\\#
 MP2/6-31G* SCF=Tight Opt=(ModRedun, MaxCycle=20 ) NoSymm\\MolName:\\0,
 1\O,-3.5050637784,-1.3709025557,-0.3972728597\N,-3.1108535142,-0.20338
 6557,-0.209741676\O,-3.8718403105,0.7828007451,-0.166067519\C,-1.68004
 50869,-0.0124439381,-0.0343196382\C,-1.2968467712,1.26620032,0.2740673
 383\N,-0.0564503289,1.738675476,0.4665295475\C,1.2023499878,1.01348880
 61,0.4048039173\H,1.8704763529,1.5457752108,1.097948138\C,1.8612396599
 ,1.0235887236,-0.9744962892\C,3.2679165626,0.4254419375,-0.8582798146\
 C,3.2504252393,-0.9691207219,-0.227219103\C,2.5019081514,-0.9797697019
 ,1.1072106896\C,1.0807139897,-0.4370400545,0.9181314036\H,0.5389134883
 ,-0.4182115966,1.8763104927\N,0.4101877712,-1.3354738774,-0.018193905\
 C,-0.847889533,-1.1744036031,-0.280916153\H,-2.0900209419,2.0031046009
 ,0.3660486981\H,0.005141273,2.7236110124,0.6951257705\H,1.2458494438,0
 .4413257425,-1.6689113378\H,1.9081395422,2.050866345,-1.3566998303\H,3
 .7377368968,0.3881484189,-1.8478076673\H,3.8854123145,1.0969049366,-0.
 2447981374\H,2.753302112,-1.6709312653,-0.9041625519\H,4.2773473566,-1
 .3259683843,-0.0847714814\H,2.4369610793,-2.000551457,1.4979625126\H,3
 .034404477,-0.3750956701,1.854332125\H,-1.249415433,-1.8626228924,-1.0
 288226691\\Version=ES64L-G16RevC.02\HF=-661.2966951\MP2=-663.3317673\R
 MSD=3.436e-09\RMSF=3.532e-03\Dipole=2.008137,1.6901404,0.5353252\PG=C0
 1 [X(C9H13N3O2)]\\@
 The archive entry for this job was punched.


 Everywhere is walking distance if you have the time.
                                    -- Steven Wright
 Job cpu time:       0 days  1 hours  8 minutes 29.6 seconds.
 Elapsed time:       0 days  0 hours 20 minutes 47.2 seconds.
 File lengths (MBytes):  RWF=     36 Int=      0 D2E=      0 Chk=      7 Scr=      1
 Normal termination of Gaussian 16 at Mon Jul  3 01:49:10 2023.
