 Entering Gaussian System, Link 0=g16
 Initial command:
 /home/alexey/programs//g16/l1.exe "/home/alexey/tmp/Gau-1272951.inp" -scrdir="/home/alexey/tmp/"
 Entering Link 1 = /home/alexey/programs//g16/l1.exe PID=   1272953.
  
 Copyright (c) 1988-2021, Gaussian, Inc.  All Rights Reserved.
  
 This is part of the Gaussian(R) 16 program.  It is based on
 the Gaussian(R) 09 system (copyright 2009, Gaussian, Inc.),
 the Gaussian(R) 03 system (copyright 2003, Gaussian, Inc.),
 the Gaussian(R) 98 system (copyright 1998, Gaussian, Inc.),
 the Gaussian(R) 94 system (copyright 1995, Gaussian, Inc.),
 the Gaussian 92(TM) system (copyright 1992, Gaussian, Inc.),
 the Gaussian 90(TM) system (copyright 1990, Gaussian, Inc.),
 the Gaussian 88(TM) system (copyright 1988, Gaussian, Inc.),
 the Gaussian 86(TM) system (copyright 1986, Carnegie Mellon
 University), and the Gaussian 82(TM) system (copyright 1983,
 Carnegie Mellon University). Gaussian is a federally registered
 trademark of Gaussian, Inc.
  
 This software contains proprietary and confidential information,
 including trade secrets, belonging to Gaussian, Inc.
  
 This software is provided under written license and may be
 used, copied, transmitted, or stored only in accord with that
 written license.
  
 The following legend is applicable only to US Government
 contracts under FAR:
  
                    RESTRICTED RIGHTS LEGEND
  
 Use, reproduction and disclosure by the US Government is
 subject to restrictions as set forth in subparagraphs (a)
 and (c) of the Commercial Computer Software - Restricted
 Rights clause in FAR 52.227-19.
  
 Gaussian, Inc.
 340 Quinnipiac St., Bldg. 40, Wallingford CT 06492
  
  
 ---------------------------------------------------------------
 Warning -- This program may not be used in any manner that
 competes with the business of Gaussian, Inc. or will provide
 assistance to any competitor of Gaussian, Inc.  The licensee
 of this program is prohibited from giving any competitor of
 Gaussian, Inc. access to this program.  By using this program,
 the user acknowledges that Gaussian, Inc. is engaged in the
 business of creating and licensing software in the field of
 computational chemistry and represents and warrants to the
 licensee that it is not a competitor of Gaussian, Inc. and that
 it will not use this program in any manner prohibited above.
 ---------------------------------------------------------------
  

 Cite this work as:
 Gaussian 16, Revision C.02,
 M. J. Frisch, G. W. Trucks, H. B. Schlegel, G. E. Scuseria, 
 M. A. Robb, J. R. Cheeseman, G. Scalmani, V. Barone, 
 G. A. Petersson, H. Nakatsuji, X. Li, M. Caricato, A. V. Marenich, 
 J. Bloino, B. G. Janesko, R. Gomperts, B. Mennucci, H. P. Hratchian, 
 J. V. Ortiz, A. F. Izmaylov, J. L. Sonnenberg, D. Williams-Young, 
 F. Ding, F. Lipparini, F. Egidi, J. Goings, B. Peng, A. Petrone, 
 T. Henderson, D. Ranasinghe, V. G. Zakrzewski, J. Gao, N. Rega, 
 G. Zheng, W. Liang, M. Hada, M. Ehara, K. Toyota, R. Fukuda, 
 J. Hasegawa, M. Ishida, T. Nakajima, Y. Honda, O. Kitao, H. Nakai, 
 T. Vreven, K. Throssell, J. A. Montgomery, Jr., J. E. Peralta, 
 F. Ogliaro, M. J. Bearpark, J. J. Heyd, E. N. Brothers, K. N. Kudin, 
 V. N. Staroverov, T. A. Keith, R. Kobayashi, J. Normand, 
 K. Raghavachari, A. P. Rendell, J. C. Burant, S. S. Iyengar, 
 J. Tomasi, M. Cossi, J. M. Millam, M. Klene, C. Adamo, R. Cammi, 
 J. W. Ochterski, R. L. Martin, K. Morokuma, O. Farkas, 
 J. B. Foresman, and D. J. Fox, Gaussian, Inc., Wallingford CT, 2019.
 
 ******************************************
 Gaussian 16:  ES64L-G16RevC.02  7-Dec-2021
                 1-Jul-2023 
 ******************************************
 %mem=8GB
 %NPROCS=4
 Will use up to    4 processors via shared memory.
 %NoSave
 ---------------------------------------------------------
 #MP2/6-31G* SCF=Tight Opt=(ModRedun, MaxCycle=20 ) NoSymm
 ---------------------------------------------------------
 1/6=20,18=120,19=15,38=1/1,3;
 2/9=110,12=2,15=1,17=6,18=5,40=1/2;
 3/5=1,6=6,7=1,11=9,25=1,30=1,71=1/1,2,3;
 4//1;
 5/5=2,32=2,38=5/2;
 8/6=4,10=2/1;
 9/15=2,16=-3/6;
 10/5=1,31=1/2;
 6/7=2,8=2,9=2,10=2/1;
 7/12=2,30=1/1,2,3,16;
 1/6=20,18=20,19=15/3(2);
 2/9=110,15=1/2;
 99//99;
 2/9=110,15=1/2;
 3/5=1,6=6,7=1,11=9,25=1,30=1,71=1/1,2,3;
 4/5=5,16=3,69=1/1;
 5/5=2,32=2,38=5/2;
 8/6=4,10=2/1;
 9/15=2,16=-3/6;
 10/5=1,31=1/2;
 7/12=2,30=1/1,2,3,16;
 1/6=20,18=20,19=15/3(-8);
 2/9=110,15=1/2;
 6/7=2,8=2,9=2,10=2/1;
 99/9=10/99;
 --------
 MolName:
 --------
 Symbolic Z-matrix:
 Charge =  0 Multiplicity = 1
 8                    0    -3.56116  -1.50667  -0.07375 
 7                    0    -3.22937  -0.33871   0.11795 
 8                    0    -4.01469   0.55117   0.44596 
 6                    0    -1.76046   0.02432  -0.07701 
 6                    0    -1.3726    1.32049   0.28961 
 7                    0    -0.08492   1.7994    0.24307 
 6                    0     1.19333   1.01696   0.28392 
 1                    0     1.80794   1.49631   1.08901 
 6                    0     2.04783   1.08005  -1.00547 
 6                    0     3.43353   0.46558  -0.73285 
 6                    0     3.30628  -0.95982  -0.17274 
 6                    0     2.37102  -1.00249   1.05548 
 6                    0     0.96128  -0.43406   0.73188 
 1                    0     0.36362  -0.4843    1.67263 
 7                    0     0.35542  -1.27013  -0.30991 
 6                    0    -0.85898  -1.00408  -0.66466 
 1                    0    -2.13805   2.01218   0.679 
 1                    0     0.13119   2.76329  -0.02253 
 1                    0     1.54301   0.52699  -1.82616 
 1                    0     2.1748    2.13474  -1.32978 
 1                    0     4.03302   0.45018  -1.6693 
 1                    0     3.97293   1.09558   0.00934 
 1                    0     2.89812  -1.62559  -0.9665 
 1                    0     4.31032  -1.34773   0.10571 
 1                    0     2.27012  -2.05474   1.40091 
 1                    0     2.82372  -0.41705   1.88321 
 1                    0    -1.41626  -1.92887  -0.89901 
 
 The following ModRedundant input section has been read:
 D      16       4      15      27 F                                           
 D       1       2       4      16 F                                           
 D       7      13      15      16 F                                           
 D       7       9      10      11 F                                           
 D       9      10      11      12 F                                           
 D       6       7      13      15 F                                           
 

 GradGradGradGradGradGradGradGradGradGradGradGradGradGradGradGradGradGrad
 Berny optimization.
 Initialization pass.
                           ----------------------------
                           !    Initial Parameters    !
                           ! (Angstroms and Degrees)  !
 --------------------------                            --------------------------
 ! Name  Definition              Value          Derivative Info.                !
 --------------------------------------------------------------------------------
 ! R1    R(1,2)                  1.2292         estimate D2E/DX2                !
 ! R2    R(2,3)                  1.2313         estimate D2E/DX2                !
 ! R3    R(2,4)                  1.5256         estimate D2E/DX2                !
 ! R4    R(4,5)                  1.4017         estimate D2E/DX2                !
 ! R5    R(4,16)                 1.4885         estimate D2E/DX2                !
 ! R6    R(5,6)                  1.3746         estimate D2E/DX2                !
 ! R7    R(5,17)                 1.1027         estimate D2E/DX2                !
 ! R8    R(6,7)                  1.4993         estimate D2E/DX2                !
 ! R9    R(6,18)                 1.0229         estimate D2E/DX2                !
 ! R10   R(7,8)                  1.1206         estimate D2E/DX2                !
 ! R11   R(7,9)                  1.5481         estimate D2E/DX2                !
 ! R12   R(7,13)                 1.5362         estimate D2E/DX2                !
 ! R13   R(9,10)                 1.5401         estimate D2E/DX2                !
 ! R14   R(9,19)                 1.111          estimate D2E/DX2                !
 ! R15   R(9,20)                 1.1107         estimate D2E/DX2                !
 ! R16   R(10,11)                1.5368         estimate D2E/DX2                !
 ! R17   R(10,21)                1.112          estimate D2E/DX2                !
 ! R18   R(10,22)                1.113          estimate D2E/DX2                !
 ! R19   R(11,12)                1.5444         estimate D2E/DX2                !
 ! R20   R(11,23)                1.1135         estimate D2E/DX2                !
 ! R21   R(11,24)                1.1118         estimate D2E/DX2                !
 ! R22   R(12,13)                1.5541         estimate D2E/DX2                !
 ! R23   R(12,25)                1.1121         estimate D2E/DX2                !
 ! R24   R(12,26)                1.1103         estimate D2E/DX2                !
 ! R25   R(13,14)                1.1157         estimate D2E/DX2                !
 ! R26   R(13,15)                1.4668         estimate D2E/DX2                !
 ! R27   R(15,16)                1.2928         estimate D2E/DX2                !
 ! R28   R(16,27)                1.1049         estimate D2E/DX2                !
 ! A1    A(1,2,3)              123.7847         estimate D2E/DX2                !
 ! A2    A(1,2,4)              117.7787         estimate D2E/DX2                !
 ! A3    A(3,2,4)              118.4338         estimate D2E/DX2                !
 ! A4    A(2,4,5)              116.9378         estimate D2E/DX2                !
 ! A5    A(2,4,16)             117.9805         estimate D2E/DX2                !
 ! A6    A(5,4,16)             125.0676         estimate D2E/DX2                !
 ! A7    A(4,5,6)              124.9238         estimate D2E/DX2                !
 ! A8    A(4,5,17)             118.7053         estimate D2E/DX2                !
 ! A9    A(6,5,17)             116.3378         estimate D2E/DX2                !
 ! A10   A(5,6,7)              128.0179         estimate D2E/DX2                !
 ! A11   A(5,6,18)             122.343          estimate D2E/DX2                !
 ! A12   A(7,6,18)             108.5856         estimate D2E/DX2                !
 ! A13   A(6,7,8)              105.3047         estimate D2E/DX2                !
 ! A14   A(6,7,9)              115.2539         estimate D2E/DX2                !
 ! A15   A(6,7,13)             111.845          estimate D2E/DX2                !
 ! A16   A(8,7,9)              106.1539         estimate D2E/DX2                !
 ! A17   A(8,7,13)             106.1047         estimate D2E/DX2                !
 ! A18   A(9,7,13)             111.3911         estimate D2E/DX2                !
 ! A19   A(7,9,10)             109.4463         estimate D2E/DX2                !
 ! A20   A(7,9,19)             110.1306         estimate D2E/DX2                !
 ! A21   A(7,9,20)             110.1807         estimate D2E/DX2                !
 ! A22   A(10,9,19)            109.9363         estimate D2E/DX2                !
 ! A23   A(10,9,20)            109.128          estimate D2E/DX2                !
 ! A24   A(19,9,20)            107.9966         estimate D2E/DX2                !
 ! A25   A(9,10,11)            111.1044         estimate D2E/DX2                !
 ! A26   A(9,10,21)            109.9686         estimate D2E/DX2                !
 ! A27   A(9,10,22)            109.1626         estimate D2E/DX2                !
 ! A28   A(11,10,21)           109.7992         estimate D2E/DX2                !
 ! A29   A(11,10,22)           108.7906         estimate D2E/DX2                !
 ! A30   A(21,10,22)           107.947          estimate D2E/DX2                !
 ! A31   A(10,11,12)           111.4466         estimate D2E/DX2                !
 ! A32   A(10,11,23)           108.9723         estimate D2E/DX2                !
 ! A33   A(10,11,24)           109.8842         estimate D2E/DX2                !
 ! A34   A(12,11,23)           109.1728         estimate D2E/DX2                !
 ! A35   A(12,11,24)           109.7598         estimate D2E/DX2                !
 ! A36   A(23,11,24)           107.5145         estimate D2E/DX2                !
 ! A37   A(11,12,13)           111.9403         estimate D2E/DX2                !
 ! A38   A(11,12,25)           109.1546         estimate D2E/DX2                !
 ! A39   A(11,12,26)           109.3537         estimate D2E/DX2                !
 ! A40   A(13,12,25)           109.1753         estimate D2E/DX2                !
 ! A41   A(13,12,26)           109.4037         estimate D2E/DX2                !
 ! A42   A(25,12,26)           107.7181         estimate D2E/DX2                !
 ! A43   A(7,13,12)            105.6151         estimate D2E/DX2                !
 ! A44   A(7,13,14)            111.6743         estimate D2E/DX2                !
 ! A45   A(7,13,15)            113.1835         estimate D2E/DX2                !
 ! A46   A(12,13,14)           107.0909         estimate D2E/DX2                !
 ! A47   A(12,13,15)           108.3063         estimate D2E/DX2                !
 ! A48   A(14,13,15)           110.6073         estimate D2E/DX2                !
 ! A49   A(13,15,16)           117.7487         estimate D2E/DX2                !
 ! A50   A(4,16,15)            127.0666         estimate D2E/DX2                !
 ! A51   A(4,16,27)            110.8892         estimate D2E/DX2                !
 ! A52   A(15,16,27)           111.0845         estimate D2E/DX2                !
 ! D1    D(1,2,4,5)           -173.0385         estimate D2E/DX2                !
 ! D2    D(1,2,4,16)             8.2588         Frozen                          !
 ! D3    D(3,2,4,5)              7.5478         estimate D2E/DX2                !
 ! D4    D(3,2,4,16)          -171.1549         estimate D2E/DX2                !
 ! D5    D(2,4,5,6)            176.7826         estimate D2E/DX2                !
 ! D6    D(2,4,5,17)            -1.0427         estimate D2E/DX2                !
 ! D7    D(16,4,5,6)            -4.6172         estimate D2E/DX2                !
 ! D8    D(16,4,5,17)          177.5576         estimate D2E/DX2                !
 ! D9    D(16,4,15,27)         -23.6186         Frozen                          !
 ! D10   D(2,4,16,15)         -139.7222         estimate D2E/DX2                !
 ! D11   D(2,4,16,27)            0.708          estimate D2E/DX2                !
 ! D12   D(5,4,16,15)           41.6908         estimate D2E/DX2                !
 ! D13   D(5,4,16,27)         -177.8789         estimate D2E/DX2                !
 ! D14   D(4,5,6,7)            -23.5514         estimate D2E/DX2                !
 ! D15   D(4,5,6,18)           143.3288         estimate D2E/DX2                !
 ! D16   D(17,5,6,7)           154.3202         estimate D2E/DX2                !
 ! D17   D(17,5,6,18)          -38.7997         estimate D2E/DX2                !
 ! D18   D(5,6,7,8)           -128.778          estimate D2E/DX2                !
 ! D19   D(5,6,7,9)            114.6056         estimate D2E/DX2                !
 ! D20   D(5,6,7,13)           -13.9721         estimate D2E/DX2                !
 ! D21   D(18,6,7,8)            62.895          estimate D2E/DX2                !
 ! D22   D(18,6,7,9)           -53.7215         estimate D2E/DX2                !
 ! D23   D(18,6,7,13)          177.7008         estimate D2E/DX2                !
 ! D24   D(6,7,9,10)           169.3297         estimate D2E/DX2                !
 ! D25   D(6,7,9,19)           -69.7031         estimate D2E/DX2                !
 ! D26   D(6,7,9,20)            49.3298         estimate D2E/DX2                !
 ! D27   D(8,7,9,10)            53.1956         estimate D2E/DX2                !
 ! D28   D(8,7,9,19)           174.1627         estimate D2E/DX2                !
 ! D29   D(8,7,9,20)           -66.8044         estimate D2E/DX2                !
 ! D30   D(13,7,9,10)          -61.868          estimate D2E/DX2                !
 ! D31   D(13,7,9,19)           59.0992         estimate D2E/DX2                !
 ! D32   D(13,7,9,20)          178.1321         estimate D2E/DX2                !
 ! D33   D(6,7,13,12)         -166.6533         estimate D2E/DX2                !
 ! D34   D(6,7,13,14)          -50.5849         estimate D2E/DX2                !
 ! D35   D(6,7,13,15)           75.0214         Frozen                          !
 ! D36   D(8,7,13,12)          -52.3397         estimate D2E/DX2                !
 ! D37   D(8,7,13,14)           63.7287         estimate D2E/DX2                !
 ! D38   D(8,7,13,15)         -170.665          estimate D2E/DX2                !
 ! D39   D(9,7,13,12)           62.7543         estimate D2E/DX2                !
 ! D40   D(9,7,13,14)          178.8227         estimate D2E/DX2                !
 ! D41   D(9,7,13,15)          -55.571          estimate D2E/DX2                !
 ! D42   D(7,9,10,11)           54.8123         Frozen                          !
 ! D43   D(7,9,10,21)          176.5842         estimate D2E/DX2                !
 ! D44   D(7,9,10,22)          -65.1641         estimate D2E/DX2                !
 ! D45   D(19,9,10,11)         -66.2727         estimate D2E/DX2                !
 ! D46   D(19,9,10,21)          55.4992         estimate D2E/DX2                !
 ! D47   D(19,9,10,22)         173.7508         estimate D2E/DX2                !
 ! D48   D(20,9,10,11)         175.4551         estimate D2E/DX2                !
 ! D49   D(20,9,10,21)         -62.773          estimate D2E/DX2                !
 ! D50   D(20,9,10,22)          55.4786         estimate D2E/DX2                !
 ! D51   D(9,10,11,12)         -52.8223         Frozen                          !
 ! D52   D(9,10,11,23)          67.7197         estimate D2E/DX2                !
 ! D53   D(9,10,11,24)        -174.7155         estimate D2E/DX2                !
 ! D54   D(21,10,11,12)       -174.6929         estimate D2E/DX2                !
 ! D55   D(21,10,11,23)        -54.1509         estimate D2E/DX2                !
 ! D56   D(21,10,11,24)         63.4139         estimate D2E/DX2                !
 ! D57   D(22,10,11,12)         67.3749         estimate D2E/DX2                !
 ! D58   D(22,10,11,23)       -172.083          estimate D2E/DX2                !
 ! D59   D(22,10,11,24)        -54.5182         estimate D2E/DX2                !
 ! D60   D(10,11,12,13)         56.4891         estimate D2E/DX2                !
 ! D61   D(10,11,12,25)        177.4716         estimate D2E/DX2                !
 ! D62   D(10,11,12,26)        -64.917          estimate D2E/DX2                !
 ! D63   D(23,11,12,13)        -63.9352         estimate D2E/DX2                !
 ! D64   D(23,11,12,25)         57.0473         estimate D2E/DX2                !
 ! D65   D(23,11,12,26)        174.6587         estimate D2E/DX2                !
 ! D66   D(24,11,12,13)        178.4542         estimate D2E/DX2                !
 ! D67   D(24,11,12,25)        -60.5634         estimate D2E/DX2                !
 ! D68   D(24,11,12,26)         57.048          estimate D2E/DX2                !
 ! D69   D(11,12,13,7)         -59.749          estimate D2E/DX2                !
 ! D70   D(11,12,13,14)       -178.9014         estimate D2E/DX2                !
 ! D71   D(11,12,13,15)         61.7861         estimate D2E/DX2                !
 ! D72   D(25,12,13,7)         179.2805         estimate D2E/DX2                !
 ! D73   D(25,12,13,14)         60.128          estimate D2E/DX2                !
 ! D74   D(25,12,13,15)        -59.1844         estimate D2E/DX2                !
 ! D75   D(26,12,13,7)          61.6283         estimate D2E/DX2                !
 ! D76   D(26,12,13,14)        -57.5241         estimate D2E/DX2                !
 ! D77   D(26,12,13,15)       -176.8366         estimate D2E/DX2                !
 ! D78   D(7,13,15,16)         -67.1589         Frozen                          !
 ! D79   D(12,13,15,16)        176.0901         estimate D2E/DX2                !
 ! D80   D(14,13,15,16)         59.0176         estimate D2E/DX2                !
 ! D81   D(13,15,16,4)          -3.6983         estimate D2E/DX2                !
 ! D82   D(13,15,16,27)       -144.0666         estimate D2E/DX2                !
 --------------------------------------------------------------------------------
 Trust Radius=3.00D-01 FncErr=1.00D-07 GrdErr=1.00D-07 EigMax=2.50D+02 EigMin=1.00D-04
 Number of steps in this run=     20 maximum allowed number of steps=    162.
 GradGradGradGradGradGradGradGradGradGradGradGradGradGradGradGradGradGrad

                          Input orientation:                          
 ---------------------------------------------------------------------
 Center     Atomic      Atomic             Coordinates (Angstroms)
 Number     Number       Type             X           Y           Z
 ---------------------------------------------------------------------
      1          8           0       -3.561160   -1.506670   -0.073750
      2          7           0       -3.229370   -0.338710    0.117950
      3          8           0       -4.014690    0.551170    0.445960
      4          6           0       -1.760460    0.024320   -0.077010
      5          6           0       -1.372600    1.320490    0.289610
      6          7           0       -0.084920    1.799400    0.243070
      7          6           0        1.193330    1.016960    0.283920
      8          1           0        1.807940    1.496310    1.089010
      9          6           0        2.047830    1.080050   -1.005470
     10          6           0        3.433530    0.465580   -0.732850
     11          6           0        3.306280   -0.959820   -0.172740
     12          6           0        2.371020   -1.002490    1.055480
     13          6           0        0.961280   -0.434060    0.731880
     14          1           0        0.363620   -0.484300    1.672630
     15          7           0        0.355420   -1.270130   -0.309910
     16          6           0       -0.858980   -1.004080   -0.664660
     17          1           0       -2.138050    2.012180    0.679000
     18          1           0        0.131190    2.763290   -0.022530
     19          1           0        1.543010    0.526990   -1.826160
     20          1           0        2.174800    2.134740   -1.329780
     21          1           0        4.033020    0.450180   -1.669300
     22          1           0        3.972930    1.095580    0.009340
     23          1           0        2.898120   -1.625590   -0.966500
     24          1           0        4.310320   -1.347730    0.105710
     25          1           0        2.270120   -2.054740    1.400910
     26          1           0        2.823720   -0.417050    1.883210
     27          1           0       -1.416260   -1.928870   -0.899010
 ---------------------------------------------------------------------
                    Distance matrix (angstroms):
                    1          2          3          4          5
     1  O    0.000000
     2  N    1.229213   0.000000
     3  O    2.170367   1.231343   0.000000
     4  C    2.363570   1.525614   2.373314   0.000000
     5  C    3.593697   2.495998   2.756254   1.401750   0.000000
     6  N    4.807777   3.804568   4.128236   2.461868   1.374642
     7  C    5.394609   4.628786   5.231318   3.136954   2.583827
     8  H    6.260761   5.448371   5.933787   4.032349   3.284172
     9  C    6.246598   5.578870   6.256238   4.059517   3.665295
    10  C    7.297251   6.764982   7.541412   5.253796   4.987502
    11  C    6.889889   6.571529   7.500832   5.162320   5.225466
    12  C    6.059713   5.716986   6.600202   4.405224   4.471855
    13  C    4.717202   4.236455   5.080621   2.876158   2.953141
    14  H    4.415765   3.917627   4.663316   2.798509   2.860851
    15  N    3.930817   3.728448   4.794407   2.491343   3.171244
    16  C    2.811325   2.583398   3.689280   1.488491   2.564773
    17  H    3.869649   2.651875   2.389694   2.160026   1.102712
    18  H    5.645231   4.575533   4.722423   3.329154   2.107246
    19  H    5.767085   5.225381   6.004260   3.771620   3.688754
    20  H    6.909321   6.117101   6.631043   4.637842   3.983651
    21  H    8.002913   7.520566   8.321668   6.023384   5.815109
    22  H    7.971268   7.344529   8.018048   5.833251   5.357595
    23  H    6.521767   6.354386   7.383784   5.021530   5.338188
    24  H    7.875130   7.606918   8.545606   6.226578   6.280828
    25  H    6.039771   5.902130   6.870337   4.769938   5.088868
    26  H    6.766362   6.305726   7.054572   5.005195   4.813285
    27  H    2.336644   2.617286   3.835542   2.146884   3.460212
                    6          7          8          9         10
     6  N    0.000000
     7  C    1.499268   0.000000
     8  H    2.095327   1.120577   0.000000
     9  C    2.573896   1.548121   2.148876   0.000000
    10  C    3.887285   2.521178   2.650306   1.540149   0.000000
    11  C    4.391632   2.929293   3.141594   2.537362   1.536776
    12  C    3.813429   2.461795   2.561676   2.947701   2.546032
    13  C    2.514322   1.536221   2.137920   2.547843   3.011114
    14  H    2.731321   2.206970   2.519819   3.529302   4.014094
    15  N    3.149873   2.507092   3.423446   2.978490   3.558979
    16  C    3.046743   3.032554   4.054599   3.592951   4.537642
    17  H    2.109657   3.499235   4.000633   4.607374   5.952125
    18  H    1.022903   2.066814   2.377446   2.733675   4.085275
    19  H    2.924192   2.194262   3.083502   1.110968   2.184757
    20  H    2.773562   2.194708   2.528384   1.110707   2.174126
    21  H    4.736558   3.492871   3.695084   2.185952   1.112009
    22  H    4.125062   2.794235   2.452234   2.176256   1.112968
    23  H    4.700228   3.384218   3.893568   2.836371   2.171232
    24  H    5.407535   3.916522   3.913738   3.499671   2.181751
    25  H    4.662746   3.441291   3.594558   3.958154   3.501209
    26  H    4.007854   2.696717   2.307273   3.344815   2.827485
    27  H    4.120292   4.109404   5.106814   4.589646   5.411235
                   11         12         13         14         15
    11  C    0.000000
    12  C    1.544363   0.000000
    13  C    2.567837   1.554090   0.000000
    14  H    3.505818   2.163111   1.115676   0.000000
    15  N    2.970300   2.449197   1.466767   2.132618   0.000000
    16  C    4.194441   3.659479   2.364021   2.688465   1.292825
    17  H    6.260908   5.437066   3.948763   3.671249   4.238973
    18  H    4.895437   4.512210   3.388397   3.670754   4.049857
    19  H    2.837873   3.365822   2.793850   3.828211   2.634203
    20  H    3.492176   3.945907   3.510243   4.376552   3.992921
    21  H    2.180812   3.506696   3.997891   5.050371   4.281606
    22  H    2.168466   2.839440   3.454258   4.276643   4.334153
    23  H    1.113508   2.180480   2.838237   3.832915   2.650054
    24  H    1.111803   2.186810   3.527457   4.333266   3.977436
    25  H    2.179186   1.112085   2.187982   2.484926   2.684882
    26  H    2.180457   1.110322   2.189642   2.470012   3.410282
    27  H    4.875337   4.361387   3.247608   3.445009   1.979855
                   16         17         18         19         20
    16  C    0.000000
    17  H    3.541083   0.000000
    18  H    3.947891   2.491136   0.000000
    19  H    3.076169   4.693806   3.201149   0.000000
    20  H    4.415699   4.759295   2.506057   1.797335   0.000000
    21  H    5.201523   6.785017   4.825620   2.496128   2.531007
    22  H    5.311328   6.215519   4.188226   3.097881   2.471107
    23  H    3.820102   6.426823   5.273448   2.684947   3.846459
    24  H    5.237674   7.293774   5.863622   3.860661   4.329974
    25  H    3.893807   6.040940   5.460276   4.196189   5.001749
    26  H    4.516473   5.654241   4.582153   4.036193   4.154038
    27  H    1.104861   4.306155   5.017886   3.955772   5.440055
                   21         22         23         24         25
    21  H    0.000000
    22  H    1.799440   0.000000
    23  H    2.467944   3.084193   0.000000
    24  H    2.541660   2.468377   1.794756   0.000000
    25  H    4.336892   3.841945   2.486601   2.517900   0.000000
    26  H    3.851600   2.668356   3.096280   2.497129   1.794746
    27  H    5.995655   6.246260   4.325553   5.843022   4.346823
                   26         27
    26  H    0.000000
    27  H    5.291860   0.000000
 Symmetry turned off by external request.
 Stoichiometry    C9H13N3O2
 Framework group  C1[X(C9H13N3O2)]
 Deg. of freedom    75
 Full point group                 C1      NOp   1
 Rotational constants (GHZ):           1.6877755           0.4029597           0.3570628
 Standard basis: 6-31G(d) (6D, 7F)
   236 basis functions,   444 primitive gaussians,   236 cartesian basis functions
    52 alpha electrons       52 beta electrons
       nuclear repulsion energy       919.0665144853 Hartrees.
 NAtoms=   27 NActive=   27 NUniq=   27 SFac= 1.00D+00 NAtFMM=   60 NAOKFM=F Big=F
 Integral buffers will be    131072 words long.
 Raffenetti 1 integral format.
 Two-electron integral symmetry is turned off.
 One-electron integrals computed using PRISM.
 NBasis=   236 RedAO= T EigKep=  1.31D-03  NBF=   236
 NBsUse=   236 1.00D-06 EigRej= -1.00D+00 NBFU=   236
 ExpMin= 1.61D-01 ExpMax= 5.48D+03 ExpMxC= 8.25D+02 IAcc=3 IRadAn=         5 AccDes= 0.00D+00
 Harris functional with IExCor=  205 and IRadAn=       5 diagonalized for initial guess.
 HarFok:  IExCor=  205 AccDes= 0.00D+00 IRadAn=         5 IDoV= 1 UseB2=F ITyADJ=14
 ICtDFT=  3500011 ScaDFX=  1.000000  1.000000  1.000000  1.000000
 FoFCou: FMM=F IPFlag=           0 FMFlag=      100000 FMFlg1=           0
         NFxFlg=           0 DoJE=T BraDBF=F KetDBF=T FulRan=T
         wScrn=  0.000000 ICntrl=       500 IOpCl=  0 I1Cent=   200000004 NGrid=           0
         NMat0=    1 NMatS0=      1 NMatT0=    0 NMatD0=    1 NMtDS0=    0 NMtDT0=    0
 Symmetry not used in FoFCou.
 Keep R1 ints in memory in canonical form, NReq=397720213.
 Requested convergence on RMS density matrix=1.00D-08 within 128 cycles.
 Requested convergence on MAX density matrix=1.00D-06.
 Requested convergence on             energy=1.00D-06.
 No special actions if energy rises.
 SCF Done:  E(RHF) =  -661.252517040     A.U. after   16 cycles
            NFock= 16  Conv=0.77D-08     -V/T= 2.0036
 ExpMin= 1.61D-01 ExpMax= 5.48D+03 ExpMxC= 8.25D+02 IAcc=3 IRadAn=         5 AccDes= 0.00D+00
 HarFok:  IExCor=  205 AccDes= 0.00D+00 IRadAn=         5 IDoV=-2 UseB2=F ITyADJ=14
 ICtDFT= 12500011 ScaDFX=  1.000000  1.000000  1.000000  1.000000
 Range of M.O.s used for correlation:    15   236
 NBasis=   236 NAE=    52 NBE=    52 NFC=    14 NFV=     0
 NROrb=    222 NOA=    38 NOB=    38 NVA=   184 NVB=   184
 Fully direct method using O(ONN) memory.
 JobTyp=1 Pass  1:  I=  15 to  52 NPSUse=  4 ParTrn=T ParDer=T DoDerP=T.
 Spin components of T(2) and E(2):
     alpha-alpha T2 =       0.9240614090D-01 E2=     -0.2724246638D+00
     alpha-beta  T2 =       0.5033245271D+00 E2=     -0.1497502254D+01
     beta-beta   T2 =       0.9240614090D-01 E2=     -0.2724246638D+00
 ANorm=    0.1299283190D+01
 E2 =    -0.2042351582D+01 EUMP2 =    -0.66329486862175D+03
          IDoAtm=111111111111111111111111111
          Differentiating once with respect to electric field.
                with respect to dipole field.
          Differentiating once with respect to nuclear coordinates.
 Keep R1 ints in memory in canonical form, NReq=397723379.
          There are     1 degrees of freedom in the 1st order CPHF.  IDoFFX=0 NUNeed=     1.
 LinEq1:  Iter=  0 NonCon=     1 RMS=4.61D-03 Max=1.14D-01 NDo=     1
 AX will form     1 AO Fock derivatives at one time.
 LinEq1:  Iter=  1 NonCon=     1 RMS=1.57D-03 Max=4.05D-02 NDo=     1
 LinEq1:  Iter=  2 NonCon=     1 RMS=6.41D-04 Max=1.75D-02 NDo=     1
 LinEq1:  Iter=  3 NonCon=     1 RMS=2.97D-04 Max=8.23D-03 NDo=     1
 LinEq1:  Iter=  4 NonCon=     1 RMS=9.21D-05 Max=2.17D-03 NDo=     1
 LinEq1:  Iter=  5 NonCon=     1 RMS=3.80D-05 Max=1.82D-03 NDo=     1
 LinEq1:  Iter=  6 NonCon=     1 RMS=1.61D-05 Max=6.92D-04 NDo=     1
 LinEq1:  Iter=  7 NonCon=     1 RMS=6.16D-06 Max=1.05D-04 NDo=     1
 LinEq1:  Iter=  8 NonCon=     1 RMS=2.44D-06 Max=5.46D-05 NDo=     1
 LinEq1:  Iter=  9 NonCon=     1 RMS=8.51D-07 Max=2.42D-05 NDo=     1
 LinEq1:  Iter= 10 NonCon=     1 RMS=4.16D-07 Max=1.47D-05 NDo=     1
 LinEq1:  Iter= 11 NonCon=     1 RMS=1.63D-07 Max=5.96D-06 NDo=     1
 LinEq1:  Iter= 12 NonCon=     1 RMS=5.99D-08 Max=9.93D-07 NDo=     1
 LinEq1:  Iter= 13 NonCon=     1 RMS=1.89D-08 Max=3.36D-07 NDo=     1
 LinEq1:  Iter= 14 NonCon=     1 RMS=6.27D-09 Max=1.50D-07 NDo=     1
 LinEq1:  Iter= 15 NonCon=     1 RMS=2.53D-09 Max=5.24D-08 NDo=     1
 LinEq1:  Iter= 16 NonCon=     1 RMS=9.96D-10 Max=1.46D-08 NDo=     1
 LinEq1:  Iter= 17 NonCon=     1 RMS=3.05D-10 Max=4.70D-09 NDo=     1
 LinEq1:  Iter= 18 NonCon=     1 RMS=9.99D-11 Max=1.34D-09 NDo=     1
 LinEq1:  Iter= 19 NonCon=     0 RMS=3.13D-11 Max=5.16D-10 NDo=     1
 Linear equations converged to 1.000D-10 1.000D-09 after    19 iterations.
 End of Minotr F.D. properties file   721 does not exist.
 End of Minotr F.D. properties file   722 does not exist.
 End of Minotr F.D. properties file   788 does not exist.

 **********************************************************************

            Population analysis using the SCF Density.

 **********************************************************************

 Alpha  occ. eigenvalues --  -20.60109 -20.59658 -15.85574 -15.62511 -15.57509
 Alpha  occ. eigenvalues --  -11.35561 -11.30221 -11.30008 -11.29967 -11.27765
 Alpha  occ. eigenvalues --  -11.24605 -11.23866 -11.23435 -11.22899  -1.58773
 Alpha  occ. eigenvalues --   -1.38279  -1.28179  -1.22939  -1.13211  -1.08298
 Alpha  occ. eigenvalues --   -1.01822  -1.00589  -0.93417  -0.88883  -0.84901
 Alpha  occ. eigenvalues --   -0.81502  -0.78146  -0.76869  -0.74021  -0.70832
 Alpha  occ. eigenvalues --   -0.70453  -0.70074  -0.67580  -0.63895  -0.63373
 Alpha  occ. eigenvalues --   -0.61457  -0.60248  -0.57528  -0.56133  -0.55066
 Alpha  occ. eigenvalues --   -0.53022  -0.50720  -0.49175  -0.48688  -0.47931
 Alpha  occ. eigenvalues --   -0.47276  -0.46479  -0.45258  -0.44222  -0.42360
 Alpha  occ. eigenvalues --   -0.39838  -0.33556
 Alpha virt. eigenvalues --    0.06683   0.10615   0.18867   0.21405   0.23013
 Alpha virt. eigenvalues --    0.24033   0.25574   0.27219   0.28525   0.28888
 Alpha virt. eigenvalues --    0.30042   0.31507   0.31889   0.32199   0.33282
 Alpha virt. eigenvalues --    0.33610   0.35113   0.35585   0.37469   0.38471
 Alpha virt. eigenvalues --    0.40592   0.42458   0.44629   0.45316   0.45643
 Alpha virt. eigenvalues --    0.45978   0.49447   0.52778   0.57440   0.59333
 Alpha virt. eigenvalues --    0.63086   0.69105   0.69569   0.72155   0.73729
 Alpha virt. eigenvalues --    0.75328   0.75490   0.76328   0.77535   0.79236
 Alpha virt. eigenvalues --    0.80638   0.82092   0.84786   0.85588   0.87505
 Alpha virt. eigenvalues --    0.88513   0.89574   0.90347   0.91338   0.94410
 Alpha virt. eigenvalues --    0.96330   0.97533   0.98631   1.00231   1.01836
 Alpha virt. eigenvalues --    1.02560   1.05287   1.06102   1.07318   1.08807
 Alpha virt. eigenvalues --    1.09142   1.10479   1.10947   1.13054   1.13117
 Alpha virt. eigenvalues --    1.13615   1.14059   1.15358   1.16139   1.16892
 Alpha virt. eigenvalues --    1.18010   1.18568   1.20483   1.22036   1.22852
 Alpha virt. eigenvalues --    1.24426   1.24805   1.25785   1.27231   1.27697
 Alpha virt. eigenvalues --    1.29749   1.31870   1.33066   1.35607   1.39687
 Alpha virt. eigenvalues --    1.41275   1.44219   1.46562   1.49658   1.50765
 Alpha virt. eigenvalues --    1.52350   1.56368   1.59919   1.62547   1.64890
 Alpha virt. eigenvalues --    1.67680   1.69904   1.72277   1.73844   1.76540
 Alpha virt. eigenvalues --    1.79468   1.80914   1.84876   1.90151   1.92726
 Alpha virt. eigenvalues --    1.94175   1.94641   1.97880   1.98238   2.02705
 Alpha virt. eigenvalues --    2.03612   2.03677   2.06298   2.10565   2.11634
 Alpha virt. eigenvalues --    2.12281   2.14906   2.17663   2.18228   2.19535
 Alpha virt. eigenvalues --    2.20507   2.22344   2.24808   2.24970   2.27040
 Alpha virt. eigenvalues --    2.29123   2.31468   2.34697   2.36114   2.36617
 Alpha virt. eigenvalues --    2.37683   2.39872   2.42487   2.43240   2.46519
 Alpha virt. eigenvalues --    2.48607   2.50257   2.52156   2.56753   2.57818
 Alpha virt. eigenvalues --    2.60586   2.62625   2.67243   2.68816   2.68946
 Alpha virt. eigenvalues --    2.70612   2.71865   2.75525   2.76219   2.80713
 Alpha virt. eigenvalues --    2.83583   2.86058   2.90294   2.91002   2.95619
 Alpha virt. eigenvalues --    2.97134   2.98592   3.01780   3.02384   3.04891
 Alpha virt. eigenvalues --    3.06875   3.11710   3.19922   3.22896   3.27073
 Alpha virt. eigenvalues --    3.28516   3.32497   3.35567   3.43093   3.57034
 Alpha virt. eigenvalues --    4.09684   4.22299   4.31868   4.35822   4.40555
 Alpha virt. eigenvalues --    4.53420   4.59435   4.60791   4.70580   4.77167
 Alpha virt. eigenvalues --    4.94400   4.99195   5.02186   5.10787
          Condensed to atoms (all electrons):
               1          2          3          4          5          6
     1  O    8.303991   0.304687  -0.088123  -0.073038   0.003415  -0.000016
     2  N    0.304687   5.691389   0.310203   0.260947  -0.043671   0.001002
     3  O   -0.088123   0.310203   8.322354  -0.083868   0.007371   0.000432
     4  C   -0.073038   0.260947  -0.083868   5.247353   0.554270  -0.050031
     5  C    0.003415  -0.043671   0.007371   0.554270   4.684025   0.304851
     6  N   -0.000016   0.001002   0.000432  -0.050031   0.304851   7.211839
     7  C    0.000002  -0.000079   0.000002   0.001783  -0.030382   0.198165
     8  H   -0.000000   0.000003  -0.000000  -0.000135   0.001630  -0.053101
     9  C    0.000000  -0.000002   0.000000   0.000436   0.002063  -0.052337
    10  C   -0.000000   0.000000  -0.000000  -0.000012  -0.000072   0.003222
    11  C    0.000000  -0.000000  -0.000000  -0.000026   0.000014  -0.000160
    12  C   -0.000000   0.000002  -0.000000   0.000186  -0.000112   0.003703
    13  C   -0.000023  -0.000064  -0.000003  -0.016068   0.001088  -0.044983
    14  H   -0.000007  -0.000040  -0.000004   0.003720   0.007168  -0.006186
    15  N    0.000104   0.001730  -0.000012  -0.064478  -0.003676   0.001530
    16  C   -0.003914  -0.023747   0.001648   0.316588  -0.043789   0.000494
    17  H    0.000092  -0.003299   0.010177  -0.032306   0.382674  -0.036224
    18  H    0.000000  -0.000036   0.000008   0.000714  -0.022338   0.325975
    19  H    0.000000   0.000000   0.000000  -0.000590   0.000345   0.001105
    20  H    0.000000  -0.000000   0.000000  -0.000019   0.000039  -0.002341
    21  H   -0.000000  -0.000000   0.000000  -0.000000   0.000001  -0.000054
    22  H   -0.000000   0.000000  -0.000000  -0.000000  -0.000002  -0.000096
    23  H    0.000000  -0.000000   0.000000   0.000023  -0.000001  -0.000024
    24  H   -0.000000   0.000000   0.000000   0.000000  -0.000000   0.000004
    25  H    0.000000  -0.000000   0.000000   0.000019  -0.000001  -0.000072
    26  H   -0.000000  -0.000000   0.000000   0.000006   0.000001  -0.000073
    27  H    0.009310  -0.001775   0.000113  -0.066003   0.003272   0.000002
               7          8          9         10         11         12
     1  O    0.000002  -0.000000   0.000000  -0.000000   0.000000  -0.000000
     2  N   -0.000079   0.000003  -0.000002   0.000000  -0.000000   0.000002
     3  O    0.000002  -0.000000   0.000000  -0.000000  -0.000000  -0.000000
     4  C    0.001783  -0.000135   0.000436  -0.000012  -0.000026   0.000186
     5  C   -0.030382   0.001630   0.002063  -0.000072   0.000014  -0.000112
     6  N    0.198165  -0.053101  -0.052337   0.003222  -0.000160   0.003703
     7  C    4.983359   0.415805   0.341246  -0.049355  -0.007476  -0.062426
     8  H    0.415805   0.556027  -0.061581   0.001698  -0.000301  -0.003080
     9  C    0.341246  -0.061581   5.182498   0.317174  -0.053338  -0.006456
    10  C   -0.049355   0.001698   0.317174   5.127120   0.332632  -0.059831
    11  C   -0.007476  -0.000301  -0.053338   0.332632   5.122699   0.331355
    12  C   -0.062426  -0.003080  -0.006456  -0.059831   0.331355   5.139327
    13  C    0.338843  -0.042620  -0.047597  -0.002117  -0.047785   0.364181
    14  H   -0.038895  -0.000456   0.003678  -0.000372   0.003861  -0.041762
    15  N   -0.060269   0.004307  -0.013134   0.001544  -0.007439  -0.074172
    16  C   -0.002022  -0.000051  -0.001175   0.000003  -0.000047   0.003140
    17  H    0.001485   0.000001  -0.000063   0.000001   0.000000   0.000001
    18  H   -0.027315  -0.001688   0.000693  -0.000121   0.000012  -0.000127
    19  H   -0.035671   0.004286   0.384265  -0.032497  -0.002330   0.000616
    20  H   -0.041083  -0.001914   0.397362  -0.037343   0.004154  -0.000349
    21  H    0.004028  -0.000084  -0.035882   0.400330  -0.035920   0.004195
    22  H   -0.004126   0.003496  -0.045426   0.395942  -0.045423  -0.001346
    23  H    0.000411   0.000032  -0.001989  -0.040331   0.396826  -0.037088
    24  H   -0.000127  -0.000091   0.004373  -0.038425   0.400383  -0.037596
    25  H    0.005006  -0.000022  -0.000359   0.004094  -0.034066   0.395662
    26  H   -0.004991   0.001888   0.001042  -0.002398  -0.041957   0.394181
    27  H   -0.000267   0.000013  -0.000074   0.000004   0.000002  -0.000078
              13         14         15         16         17         18
     1  O   -0.000023  -0.000007   0.000104  -0.003914   0.000092   0.000000
     2  N   -0.000064  -0.000040   0.001730  -0.023747  -0.003299  -0.000036
     3  O   -0.000003  -0.000004  -0.000012   0.001648   0.010177   0.000008
     4  C   -0.016068   0.003720  -0.064478   0.316588  -0.032306   0.000714
     5  C    0.001088   0.007168  -0.003676  -0.043789   0.382674  -0.022338
     6  N   -0.044983  -0.006186   0.001530   0.000494  -0.036224   0.325975
     7  C    0.338843  -0.038895  -0.060269  -0.002022   0.001485  -0.027315
     8  H   -0.042620  -0.000456   0.004307  -0.000051   0.000001  -0.001688
     9  C   -0.047597   0.003678  -0.013134  -0.001175  -0.000063   0.000693
    10  C   -0.002117  -0.000372   0.001544   0.000003   0.000001  -0.000121
    11  C   -0.047785   0.003861  -0.007439  -0.000047   0.000000   0.000012
    12  C    0.364181  -0.041762  -0.074172   0.003140   0.000001  -0.000127
    13  C    5.035291   0.401016   0.242241  -0.065031  -0.000041   0.003561
    14  H    0.401016   0.516151  -0.033602  -0.008654   0.000096   0.000032
    15  N    0.242241  -0.033602   6.932017   0.558955  -0.000102  -0.000121
    16  C   -0.065031  -0.008654   0.558955   4.786936   0.001635  -0.000198
    17  H   -0.000041   0.000096  -0.000102   0.001635   0.395425  -0.001303
    18  H    0.003561   0.000032  -0.000121  -0.000198  -0.001303   0.322420
    19  H   -0.006065   0.000080   0.007373   0.002855   0.000008  -0.000094
    20  H    0.003824  -0.000046   0.000076  -0.000023   0.000000   0.003180
    21  H   -0.000350   0.000008  -0.000025   0.000001  -0.000000  -0.000000
    22  H    0.000352  -0.000043   0.000005  -0.000000   0.000000   0.000001
    23  H   -0.005717   0.000002   0.006524   0.000032   0.000000   0.000000
    24  H    0.004064  -0.000059   0.000035   0.000005   0.000000  -0.000000
    25  H   -0.035011  -0.002659   0.000678  -0.000033  -0.000000   0.000002
    26  H   -0.044019  -0.000665   0.004138  -0.000067   0.000000  -0.000001
    27  H    0.005480  -0.000129  -0.053231   0.402403  -0.000043   0.000002
              19         20         21         22         23         24
     1  O    0.000000   0.000000  -0.000000  -0.000000   0.000000  -0.000000
     2  N    0.000000  -0.000000  -0.000000   0.000000  -0.000000   0.000000
     3  O    0.000000   0.000000   0.000000  -0.000000   0.000000   0.000000
     4  C   -0.000590  -0.000019  -0.000000  -0.000000   0.000023   0.000000
     5  C    0.000345   0.000039   0.000001  -0.000002  -0.000001  -0.000000
     6  N    0.001105  -0.002341  -0.000054  -0.000096  -0.000024   0.000004
     7  C   -0.035671  -0.041083   0.004028  -0.004126   0.000411  -0.000127
     8  H    0.004286  -0.001914  -0.000084   0.003496   0.000032  -0.000091
     9  C    0.384265   0.397362  -0.035882  -0.045426  -0.001989   0.004373
    10  C   -0.032497  -0.037343   0.400330   0.395942  -0.040331  -0.038425
    11  C   -0.002330   0.004154  -0.035920  -0.045423   0.396826   0.400383
    12  C    0.000616  -0.000349   0.004195  -0.001346  -0.037088  -0.037596
    13  C   -0.006065   0.003824  -0.000350   0.000352  -0.005717   0.004064
    14  H    0.000080  -0.000046   0.000008  -0.000043   0.000002  -0.000059
    15  N    0.007373   0.000076  -0.000025   0.000005   0.006524   0.000035
    16  C    0.002855  -0.000023   0.000001  -0.000000   0.000032   0.000005
    17  H    0.000008   0.000000  -0.000000   0.000000   0.000000   0.000000
    18  H   -0.000094   0.003180  -0.000000   0.000001   0.000000  -0.000000
    19  H    0.508439  -0.024018  -0.002609   0.003762   0.001657  -0.000068
    20  H   -0.024018   0.549376  -0.002562  -0.002981  -0.000051  -0.000090
    21  H   -0.002609  -0.002562   0.525982  -0.024651  -0.002833  -0.002046
    22  H    0.003762  -0.002981  -0.024651   0.567352   0.004070  -0.003563
    23  H    0.001657  -0.000051  -0.002833   0.004070   0.511702  -0.024919
    24  H   -0.000068  -0.000090  -0.002046  -0.003563  -0.024919   0.539995
    25  H   -0.000030   0.000011  -0.000086  -0.000082  -0.002111  -0.002369
    26  H    0.000029  -0.000035  -0.000073   0.002453   0.003830  -0.002760
    27  H    0.000107   0.000000  -0.000000   0.000000  -0.000017  -0.000000
              25         26         27
     1  O    0.000000  -0.000000   0.009310
     2  N   -0.000000  -0.000000  -0.001775
     3  O    0.000000   0.000000   0.000113
     4  C    0.000019   0.000006  -0.066003
     5  C   -0.000001   0.000001   0.003272
     6  N   -0.000072  -0.000073   0.000002
     7  C    0.005006  -0.004991  -0.000267
     8  H   -0.000022   0.001888   0.000013
     9  C   -0.000359   0.001042  -0.000074
    10  C    0.004094  -0.002398   0.000004
    11  C   -0.034066  -0.041957   0.000002
    12  C    0.395662   0.394181  -0.000078
    13  C   -0.035011  -0.044019   0.005480
    14  H   -0.002659  -0.000665  -0.000129
    15  N    0.000678   0.004138  -0.053231
    16  C   -0.000033  -0.000067   0.402403
    17  H   -0.000000   0.000000  -0.000043
    18  H    0.000002  -0.000001   0.000002
    19  H   -0.000030   0.000029   0.000107
    20  H    0.000011  -0.000035   0.000000
    21  H   -0.000086  -0.000073  -0.000000
    22  H   -0.000082   0.002453   0.000000
    23  H   -0.002111   0.003830  -0.000017
    24  H   -0.002369  -0.002760  -0.000000
    25  H    0.511987  -0.023293  -0.000014
    26  H   -0.023293   0.559688   0.000002
    27  H   -0.000014   0.000002   0.451571
 Mulliken charges:
               1
     1  O   -0.456483
     2  N    0.502750
     3  O   -0.480297
     4  C    0.000529
     5  C    0.191816
     6  N   -0.806627
     7  C    0.074349
     8  H    0.175938
     9  C   -0.315419
    10  C   -0.320891
    11  C   -0.315667
    12  C   -0.312126
    13  C   -0.042447
    14  H    0.197769
    15  N   -0.450995
    16  C    0.074057
    17  H    0.281784
    18  H    0.396742
    19  H    0.189043
    20  H    0.154832
    21  H    0.172630
    22  H    0.150309
    23  H    0.189973
    24  H    0.163254
    25  H    0.182749
    26  H    0.153075
    27  H    0.249352
 Sum of Mulliken charges =  -0.00000
 Mulliken charges with hydrogens summed into heavy atoms:
               1
     1  O   -0.456483
     2  N    0.502750
     3  O   -0.480297
     4  C    0.000529
     5  C    0.473601
     6  N   -0.409885
     7  C    0.250287
     9  C    0.028457
    10  C    0.002048
    11  C    0.037560
    12  C    0.023698
    13  C    0.155322
    15  N   -0.450995
    16  C    0.323409
 Electronic spatial extent (au):  <R**2>=           3108.2934
 Charge=             -0.0000 electrons
 Dipole moment (field-independent basis, Debye):
    X=              5.1904    Y=              4.3412    Z=              0.3688  Tot=              6.7766
 Quadrupole moment (field-independent basis, Debye-Ang):
   XX=           -104.4260   YY=            -80.3298   ZZ=            -82.7950
   XY=             -2.3719   XZ=              2.1622   YZ=             -1.0468
 Traceless Quadrupole moment (field-independent basis, Debye-Ang):
   XX=            -15.2424   YY=              8.8538   ZZ=              6.3886
   XY=             -2.3719   XZ=              2.1622   YZ=             -1.0468
 Octapole moment (field-independent basis, Debye-Ang**2):
  XXX=             94.6192  YYY=             33.5926  ZZZ=             -1.7224  XYY=             -2.0901
  XXY=             13.3527  XXZ=             -8.3435  XZZ=             -7.5881  YZZ=             -1.6861
  YYZ=              0.4574  XYZ=             -1.5387
 Hexadecapole moment (field-independent basis, Debye-Ang**3):
 XXXX=          -3509.4032 YYYY=           -620.2063 ZZZZ=           -299.0821 XXXY=            -67.3467
 XXXZ=             99.6345 YYYX=            -38.1116 YYYZ=              3.6503 ZZZX=             56.9956
 ZZZY=              8.3597 XXYY=           -652.4171 XXZZ=           -544.4768 YYZZ=           -165.9259
 XXYZ=              0.5011 YYXZ=             21.4039 ZZXY=             -3.9611
 N-N= 9.190665144853D+02 E-N=-3.384145622928D+03  KE= 6.588811694030D+02
 Calling FoFJK, ICntrl=  10002127 FMM=F ISym2X=0 I1Cent= 0 IOpClX= 0 NMat=1 NMatS=1 NMatT=0.
 -------------------------------------------------------------------
 Center     Atomic                   Forces (Hartrees/Bohr)
 Number     Number              X              Y              Z
 -------------------------------------------------------------------
      1        8           0.001421194   -0.019838895   -0.004939886
      2        7           0.038238754    0.015140236   -0.005431857
      3        8          -0.004785503    0.014668867    0.005143178
      4        6           0.004813128    0.020270917    0.004355960
      5        6          -0.001006040   -0.016488031   -0.009219612
      6        7           0.016307089   -0.013830066   -0.005067466
      7        6          -0.006645894    0.007148963    0.005611365
      8        1          -0.008068935   -0.001260907   -0.007887506
      9        6          -0.004726909   -0.000419303   -0.001867895
     10        6           0.002975780   -0.000697989    0.001328610
     11        6          -0.001584786   -0.004394575   -0.002470971
     12        6           0.001470444   -0.008624407   -0.002789562
     13        6           0.021581207    0.003552183   -0.004245227
     14        1          -0.001547512    0.004045634   -0.012092675
     15        7           0.013670676    0.006615158    0.006940360
     16        6          -0.044027583   -0.025008755    0.049058922
     17        1           0.005719686   -0.003742595   -0.009603781
     18        1          -0.016457698   -0.001066281    0.009599270
     19        1           0.002716192    0.005812713    0.007931009
     20        1          -0.003546559   -0.007206420    0.002252537
     21        1          -0.004960522    0.002293698    0.009365067
     22        1          -0.003541845   -0.003872982   -0.007794500
     23        1           0.003535915    0.005786011    0.009526330
     24        1          -0.009209420    0.002767433   -0.002682706
     25        1          -0.000385023    0.010498346   -0.002224917
     26        1          -0.004694924   -0.004746362   -0.004659469
     27        1           0.002739087    0.012597409   -0.028134578
 -------------------------------------------------------------------
 Cartesian Forces:  Max     0.049058922 RMS     0.012309540

 GradGradGradGradGradGradGradGradGradGradGradGradGradGradGradGradGradGrad
 Berny optimization.
 FormGI is forming the generalized inverse of G from B-inverse, IUseBI=4.
 Internal  Forces:  Max     0.036618885 RMS     0.007383548
 Search for a local minimum.
 Step number   1 out of a maximum of   20
 All quantities printed in internal units (Hartrees-Bohrs-Radians)
 Mixed Optimization -- RFO/linear search
 Second derivative matrix not updated -- first step.
 ITU=  0
     Eigenvalues ---    0.00230   0.00763   0.01004   0.01125   0.01179
     Eigenvalues ---    0.01532   0.01591   0.01804   0.02008   0.02049
     Eigenvalues ---    0.02685   0.03630   0.04491   0.04681   0.04843
     Eigenvalues ---    0.05104   0.05137   0.05310   0.05906   0.06245
     Eigenvalues ---    0.07218   0.07703   0.07734   0.07897   0.07982
     Eigenvalues ---    0.08054   0.08111   0.10451   0.11730   0.12242
     Eigenvalues ---    0.13561   0.14284   0.15415   0.15788   0.15995
     Eigenvalues ---    0.19780   0.20819   0.21617   0.24993   0.25000
     Eigenvalues ---    0.25000   0.25392   0.26155   0.26643   0.27991
     Eigenvalues ---    0.28101   0.28474   0.29832   0.30416   0.31505
     Eigenvalues ---    0.32006   0.32231   0.32288   0.32380   0.32388
     Eigenvalues ---    0.32410   0.32498   0.32525   0.32542   0.32566
     Eigenvalues ---    0.32968   0.33384   0.35066   0.43781   0.43878
     Eigenvalues ---    0.47882   0.65513   0.90529   0.914151000.00000
     Eigenvalues --- 1000.000001000.000001000.000001000.000001000.00000
     Eigenvalues --- 1000.000001000.000001000.000001000.000001000.00000
     Eigenvalues --- 1000.000001000.000001000.000001000.000001000.00000
     Eigenvalues --- 1000.000001000.000001000.000001000.000001000.00000
     Eigenvalues --- 1000.000001000.000001000.000001000.000001000.00000
     Eigenvalues --- 1000.000001000.000001000.000001000.000001000.00000
     Eigenvalues --- 1000.000001000.000001000.000001000.000001000.00000
     Eigenvalues --- 1000.000001000.000001000.000001000.000001000.00000
     Eigenvalues --- 1000.000001000.000001000.000001000.000001000.00000
     Eigenvalues --- 1000.000001000.000001000.000001000.000001000.00000
     Eigenvalues --- 1000.000001000.000001000.000001000.000001000.00000
     Eigenvalues --- 1000.000001000.000001000.000001000.000001000.00000
     Eigenvalues --- 1000.000001000.000001000.000001000.000001000.00000
     Eigenvalues --- 1000.000001000.000001000.000001000.000001000.00000
     Eigenvalues --- 1000.000001000.000001000.000001000.000001000.00000
     Eigenvalues --- 1000.000001000.000001000.000001000.000001000.00000
     Eigenvalues --- 1000.000001000.000001000.000001000.000001000.00000
     Eigenvalues --- 1000.000001000.000001000.000001000.000001000.00000
     Eigenvalues --- 1000.000001000.00000
 RFO step:  Lambda=-2.41604865D-02 EMin= 2.30378797D-03
 Linear search not attempted -- first point.
 Iteration  1 RMS(Cart)=  0.05119835 RMS(Int)=  0.00125232
 Iteration  2 RMS(Cart)=  0.00135137 RMS(Int)=  0.00043266
 Iteration  3 RMS(Cart)=  0.00000123 RMS(Int)=  0.00043266
 Iteration  4 RMS(Cart)=  0.00000000 RMS(Int)=  0.00043266
 Iteration  1 RMS(Cart)=  0.00001138 RMS(Int)=  0.00000870
 Iteration  2 RMS(Cart)=  0.00000608 RMS(Int)=  0.00000958
 Iteration  3 RMS(Cart)=  0.00000365 RMS(Int)=  0.00001066
 Iteration  4 RMS(Cart)=  0.00000247 RMS(Int)=  0.00001147
 Iteration  5 RMS(Cart)=  0.00000183 RMS(Int)=  0.00001207
 Iteration  6 RMS(Cart)=  0.00000145 RMS(Int)=  0.00001254
 Iteration  7 RMS(Cart)=  0.00000119 RMS(Int)=  0.00001294
 Iteration  8 RMS(Cart)=  0.00000100 RMS(Int)=  0.00001327
 Iteration  9 RMS(Cart)=  0.00000086 RMS(Int)=  0.00001356
 Variable       Old X    -DE/DX   Delta X   Delta X   Delta X     New X
                                 (Linear)    (Quad)   (Total)
    R1        2.32288   0.01924   0.00000   0.02050   0.02050   2.34338
    R2        2.32690   0.01502   0.00000   0.01616   0.01616   2.34306
    R3        2.88299  -0.03662   0.00000  -0.11355  -0.11355   2.76944
    R4        2.64892  -0.03421   0.00000  -0.07366  -0.07350   2.57542
    R5        2.81284  -0.02061   0.00000  -0.07184  -0.07169   2.74115
    R6        2.59770  -0.02098   0.00000  -0.03540  -0.03529   2.56241
    R7        2.08382  -0.00971   0.00000  -0.02712  -0.02712   2.05670
    R8        2.83321  -0.01953   0.00000  -0.04636  -0.04619   2.78702
    R9        1.93301  -0.00697   0.00000  -0.01507  -0.01507   1.91794
   R10        2.11758  -0.01063   0.00000  -0.03134  -0.03134   2.08624
   R11        2.92552  -0.01377   0.00000  -0.04801  -0.04804   2.87749
   R12        2.90304  -0.00655   0.00000  -0.01811  -0.01786   2.88518
   R13        2.91046  -0.00476   0.00000  -0.01372  -0.01379   2.89667
   R14        2.09943  -0.00999   0.00000  -0.02860  -0.02860   2.07082
   R15        2.09893  -0.00791   0.00000  -0.02263  -0.02263   2.07630
   R16        2.90409  -0.00171   0.00000  -0.00610  -0.00616   2.89793
   R17        2.10139  -0.01059   0.00000  -0.03043  -0.03043   2.07096
   R18        2.10321  -0.00911   0.00000  -0.02624  -0.02624   2.07696
   R19        2.91842  -0.00948   0.00000  -0.02886  -0.02882   2.88960
   R20        2.10422  -0.01155   0.00000  -0.03333  -0.03333   2.07090
   R21        2.10100  -0.00995   0.00000  -0.02858  -0.02858   2.07242
   R22        2.93680  -0.01018   0.00000  -0.03620  -0.03613   2.90067
   R23        2.10154  -0.01059   0.00000  -0.03043  -0.03043   2.07110
   R24        2.09820  -0.00789   0.00000  -0.02256  -0.02256   2.07565
   R25        2.10832  -0.00955   0.00000  -0.02774  -0.02774   2.08058
   R26        2.77179  -0.00567   0.00000  -0.01294  -0.01343   2.75835
   R27        2.44309   0.01064   0.00000   0.00742   0.00709   2.45017
   R28        2.08788  -0.00475   0.00000   0.00170   0.00171   2.08960
    A1        2.16045   0.01021   0.00000   0.03728   0.03725   2.19770
    A2        2.05563  -0.00618   0.00000  -0.02252  -0.02255   2.03308
    A3        2.06706  -0.00402   0.00000  -0.01464  -0.01466   2.05240
    A4        2.04095  -0.00629   0.00000  -0.00874  -0.00929   2.03166
    A5        2.05915  -0.00530   0.00000  -0.00549  -0.00611   2.05304
    A6        2.18284   0.01155   0.00000   0.01289   0.01221   2.19505
    A7        2.18033   0.00545   0.00000   0.01525   0.01529   2.19562
    A8        2.07180  -0.00255   0.00000  -0.00631  -0.00642   2.06537
    A9        2.03048  -0.00281   0.00000  -0.00824  -0.00838   2.02210
   A10        2.23433  -0.00137   0.00000  -0.00242  -0.00263   2.23171
   A11        2.13529  -0.01407   0.00000  -0.07371  -0.07470   2.06059
   A12        1.89518   0.01551   0.00000   0.08654   0.08626   1.98143
   A13        1.83791  -0.00050   0.00000  -0.01124  -0.01102   1.82690
   A14        2.01156  -0.00270   0.00000  -0.00342  -0.00386   2.00770
   A15        1.95206   0.00179   0.00000  -0.01645  -0.01665   1.93541
   A16        1.85273   0.00292   0.00000   0.02309   0.02304   1.87578
   A17        1.85188   0.00010   0.00000   0.02166   0.02114   1.87302
   A18        1.94414  -0.00123   0.00000  -0.00854  -0.00818   1.93597
   A19        1.91020   0.00024   0.00000  -0.00840  -0.00860   1.90160
   A20        1.92214  -0.00086   0.00000  -0.01144  -0.01139   1.91075
   A21        1.92302  -0.00158   0.00000  -0.00670  -0.00661   1.91640
   A22        1.91875  -0.00040   0.00000   0.00658   0.00654   1.92529
   A23        1.90464   0.00302   0.00000   0.02544   0.02544   1.93009
   A24        1.88490  -0.00040   0.00000  -0.00500  -0.00527   1.87963
   A25        1.93914  -0.00071   0.00000   0.00468   0.00461   1.94375
   A26        1.91931  -0.00073   0.00000  -0.00651  -0.00652   1.91279
   A27        1.90525   0.00029   0.00000  -0.00236  -0.00243   1.90282
   A28        1.91636   0.00089   0.00000   0.00723   0.00727   1.92362
   A29        1.89875   0.00147   0.00000   0.01097   0.01098   1.90974
   A30        1.88403  -0.00120   0.00000  -0.01446  -0.01453   1.86950
   A31        1.94511  -0.00020   0.00000   0.00578   0.00585   1.95096
   A32        1.90193   0.00119   0.00000   0.00554   0.00556   1.90748
   A33        1.91784   0.00034   0.00000   0.00551   0.00546   1.92330
   A34        1.90542  -0.00085   0.00000  -0.01367  -0.01371   1.89171
   A35        1.91567  -0.00024   0.00000  -0.00041  -0.00047   1.91519
   A36        1.87648  -0.00024   0.00000  -0.00318  -0.00322   1.87326
   A37        1.95373  -0.00300   0.00000  -0.02191  -0.02187   1.93185
   A38        1.90511   0.00294   0.00000   0.01744   0.01729   1.92240
   A39        1.90858   0.00107   0.00000   0.01499   0.01489   1.92347
   A40        1.90547  -0.00012   0.00000  -0.00159  -0.00148   1.90399
   A41        1.90945   0.00010   0.00000  -0.00420  -0.00409   1.90537
   A42        1.88004  -0.00091   0.00000  -0.00409  -0.00429   1.87575
   A43        1.84333   0.00432   0.00000   0.02235   0.02228   1.86561
   A44        1.94908  -0.00556   0.00000  -0.03367  -0.03442   1.91466
   A45        1.97542   0.00380   0.00000   0.02474   0.02544   2.00086
   A46        1.86909   0.00378   0.00000   0.04384   0.04422   1.91331
   A47        1.89030  -0.00303   0.00000  -0.02766  -0.02803   1.86227
   A48        1.93046  -0.00285   0.00000  -0.02562  -0.02551   1.90496
   A49        2.05510  -0.00490   0.00000  -0.03042  -0.03104   2.02407
   A50        2.21773  -0.00566   0.00000  -0.01243  -0.01204   2.20569
   A51        1.93538   0.00879   0.00000  -0.00461  -0.00467   1.93071
   A52        1.93879   0.00911   0.00000   0.01385   0.01373   1.95252
    D1       -3.02009  -0.00140   0.00000  -0.06144  -0.06121  -3.08131
    D2        0.14414   0.00058   0.00000   0.00000  -0.00000   0.14414
    D3        0.13173  -0.00216   0.00000  -0.07491  -0.07480   0.05693
    D4       -2.98722  -0.00018   0.00000  -0.01348  -0.01359  -3.00081
    D5        3.08544   0.00277   0.00000   0.00258   0.00241   3.08785
    D6       -0.01820   0.00003   0.00000  -0.02022  -0.02071  -0.03891
    D7       -0.08059   0.00037   0.00000  -0.06400  -0.06474  -0.14532
    D8        3.09896  -0.00238   0.00000  -0.08681  -0.08786   3.01110
    D9       -0.41222   0.01671   0.00000   0.00000   0.00001  -0.41222
   D10       -2.43861  -0.01038   0.00000  -0.00827  -0.00886  -2.44748
   D11        0.01236   0.01345   0.00000  -0.00746  -0.00777   0.00459
   D12        0.72764  -0.00794   0.00000   0.05898   0.05906   0.78670
   D13       -3.10457   0.01589   0.00000   0.05979   0.06016  -3.04441
   D14       -0.41105   0.00130   0.00000   0.02647   0.02672  -0.38433
   D15        2.50156   0.00349   0.00000   0.10036   0.09794   2.59949
   D16        2.69339   0.00399   0.00000   0.04881   0.04936   2.74276
   D17       -0.67718   0.00617   0.00000   0.12270   0.12058  -0.55661
   D18       -2.24760  -0.00224   0.00000  -0.00118  -0.00059  -2.24819
   D19        2.00024  -0.00404   0.00000  -0.02029  -0.01952   1.98072
   D20       -0.24386  -0.00154   0.00000   0.01004   0.01015  -0.23371
   D21        1.09772  -0.00126   0.00000  -0.05102  -0.05253   1.04519
   D22       -0.93762  -0.00306   0.00000  -0.07014  -0.07146  -1.00908
   D23        3.10146  -0.00055   0.00000  -0.03981  -0.04179   3.05968
   D24        2.95536   0.00260   0.00000   0.03575   0.03559   2.99095
   D25       -1.21655   0.00172   0.00000   0.03130   0.03118  -1.18537
   D26        0.86097  -0.00029   0.00000   0.01382   0.01376   0.87473
   D27        0.92844   0.00277   0.00000   0.03614   0.03600   0.96444
   D28        3.03971   0.00188   0.00000   0.03169   0.03159   3.07131
   D29       -1.16596  -0.00013   0.00000   0.01420   0.01417  -1.15178
   D30       -1.07980   0.00161   0.00000   0.00163   0.00171  -1.07809
   D31        1.03148   0.00072   0.00000  -0.00282  -0.00269   1.02878
   D32        3.10899  -0.00128   0.00000  -0.02031  -0.02011   3.08888
   D33       -2.90865  -0.00206   0.00000  -0.00589  -0.00542  -2.91407
   D34       -0.88287   0.00213   0.00000   0.04216   0.04204  -0.84083
   D35        1.30937  -0.00320   0.00000   0.00000   0.00000   1.30937
   D36       -0.91350  -0.00170   0.00000  -0.01507  -0.01498  -0.92848
   D37        1.11228   0.00249   0.00000   0.03298   0.03248   1.14476
   D38       -2.97867  -0.00284   0.00000  -0.00918  -0.00955  -2.98822
   D39        1.09527   0.00120   0.00000   0.02032   0.02047   1.11574
   D40        3.12105   0.00539   0.00000   0.06837   0.06792  -3.09422
   D41       -0.96990   0.00006   0.00000   0.02621   0.02589  -0.94401
   D42        0.95666   0.00031   0.00000   0.00000   0.00001   0.95667
   D43        3.08198   0.00047   0.00000   0.00783   0.00781   3.08979
   D44       -1.13733  -0.00126   0.00000  -0.01500  -0.01496  -1.15229
   D45       -1.15668   0.00147   0.00000   0.01535   0.01542  -1.14126
   D46        0.96864   0.00163   0.00000   0.02318   0.02322   0.99187
   D47        3.03252  -0.00010   0.00000   0.00034   0.00045   3.03297
   D48        3.06227   0.00038   0.00000   0.00232   0.00224   3.06451
   D49       -1.09560   0.00054   0.00000   0.01016   0.01005  -1.08555
   D50        0.96828  -0.00118   0.00000  -0.01268  -0.01273   0.95556
   D51       -0.92192  -0.00087   0.00000   0.00000   0.00001  -0.92191
   D52        1.18193  -0.00127   0.00000  -0.00974  -0.00973   1.17221
   D53       -3.04936  -0.00067   0.00000  -0.00715  -0.00716  -3.05652
   D54       -3.04897  -0.00008   0.00000   0.00019   0.00020  -3.04877
   D55       -0.94511  -0.00048   0.00000  -0.00955  -0.00954  -0.95465
   D56        1.10678   0.00012   0.00000  -0.00696  -0.00697   1.09981
   D57        1.17591  -0.00000   0.00000   0.00705   0.00707   1.18299
   D58       -3.00342  -0.00041   0.00000  -0.00269  -0.00266  -3.00608
   D59       -0.95152   0.00020   0.00000  -0.00010  -0.00010  -0.95162
   D60        0.98592  -0.00019   0.00000  -0.01207  -0.01201   0.97391
   D61        3.09746  -0.00028   0.00000  -0.01641  -0.01652   3.08095
   D62       -1.13302   0.00093   0.00000  -0.00264  -0.00254  -1.13556
   D63       -1.11588  -0.00098   0.00000  -0.01362  -0.01356  -1.12944
   D64        0.99566  -0.00108   0.00000  -0.01796  -0.01806   0.97760
   D65        3.04837   0.00013   0.00000  -0.00419  -0.00409   3.04428
   D66        3.11461  -0.00006   0.00000  -0.00151  -0.00147   3.11314
   D67       -1.05703  -0.00015   0.00000  -0.00585  -0.00597  -1.06300
   D68        0.99568   0.00106   0.00000   0.00792   0.00800   1.00368
   D69       -1.04282  -0.00097   0.00000  -0.00345  -0.00344  -1.04625
   D70       -3.12242   0.00141   0.00000   0.00257   0.00205  -3.12037
   D71        1.07837   0.00432   0.00000   0.02356   0.02378   1.10215
   D72        3.12903  -0.00264   0.00000  -0.01011  -0.01005   3.11899
   D73        1.04943  -0.00027   0.00000  -0.00410  -0.00456   1.04487
   D74       -1.03296   0.00265   0.00000   0.01689   0.01717  -1.01579
   D75        1.07562  -0.00153   0.00000  -0.00182  -0.00170   1.07392
   D76       -1.00399   0.00085   0.00000   0.00419   0.00379  -1.00019
   D77       -3.08638   0.00376   0.00000   0.02518   0.02552  -3.06086
   D78       -1.17214   0.00584   0.00000   0.00000   0.00000  -1.17214
   D79        3.07335   0.00024   0.00000  -0.02425  -0.02394   3.04941
   D80        1.03005  -0.00093   0.00000  -0.04641  -0.04678   0.98327
   D81       -0.06455   0.00710   0.00000  -0.02669  -0.02637  -0.09092
   D82       -2.51444  -0.01665   0.00000  -0.02161  -0.02150  -2.53594
         Item               Value     Threshold  Converged?
 Maximum Force            0.036619     0.000450     NO 
 RMS     Force            0.006737     0.000300     NO 
 Maximum Displacement     0.268613     0.001800     NO 
 RMS     Displacement     0.051554     0.001200     NO 
 Predicted change in Energy=-1.397436D-02
 GradGradGradGradGradGradGradGradGradGradGradGradGradGradGradGradGradGrad

                          Input orientation:                          
 ---------------------------------------------------------------------
 Center     Atomic      Atomic             Coordinates (Angstroms)
 Number     Number       Type             X           Y           Z
 ---------------------------------------------------------------------
      1          8           0       -3.430749   -1.507024   -0.098944
      2          7           0       -3.109238   -0.331808    0.131819
      3          8           0       -3.872546    0.571285    0.504814
      4          6           0       -1.695425    0.007254   -0.052382
      5          6           0       -1.330169    1.279733    0.271280
      6          7           0       -0.069514    1.777539    0.231366
      7          6           0        1.200933    1.030069    0.280008
      8          1           0        1.784756    1.522470    1.077183
      9          6           0        2.030703    1.086123   -0.995513
     10          6           0        3.401605    0.455651   -0.725761
     11          6           0        3.262747   -0.965305   -0.166048
     12          6           0        2.341189   -1.007252    1.053439
     13          6           0        0.966352   -0.414564    0.714796
     14          1           0        0.324997   -0.433427    1.609500
     15          7           0        0.381381   -1.271703   -0.311715
     16          6           0       -0.836928   -0.993379   -0.657209
     17          1           0       -2.102510    1.969515    0.606271
     18          1           0        0.048152    2.763166    0.019757
     19          1           0        1.512116    0.542117   -1.792992
     20          1           0        2.142663    2.129496   -1.321170
     21          1           0        3.988584    0.442485   -1.651119
     22          1           0        3.947754    1.080501   -0.005160
     23          1           0        2.843452   -1.619449   -0.938852
     24          1           0        4.248458   -1.365129    0.100812
     25          1           0        2.211946   -2.041093    1.393501
     26          1           0        2.783989   -0.440036    1.883285
     27          1           0       -1.413705   -1.904234   -0.902957
 ---------------------------------------------------------------------
                    Distance matrix (angstroms):
                    1          2          3          4          5
     1  O    0.000000
     2  N    1.240062   0.000000
     3  O    2.208864   1.239896   0.000000
     4  C    2.303596   1.465524   2.316992   0.000000
     5  C    3.509348   2.404497   2.649551   1.362855   0.000000
     6  N    4.711195   3.701240   3.999109   2.420332   1.355969
     7  C    5.294612   4.522637   5.099138   3.089583   2.543400
     8  H    6.145128   5.318199   5.765190   3.960234   3.226632
     9  C    6.111931   5.449808   6.112642   3.992178   3.596902
    10  C    7.136249   6.614123   7.378412   5.160835   4.905393
    11  C    6.715717   6.410323   7.329637   5.053936   5.130919
    12  C    5.907032   5.568911   6.434538   4.306544   4.395559
    13  C    4.603275   4.117905   4.942765   2.802062   2.888140
    14  H    4.263452   3.740032   4.455238   2.652953   2.732274
    15  N    3.825309   3.642053   4.707359   2.452776   3.127158
    16  C    2.702480   2.494722   3.607416   1.450552   2.504480
    17  H    3.787858   2.556305   2.257957   2.109504   1.088360
    18  H    5.509208   4.422730   4.517909   3.261950   2.040491
    19  H    5.612547   5.081885   5.854515   3.688376   3.589412
    20  H    6.766169   5.979269   6.476494   4.565595   3.913892
    21  H    7.826642   7.359176   8.152423   5.920587   5.717143
    22  H    7.819616   7.198231   7.853437   5.744525   5.288911
    23  H    6.331168   6.183759   7.210279   4.902387   5.223867
    24  H    7.683116   7.429968   8.358447   6.102185   6.176199
    25  H    5.861112   5.729616   6.680968   4.642613   4.983357
    26  H    6.609892   6.148941   6.872585   4.900207   4.741568
    27  H    2.207415   2.533401   3.762435   2.111074   3.394623
                    6          7          8          9         10
     6  N    0.000000
     7  C    1.474827   0.000000
     8  H    2.053968   1.103991   0.000000
     9  C    2.528675   1.522700   2.132360   0.000000
    10  C    3.835642   2.486863   2.646301   1.532852   0.000000
    11  C    4.334178   2.903715   3.149462   2.532648   1.533518
    12  C    3.773904   2.459482   2.590304   2.945645   2.535768
    13  C    2.472253   1.526771   2.133825   2.511983   2.960225
    14  H    2.635007   2.162552   2.497957   3.464760   3.963511
    15  N    3.129875   2.513952   3.421389   2.957564   3.503846
    16  C    3.009398   3.020859   4.026268   3.558382   4.479905
    17  H    2.076169   3.449890   3.941121   4.519905   5.861857
    18  H    1.014931   2.097680   2.381862   2.788145   4.138365
    19  H    2.850587   2.152269   3.045214   1.095832   2.171780
    20  H    2.725430   2.158557   2.499735   1.098733   2.177431
    21  H    4.668434   3.441730   3.669721   2.162727   1.095904
    22  H    4.084146   2.762045   2.458732   2.157757   1.099082
    23  H    4.625398   3.347153   3.880320   2.825578   2.159394
    24  H    5.342125   3.880270   3.919357   3.482673   2.171549
    25  H    4.597561   3.419656   3.602989   3.939507   3.484292
    26  H    3.973532   2.690311   2.345144   3.344261   2.826805
    27  H    4.080317   4.104372   5.088557   4.562319   5.365414
                   11         12         13         14         15
    11  C    0.000000
    12  C    1.529110   0.000000
    13  C    2.520443   1.534971   0.000000
    14  H    3.473593   2.168758   1.100995   0.000000
    15  N    2.901270   2.403003   1.459658   2.096892   0.000000
    16  C    4.129087   3.609285   2.338641   2.607985   1.296575
    17  H    6.164059   5.367267   3.887611   3.559969   4.185440
    18  H    4.926423   4.532391   3.379961   3.580801   4.062153
    19  H    2.825593   3.345157   2.738995   3.733348   2.600516
    20  H    3.488079   3.939209   3.464261   4.296663   3.960968
    21  H    2.171209   3.482855   3.932679   4.982041   4.212404
    22  H    2.163434   2.839084   3.412084   4.245407   4.283206
    23  H    1.095873   2.143892   2.776653   3.774038   2.564375
    24  H    1.096677   2.161770   3.471711   4.305550   3.890140
    25  H    2.166494   1.095980   2.158181   2.488338   2.617382
    26  H    2.169075   1.098386   2.160977   2.474196   3.358902
    27  H    4.826368   4.327966   3.240511   3.390988   1.992987
                   16         17         18         19         20
    16  C    0.000000
    17  H    3.460754   0.000000
    18  H    3.918326   2.366269   0.000000
    19  H    3.027500   4.567214   3.219053   0.000000
    20  H    4.367053   4.664988   2.566436   1.771999   0.000000
    21  H    5.131776   6.673009   4.868715   2.482529   2.522360
    22  H    5.255409   6.145721   4.247220   3.068963   2.467919
    23  H    3.743859   6.303221   5.285824   2.678503   3.832996
    24  H    5.154993   7.190976   5.889989   3.835577   4.320743
    25  H    3.820831   5.942998   5.445189   4.161306   4.976751
    26  H    4.457728   5.595942   4.606305   4.012144   4.157202
    27  H    1.105768   4.214042   4.977254   3.916277   5.393852
                   21         22         23         24         25
    21  H    0.000000
    22  H    1.765761   0.000000
    23  H    2.463782   3.062841   0.000000
    24  H    2.530665   2.466326   1.766245   0.000000
    25  H    4.312112   3.835835   2.452846   2.505066   0.000000
    26  H    3.836913   2.689351   3.059249   2.485494   1.769323
    27  H    5.937302   6.201607   4.266823   5.775663   4.293926
                   26         27
    26  H    0.000000
    27  H    5.246681   0.000000
 Symmetry turned off by external request.
 Stoichiometry    C9H13N3O2
 Framework group  C1[X(C9H13N3O2)]
 Deg. of freedom    75
 Full point group                 C1      NOp   1
 Rotational constants (GHZ):           1.7049433           0.4222604           0.3724329
 Standard basis: 6-31G(d) (6D, 7F)
   236 basis functions,   444 primitive gaussians,   236 cartesian basis functions
    52 alpha electrons       52 beta electrons
       nuclear repulsion energy       932.8660534022 Hartrees.
 NAtoms=   27 NActive=   27 NUniq=   27 SFac= 1.00D+00 NAtFMM=   60 NAOKFM=F Big=F
 Integral buffers will be    131072 words long.
 Raffenetti 1 integral format.
 Two-electron integral symmetry is turned off.
 One-electron integrals computed using PRISM.
 NBasis=   236 RedAO= T EigKep=  1.05D-03  NBF=   236
 NBsUse=   236 1.00D-06 EigRej= -1.00D+00 NBFU=   236
 Initial guess from the checkpoint file:  "/home/alexey/tmp/Gau-1272953.chk"
 B after Tr=     0.053988   -0.001827    0.005531
         Rot=    0.999999   -0.000735   -0.001262   -0.000170 Ang=  -0.17 deg.
 ExpMin= 1.61D-01 ExpMax= 5.48D+03 ExpMxC= 8.25D+02 IAcc=3 IRadAn=         5 AccDes= 0.00D+00
 Harris functional with IExCor=  205 and IRadAn=       5 diagonalized for initial guess.
 HarFok:  IExCor=  205 AccDes= 0.00D+00 IRadAn=         5 IDoV= 1 UseB2=F ITyADJ=14
 ICtDFT=  3500011 ScaDFX=  1.000000  1.000000  1.000000  1.000000
 FoFCou: FMM=F IPFlag=           0 FMFlag=      100000 FMFlg1=           0
         NFxFlg=           0 DoJE=T BraDBF=F KetDBF=T FulRan=T
         wScrn=  0.000000 ICntrl=       500 IOpCl=  0 I1Cent=   200000004 NGrid=           0
         NMat0=    1 NMatS0=      1 NMatT0=    0 NMatD0=    1 NMtDS0=    0 NMtDT0=    0
 Symmetry not used in FoFCou.
 Keep R1 ints in memory in canonical form, NReq=397720213.
 Requested convergence on RMS density matrix=1.00D-08 within 128 cycles.
 Requested convergence on MAX density matrix=1.00D-06.
 Requested convergence on             energy=1.00D-06.
 No special actions if energy rises.
 SCF Done:  E(RHF) =  -661.269286311     A.U. after   15 cycles
            NFock= 15  Conv=0.47D-08     -V/T= 2.0025
 ExpMin= 1.61D-01 ExpMax= 5.48D+03 ExpMxC= 8.25D+02 IAcc=3 IRadAn=         5 AccDes= 0.00D+00
 HarFok:  IExCor=  205 AccDes= 0.00D+00 IRadAn=         5 IDoV=-2 UseB2=F ITyADJ=14
 ICtDFT= 12500011 ScaDFX=  1.000000  1.000000  1.000000  1.000000
 Range of M.O.s used for correlation:    15   236
 NBasis=   236 NAE=    52 NBE=    52 NFC=    14 NFV=     0
 NROrb=    222 NOA=    38 NOB=    38 NVA=   184 NVB=   184
 Fully direct method using O(ONN) memory.
 JobTyp=1 Pass  1:  I=  15 to  52 NPSUse=  4 ParTrn=T ParDer=T DoDerP=T.
 Spin components of T(2) and E(2):
     alpha-alpha T2 =       0.9189448684D-01 E2=     -0.2732427943D+00
     alpha-beta  T2 =       0.4959217629D+00 E2=     -0.1492907421D+01
     beta-beta   T2 =       0.9189448684D-01 E2=     -0.2732427943D+00
 ANorm=    0.1296036549D+01
 E2 =    -0.2039393009D+01 EUMP2 =    -0.66330867932081D+03
          IDoAtm=111111111111111111111111111
          Differentiating once with respect to electric field.
                with respect to dipole field.
          Differentiating once with respect to nuclear coordinates.
 Keep R1 ints in memory in canonical form, NReq=397723379.
          There are     1 degrees of freedom in the 1st order CPHF.  IDoFFX=0 NUNeed=     1.
 LinEq1:  Iter=  0 NonCon=     1 RMS=4.60D-03 Max=9.83D-02 NDo=     1
 AX will form     1 AO Fock derivatives at one time.
 LinEq1:  Iter=  1 NonCon=     1 RMS=1.55D-03 Max=3.17D-02 NDo=     1
 LinEq1:  Iter=  2 NonCon=     1 RMS=6.48D-04 Max=1.63D-02 NDo=     1
 LinEq1:  Iter=  3 NonCon=     1 RMS=2.87D-04 Max=7.52D-03 NDo=     1
 LinEq1:  Iter=  4 NonCon=     1 RMS=8.99D-05 Max=1.99D-03 NDo=     1
 LinEq1:  Iter=  5 NonCon=     1 RMS=3.71D-05 Max=1.70D-03 NDo=     1
 LinEq1:  Iter=  6 NonCon=     1 RMS=1.51D-05 Max=6.61D-04 NDo=     1
[...]
    27  H    4.797374   4.329375   3.248938   3.395006   1.989765
                   16         17         18         19         20
    16  C    0.000000
    17  H    3.437168   0.000000
    18  H    3.993796   2.227723   0.000000
    19  H    2.990243   4.486472   3.497572   0.000000
    20  H    4.349333   4.617107   2.878710   1.769205   0.000000
    21  H    5.107112   6.633285   5.082959   2.500679   2.522392
    22  H    5.234346   6.130485   4.316312   3.071382   2.463052
    23  H    3.728161   6.283764   5.409560   2.702401   3.842177
    24  H    5.148794   7.193170   5.932753   3.849242   4.318163
    25  H    3.820382   5.974267   5.364625   4.169098   4.987453
    26  H    4.471968   5.654399   4.493223   4.041812   4.193176
    27  H    1.104825   4.208571   5.054922   3.857955   5.359635
                   21         22         23         24         25
    21  H    0.000000
    22  H    1.758744   0.000000
    23  H    2.467968   3.062218   0.000000
    24  H    2.516493   2.460726   1.764345   0.000000
    25  H    4.312097   3.844252   2.441292   2.520772   0.000000
    26  H    3.852942   2.714286   3.060693   2.491816   1.767450
    27  H    5.886782   6.167150   4.225148   5.753394   4.290175
                   26         27
    26  H    0.000000
    27  H    5.258021   0.000000
 Symmetry turned off by external request.
 Stoichiometry    C9H13N3O2
 Framework group  C1[X(C9H13N3O2)]
 Deg. of freedom    75
 Full point group                 C1      NOp   1
 Rotational constants (GHZ):           1.7104514           0.4173568           0.3709522

 **********************************************************************

            Population analysis using the SCF Density.

 **********************************************************************

 Alpha  occ. eigenvalues --  -20.59374 -20.59013 -15.84935 -15.64131 -15.56761
 Alpha  occ. eigenvalues --  -11.35204 -11.29833 -11.29115 -11.28523 -11.27052
 Alpha  occ. eigenvalues --  -11.23780 -11.23286 -11.22766 -11.22187  -1.57272
 Alpha  occ. eigenvalues --   -1.36853  -1.30767  -1.23130  -1.14742  -1.09832
 Alpha  occ. eigenvalues --   -1.02836  -1.01265  -0.94381  -0.89722  -0.85616
 Alpha  occ. eigenvalues --   -0.82371  -0.78506  -0.77361  -0.74916  -0.71978
 Alpha  occ. eigenvalues --   -0.69805  -0.69551  -0.67954  -0.64361  -0.63730
 Alpha  occ. eigenvalues --   -0.62397  -0.59862  -0.57605  -0.56673  -0.54926
 Alpha  occ. eigenvalues --   -0.54799  -0.50595  -0.49976  -0.48826  -0.48119
 Alpha  occ. eigenvalues --   -0.47467  -0.46474  -0.45564  -0.43805  -0.42129
 Alpha  occ. eigenvalues --   -0.40015  -0.33523
 Alpha virt. eigenvalues --    0.07165   0.10521   0.17395   0.21805   0.23839
 Alpha virt. eigenvalues --    0.24901   0.26768   0.27963   0.28971   0.29410
 Alpha virt. eigenvalues --    0.30579   0.31933   0.32337   0.32748   0.33842
 Alpha virt. eigenvalues --    0.34255   0.35983   0.37166   0.38446   0.40049
 Alpha virt. eigenvalues --    0.41433   0.43002   0.45106   0.45914   0.46498
 Alpha virt. eigenvalues --    0.47062   0.49033   0.53002   0.57063   0.59919
 Alpha virt. eigenvalues --    0.63496   0.69333   0.70282   0.72757   0.73709
 Alpha virt. eigenvalues --    0.75335   0.76155   0.76979   0.78503   0.79625
 Alpha virt. eigenvalues --    0.81017   0.82652   0.85395   0.86361   0.88396
 Alpha virt. eigenvalues --    0.88771   0.89977   0.91106   0.92550   0.94502
 Alpha virt. eigenvalues --    0.96577   0.98259   0.98895   1.01558   1.02400
 Alpha virt. eigenvalues --    1.02790   1.05494   1.06731   1.08195   1.08834
 Alpha virt. eigenvalues --    1.09289   1.11327   1.11672   1.13356   1.13805
 Alpha virt. eigenvalues --    1.14116   1.14676   1.15564   1.16596   1.17824
 Alpha virt. eigenvalues --    1.19105   1.20110   1.21272   1.23338   1.24058
 Alpha virt. eigenvalues --    1.24873   1.26346   1.27428   1.28737   1.28874
 Alpha virt. eigenvalues --    1.30960   1.33884   1.34759   1.36527   1.39433
 Alpha virt. eigenvalues --    1.40846   1.44088   1.48045   1.49799   1.52861
 Alpha virt. eigenvalues --    1.55553   1.58568   1.61080   1.62128   1.66486
 Alpha virt. eigenvalues --    1.68803   1.70351   1.72683   1.74379   1.78783
 Alpha virt. eigenvalues --    1.82325   1.83128   1.85840   1.91835   1.93762
 Alpha virt. eigenvalues --    1.96165   1.96757   1.99058   2.00833   2.04011
 Alpha virt. eigenvalues --    2.04711   2.05984   2.09031   2.12141   2.13047
 Alpha virt. eigenvalues --    2.14135   2.15462   2.16522   2.20295   2.21632
 Alpha virt. eigenvalues --    2.22274   2.25237   2.27139   2.28502   2.29858
 Alpha virt. eigenvalues --    2.30242   2.33250   2.35419   2.36492   2.38943
 Alpha virt. eigenvalues --    2.39441   2.42563   2.43434   2.46389   2.48988
 Alpha virt. eigenvalues --    2.49675   2.51419   2.53531   2.56862   2.61669
 Alpha virt. eigenvalues --    2.63105   2.63915   2.68518   2.70775   2.72153
 Alpha virt. eigenvalues --    2.73375   2.74161   2.76299   2.78638   2.84387
 Alpha virt. eigenvalues --    2.87092   2.87704   2.91826   2.93552   2.96721
 Alpha virt. eigenvalues --    2.98542   3.01752   3.02678   3.03740   3.07432
 Alpha virt. eigenvalues --    3.08855   3.13905   3.21278   3.24977   3.26748
 Alpha virt. eigenvalues --    3.33494   3.35490   3.37927   3.51388   3.61358
 Alpha virt. eigenvalues --    4.12985   4.27825   4.31830   4.36702   4.43404
 Alpha virt. eigenvalues --    4.57542   4.61802   4.63334   4.73337   4.79078
 Alpha virt. eigenvalues --    4.97503   5.00693   5.03301   5.12941
          Condensed to atoms (all electrons):
               1          2          3          4          5          6
     1  O    8.318088   0.301256  -0.080133  -0.078058   0.004560  -0.000015
     2  N    0.301256   5.730878   0.300350   0.263206  -0.048414   0.001108
     3  O   -0.080133   0.300350   8.347019  -0.090973   0.003672   0.000723
     4  C   -0.078058   0.263206  -0.090973   5.235599   0.530852  -0.048994
     5  C    0.004560  -0.048414   0.003672   0.530852   4.725409   0.322945
     6  N   -0.000015   0.001108   0.000723  -0.048994   0.322945   7.189267
     7  C    0.000003  -0.000095   0.000004   0.002506  -0.029616   0.168084
     8  H   -0.000000   0.000002  -0.000000  -0.000305   0.002544  -0.052104
     9  C   -0.000000  -0.000001   0.000000   0.001002   0.000867  -0.056521
    10  C   -0.000000   0.000000   0.000000  -0.000033  -0.000053   0.003615
    11  C   -0.000000  -0.000000  -0.000000  -0.000032   0.000022  -0.000207
    12  C   -0.000000   0.000003  -0.000000   0.000187  -0.000139   0.004019
    13  C   -0.000027  -0.000162  -0.000006  -0.019184   0.000558  -0.049082
    14  H   -0.000009  -0.000157  -0.000005   0.004942   0.008452  -0.008851
    15  N    0.000353   0.002270  -0.000014  -0.064753  -0.005064   0.001820
    16  C   -0.007881  -0.026178   0.002411   0.329177  -0.055477  -0.001256
    17  H    0.000168  -0.007059   0.015645  -0.024328   0.377234  -0.036291
    18  H    0.000001  -0.000049   0.000009   0.001800  -0.031831   0.337051
    19  H    0.000000  -0.000002   0.000000  -0.001014   0.000767   0.000230
    20  H    0.000000  -0.000000   0.000000  -0.000055   0.000131  -0.000966
    21  H   -0.000000   0.000000   0.000000   0.000000   0.000001  -0.000069
    22  H   -0.000000   0.000000  -0.000000  -0.000000  -0.000003  -0.000115
    23  H    0.000000  -0.000000   0.000000   0.000032  -0.000001  -0.000030
    24  H    0.000000   0.000000   0.000000   0.000000  -0.000000   0.000006
    25  H    0.000000  -0.000000   0.000000   0.000020  -0.000001  -0.000094
    26  H   -0.000000  -0.000000   0.000000   0.000004   0.000001  -0.000058
    27  H    0.010383  -0.003623   0.000137  -0.065840   0.004227  -0.000083
               7          8          9         10         11         12
     1  O    0.000003  -0.000000  -0.000000  -0.000000  -0.000000  -0.000000
     2  N   -0.000095   0.000002  -0.000001   0.000000  -0.000000   0.000003
     3  O    0.000004  -0.000000   0.000000   0.000000  -0.000000  -0.000000
     4  C    0.002506  -0.000305   0.001002  -0.000033  -0.000032   0.000187
     5  C   -0.029616   0.002544   0.000867  -0.000053   0.000022  -0.000139
     6  N    0.168084  -0.052104  -0.056521   0.003615  -0.000207   0.004019
     7  C    5.011962   0.416163   0.348352  -0.055299  -0.008942  -0.058975
     8  H    0.416163   0.542042  -0.055717   0.001031  -0.000321  -0.002495
     9  C    0.348352  -0.055717   5.158967   0.323250  -0.050244  -0.005428
    10  C   -0.055299   0.001031   0.323250   5.122833   0.336402  -0.060193
    11  C   -0.008942  -0.000321  -0.050244   0.336402   5.120415   0.336428
    12  C   -0.058975  -0.002495  -0.005428  -0.060193   0.336428   5.117730
    13  C    0.343862  -0.038395  -0.059434  -0.000638  -0.052173   0.365722
    14  H   -0.046317  -0.000164   0.004258  -0.000381   0.004056  -0.034878
    15  N   -0.058519   0.003952  -0.014622   0.001648  -0.012201  -0.081112
    16  C   -0.002187  -0.000007  -0.001900   0.000010  -0.000046   0.003605
    17  H    0.001627  -0.000035  -0.000074   0.000001   0.000000  -0.000000
    18  H   -0.021348  -0.003922   0.001035  -0.000088   0.000004  -0.000123
    19  H   -0.037784   0.004491   0.388989  -0.031686  -0.002239   0.000651
    20  H   -0.041669  -0.002006   0.399310  -0.035395   0.003913  -0.000396
    21  H    0.004631  -0.000083  -0.036252   0.402578  -0.034796   0.004284
    22  H   -0.004897   0.003547  -0.046521   0.397422  -0.045380  -0.001027
    23  H    0.000542   0.000033  -0.001865  -0.039286   0.399496  -0.037979
    24  H   -0.000119  -0.000097   0.004333  -0.038318   0.402324  -0.038460
    25  H    0.005200  -0.000037  -0.000421   0.004155  -0.033556   0.398909
    26  H   -0.004562   0.001856   0.001002  -0.002167  -0.041006   0.396658
    27  H   -0.000223   0.000012  -0.000087   0.000006   0.000003  -0.000096
              13         14         15         16         17         18
     1  O   -0.000027  -0.000009   0.000353  -0.007881   0.000168   0.000001
     2  N   -0.000162  -0.000157   0.002270  -0.026178  -0.007059  -0.000049
     3  O   -0.000006  -0.000005  -0.000014   0.002411   0.015645   0.000009
     4  C   -0.019184   0.004942  -0.064753   0.329177  -0.024328   0.001800
     5  C    0.000558   0.008452  -0.005064  -0.055477   0.377234  -0.031831
     6  N   -0.049082  -0.008851   0.001820  -0.001256  -0.036291   0.337051
     7  C    0.343862  -0.046317  -0.058519  -0.002187   0.001627  -0.021348
     8  H   -0.038395  -0.000164   0.003952  -0.000007  -0.000035  -0.003922
     9  C   -0.059434   0.004258  -0.014622  -0.001900  -0.000074   0.001035
    10  C   -0.000638  -0.000381   0.001648   0.000010   0.000001  -0.000088
    11  C   -0.052173   0.004056  -0.012201  -0.000046   0.000000   0.000004
    12  C    0.365722  -0.034878  -0.081112   0.003605  -0.000000  -0.000123
    13  C    5.058655   0.402314   0.251399  -0.067979   0.000045   0.003133
    14  H    0.402314   0.525558  -0.038353  -0.010045   0.000182  -0.000111
    15  N    0.251399  -0.038353   6.962844   0.547273  -0.000138  -0.000113
    16  C   -0.067979  -0.010045   0.547273   4.822044   0.002443  -0.000167
    17  H    0.000045   0.000182  -0.000138   0.002443   0.385203  -0.003042
    18  H    0.003133  -0.000111  -0.000113  -0.000167  -0.003042   0.315595
    19  H   -0.006899   0.000158   0.008404   0.003585   0.000013  -0.000138
    20  H    0.004297  -0.000062   0.000131  -0.000026   0.000005   0.000858
    21  H   -0.000402   0.000010  -0.000039   0.000002  -0.000000   0.000001
    22  H    0.000081  -0.000054   0.000017  -0.000001   0.000000   0.000001
    23  H   -0.007356  -0.000001   0.008161   0.000024   0.000000   0.000000
    24  H    0.004690  -0.000053   0.000127   0.000007   0.000000  -0.000000
    25  H   -0.035936  -0.002787   0.000190   0.000022   0.000000   0.000002
    26  H   -0.046420  -0.000849   0.004698  -0.000087   0.000000  -0.000001
    27  H    0.005659  -0.000194  -0.051549   0.404926  -0.000061   0.000001
              19         20         21         22         23         24
     1  O    0.000000   0.000000  -0.000000  -0.000000   0.000000   0.000000
     2  N   -0.000002  -0.000000   0.000000   0.000000  -0.000000   0.000000
     3  O    0.000000   0.000000   0.000000  -0.000000   0.000000   0.000000
     4  C   -0.001014  -0.000055   0.000000  -0.000000   0.000032   0.000000
     5  C    0.000767   0.000131   0.000001  -0.000003  -0.000001  -0.000000
     6  N    0.000230  -0.000966  -0.000069  -0.000115  -0.000030   0.000006
     7  C   -0.037784  -0.041669   0.004631  -0.004897   0.000542  -0.000119
     8  H    0.004491  -0.002006  -0.000083   0.003547   0.000033  -0.000097
     9  C    0.388989   0.399310  -0.036252  -0.046521  -0.001865   0.004333
    10  C   -0.031686  -0.035395   0.402578   0.397422  -0.039286  -0.038318
    11  C   -0.002239   0.003913  -0.034796  -0.045380   0.399496   0.402324
    12  C    0.000651  -0.000396   0.004284  -0.001027  -0.037979  -0.038460
    13  C   -0.006899   0.004297  -0.000402   0.000081  -0.007356   0.004690
    14  H    0.000158  -0.000062   0.000010  -0.000054  -0.000001  -0.000053
    15  N    0.008404   0.000131  -0.000039   0.000017   0.008161   0.000127
    16  C    0.003585  -0.000026   0.000002  -0.000001   0.000024   0.000007
    17  H    0.000013   0.000005  -0.000000   0.000000   0.000000   0.000000
    18  H   -0.000138   0.000858   0.000001   0.000001   0.000000  -0.000000
    19  H    0.501847  -0.024172  -0.002789   0.003905   0.001502  -0.000061
    20  H   -0.024172   0.539843  -0.002630  -0.002955  -0.000047  -0.000082
    21  H   -0.002789  -0.002630   0.522605  -0.027281  -0.002909  -0.002233
    22  H    0.003905  -0.002955  -0.027281   0.570597   0.004141  -0.003644
    23  H    0.001502  -0.000047  -0.002909   0.004141   0.499622  -0.025383
    24  H   -0.000061  -0.000082  -0.002233  -0.003644  -0.025383   0.537006
    25  H   -0.000031   0.000012  -0.000086  -0.000079  -0.002380  -0.002255
    26  H    0.000022  -0.000029  -0.000080   0.002339   0.004031  -0.003043
    27  H    0.000125   0.000000  -0.000000   0.000000  -0.000026  -0.000000
              25         26         27
     1  O    0.000000  -0.000000   0.010383
     2  N   -0.000000  -0.000000  -0.003623
     3  O    0.000000   0.000000   0.000137
     4  C    0.000020   0.000004  -0.065840
     5  C   -0.000001   0.000001   0.004227
     6  N   -0.000094  -0.000058  -0.000083
     7  C    0.005200  -0.004562  -0.000223
     8  H   -0.000037   0.001856   0.000012
     9  C   -0.000421   0.001002  -0.000087
    10  C    0.004155  -0.002167   0.000006
    11  C   -0.033556  -0.041006   0.000003
    12  C    0.398909   0.396658  -0.000096
    13  C   -0.035936  -0.046420   0.005659
    14  H   -0.002787  -0.000849  -0.000194
    15  N    0.000190   0.004698  -0.051549
    16  C    0.000022  -0.000087   0.404926
    17  H    0.000000   0.000000  -0.000061
    18  H    0.000002  -0.000001   0.000001
    19  H   -0.000031   0.000022   0.000125
    20  H    0.000012  -0.000029   0.000000
    21  H   -0.000086  -0.000080  -0.000000
    22  H   -0.000079   0.002339   0.000000
    23  H   -0.002380   0.004031  -0.000026
    24  H   -0.002255  -0.003043  -0.000000
    25  H    0.506419  -0.024311  -0.000015
    26  H   -0.024311   0.560751   0.000002
    27  H   -0.000015   0.000002   0.441675
 Mulliken charges:
               1
     1  O   -0.468688
     2  N    0.486668
     3  O   -0.498838
     4  C    0.024240
     5  C    0.188357
     6  N   -0.774132
     7  C    0.067618
     8  H    0.180015
     9  C   -0.302277
    10  C   -0.329413
    11  C   -0.321922
    12  C   -0.306894
    13  C   -0.056321
    14  H    0.193341
    15  N   -0.466810
    16  C    0.057706
    17  H    0.288460
    18  H    0.401441
    19  H    0.192127
    20  H    0.161991
    21  H    0.175539
    22  H    0.149910
    23  H    0.199679
    24  H    0.165257
    25  H    0.187058
    26  H    0.151249
    27  H    0.254641
 Sum of Mulliken charges =  -0.00000
 Mulliken charges with hydrogens summed into heavy atoms:
               1
     1  O   -0.468688
     2  N    0.486668
     3  O   -0.498838
     4  C    0.024240
     5  C    0.476817
     6  N   -0.372691
     7  C    0.247633
     9  C    0.051841
    10  C   -0.003964
    11  C    0.043014
    12  C    0.031412
    13  C    0.137020
    15  N   -0.466810
    16  C    0.312347
 Electronic spatial extent (au):  <R**2>=           3010.2563
 Charge=             -0.0000 electrons
 Dipole moment (field-independent basis, Debye):
    X=              5.3895    Y=              4.9251    Z=              1.0821  Tot=              7.3807
 Quadrupole moment (field-independent basis, Debye-Ang):
   XX=           -105.5410   YY=            -78.7802   ZZ=            -82.6430
   XY=             -2.5605   XZ=              1.6959   YZ=              0.5783
 Traceless Quadrupole moment (field-independent basis, Debye-Ang):
   XX=            -16.5530   YY=             10.2079   ZZ=              6.3451
   XY=             -2.5605   XZ=              1.6959   YZ=              0.5783
 Octapole moment (field-independent basis, Debye-Ang**2):
  XXX=             90.5973  YYY=             35.7327  ZZZ=              0.2419  XYY=             -5.8594
  XXY=             13.0769  XXZ=             -4.7656  XZZ=             -8.0951  YZZ=              0.3630
  YYZ=              8.8084  XYZ=              1.8408
 Hexadecapole moment (field-independent basis, Debye-Ang**3):
 XXXX=          -3389.2830 YYYY=           -591.6458 ZZZZ=           -301.5795 XXXY=            -55.9336
 XXXZ=             67.8419 YYYX=            -29.6564 YYYZ=             18.1836 ZZZX=             42.5765
 ZZZY=              4.3214 XXYY=           -624.8894 XXZZ=           -531.2614 YYZZ=           -159.3084
 XXYZ=            -11.7844 YYXZ=             15.0866 ZZXY=             -1.7353
 N-N= 9.316124878188D+02 E-N=-3.409869101955D+03  KE= 6.596088320664D+02
 Unable to Open any file for archive entry.
 1\1\GINC-LOTUS\FOpt\RMP2-FC\6-31G(d)\C9H13N3O2\ALEXEY\01-Jul-2023\0\\#
 MP2/6-31G* SCF=Tight Opt=(ModRedun, MaxCycle=20 ) NoSymm\\MolName:\\0,
 1\O,-3.5096355313,-1.4282371345,-0.3195111892\N,-3.121817222,-0.300965
 2421,0.0424575806\O,-3.8858849853,0.5910613725,0.4596212087\C,-1.69678
 10129,-0.0376046903,0.0130501831\C,-1.3167470758,1.2601034996,0.270532
 3105\N,-0.0675114771,1.7635124145,0.2257684921\C,1.2124616387,1.040364
 8711,0.2693300549\H,1.8082234783,1.5634610939,1.0339610879\C,2.0057638
 631,1.0619939059,-1.0317869666\C,3.3812153998,0.4358745034,-0.77085859
 4\C,3.2692943281,-0.9667298919,-0.1660956771\C,2.3786382762,-0.9854494
 513,1.0788194292\C,0.9997909459,-0.4045949354,0.7463707011\H,0.3448444
 75,-0.3903943617,1.6325189176\N,0.4060376148,-1.2822098248,-0.26331487
 9\C,-0.8251296968,-1.0156562748,-0.5980358045\H,-2.0953801802,1.980343
 1593,0.5085697574\H,-0.0065290341,2.7518902288,0.4440251049\H,1.458317
 8236,0.4992428456,-1.7949064637\H,2.1112369807,2.093244643,-1.39124758
 14\H,3.9553973671,0.4009320885,-1.7036739114\H,3.940637839,1.087206487
 7,-0.084417696\H,2.8360924526,-1.6484673879,-0.9049351617\H,4.26806323
 57,-1.3460614791,0.080419267\H,2.250650588,-2.0123840544,1.4370146217\
 H,2.8384877491,-0.4093364898,1.8937060011\H,-1.3787478404,-1.938139895
 9,-0.849370793\\Version=ES64L-G16RevC.02\HF=-661.2742777\MP2=-663.3153
 562\RMSD=9.069e-09\RMSF=9.170e-03\Dipole=1.9480688,1.7232428,0.4275357
 \PG=C01 [X(C9H13N3O2)]\\@
 The archive entry for this job was punched.


 It takes a long time to grow an old friend.
                            -- John Leonard
 Job cpu time:       0 days  1 hours 40 minutes 33.9 seconds.
 Elapsed time:       0 days  0 hours 30 minutes 10.0 seconds.
 File lengths (MBytes):  RWF=     36 Int=      0 D2E=      0 Chk=      7 Scr=      1
 Normal termination of Gaussian 16 at Sat Jul  1 06:00:07 2023.
