 Entering Gaussian System, Link 0=g09
 Initial command:
 /home/ana/programs/g09/l1.exe /home/ana/programs/g09/scratch/Gau-698981.inp -scrdir=/home/ana/programs/g09/scratch/
 Entering Link 1 = /home/ana/programs/g09/l1.exe PID=    698983.
  
 Copyright (c) 1988,1990,1992,1993,1995,1998,2003,2009, Gaussian, Inc.
                  All Rights Reserved.
  
 This is part of the Gaussian(R) 09 program.  It is based on
 the Gaussian(R) 03 system (copyright 2003, Gaussian, Inc.),
 the Gaussian(R) 98 system (copyright 1998, Gaussian, Inc.),
 the Gaussian(R) 94 system (copyright 1995, Gaussian, Inc.),
 the Gaussian 92(TM) system (copyright 1992, Gaussian, Inc.),
 the Gaussian 90(TM) system (copyright 1990, Gaussian, Inc.),
 the Gaussian 88(TM) system (copyright 1988, Gaussian, Inc.),
 the Gaussian 86(TM) system (copyright 1986, Carnegie Mellon
 University), and the Gaussian 82(TM) system (copyright 1983,
 Carnegie Mellon University). Gaussian is a federally registered
 trademark of Gaussian, Inc.
  
 This software contains proprietary and confidential information,
 including trade secrets, belonging to Gaussian, Inc.
  
 This software is provided under written license and may be
 used, copied, transmitted, or stored only in accord with that
 written license.
  
 The following legend is applicable only to US Government
 contracts under FAR:
  
                    RESTRICTED RIGHTS LEGEND
  
 Use, reproduction and disclosure by the US Government is
 subject to restrictions as set forth in subparagraphs (a)
 and (c) of the Commercial Computer Software - Restricted
 Rights clause in FAR 52.227-19.
  
 Gaussian, Inc.
 340 Quinnipiac St., Bldg. 40, Wallingford CT 06492
  
  
 ---------------------------------------------------------------
 Warning -- This program may not be used in any manner that
 competes with the business of Gaussian, Inc. or will provide
 assistance to any competitor of Gaussian, Inc.  The licensee
 of this program is prohibited from giving any competitor of
 Gaussian, Inc. access to this program.  By using this program,
 the user acknowledges that Gaussian, Inc. is engaged in the
 business of creating and licensing software in the field of
 computational chemistry and represents and warrants to the
 licensee that it is not a competitor of Gaussian, Inc. and that
 it will not use this program in any manner prohibited above.
 ---------------------------------------------------------------
  

 Cite this work as:
 Gaussian 09, Revision A.01,
 M. J. Frisch, G. W. Trucks, H. B. Schlegel, G. E. Scuseria, 
 M. A. Robb, J. R. Cheeseman, G. Scalmani, V. Barone, B. Mennucci, 
 G. A. Petersson, H. Nakatsuji, M. Caricato, X. Li, H. P. Hratchian, 
 A. F. Izmaylov, J. Bloino, G. Zheng, J. L. Sonnenberg, M. Hada, 
 M. Ehara, K. Toyota, R. Fukuda, J. Hasegawa, M. Ishida, T. Nakajima, 
 Y. Honda, O. Kitao, H. Nakai, T. Vreven, J. A. Montgomery, Jr., 
 J. E. Peralta, F. Ogliaro, M. Bearpark, J. J. Heyd, E. Brothers, 
 K. N. Kudin, V. N. Staroverov, R. Kobayashi, J. Normand, 
 K. Raghavachari, A. Rendell, J. C. Burant, S. S. Iyengar, J. Tomasi, 
 M. Cossi, N. Rega, J. M. Millam, M. Klene, J. E. Knox, J. B. Cross, 
 V. Bakken, C. Adamo, J. Jaramillo, R. Gomperts, R. E. Stratmann, 
 O. Yazyev, A. J. Austin, R. Cammi, C. Pomelli, J. W. Ochterski, 
 R. L. Martin, K. Morokuma, V. G. Zakrzewski, G. A. Voth, 
 P. Salvador, J. J. Dannenberg, S. Dapprich, A. D. Daniels, 
 O. Farkas, J. B. Foresman, J. V. Ortiz, J. Cioslowski, 
 and D. J. Fox, Gaussian, Inc., Wallingford CT, 2009.
 
 ******************************************
 Gaussian 09:  EM64L-G09RevA.01  8-May-2009
                24-Sep-2021 
 ******************************************
 %NPROC=4
 Will use up to    4 processors via shared memory.
 %NoSave
 ------------------------------
 #HF/6-31G* Opt=Z-matrix NoSymm
 ------------------------------
 1/10=7,18=40,38=1/1,3;
 2/12=2,15=1,17=6,18=5,29=3,40=1/2;
 3/5=1,6=6,7=1,11=9,16=1,25=1,30=1,71=1/1,2,3;
 4//1;
 5/5=2,38=5/2;
 6/7=2,8=2,9=2,10=2,28=1/1;
 7/29=1,30=1/1,2,3,16;
 1/10=7,18=40/3(2);
 2/15=1,29=3/2;
 99//99;
 2/15=1,29=3/2;
 3/5=1,6=6,7=1,11=9,16=1,25=1,30=1,71=1/1,2,3;
 4/5=5,16=3/1;
 5/5=2,38=5/2;
 7/30=1/1,2,3,16;
 1/18=40/3(-5);
 2/15=1,29=3/2;
 6/7=2,8=2,9=2,10=2,19=2,28=1/1;
 99/9=1/99;
 ------------------------------
 water interaction with atom F6
 ------------------------------
 Symbolic Z-matrix:
 Charge =  0 Multiplicity = 1
 9                    -1   -1.9693    2.05368   0.00007 
 6                    -1   -1.22225   0.94423   0.00003 
 6                    -1    0.14003   1.0574   -0.00002 
 6                    -1    0.92795  -0.12364  -0.00008 
 6                    -1    2.41466  -0.01865  -0.00001 
 9                    -1    3.00708  -1.23461  -0.00056 
 9                    -1    2.85829   0.65448  -1.08602 
 9                    -1    2.85827   0.6535    1.08665 
 6                    -1    0.30654  -1.34149  -0.00009 
 7                    -1   -1.05417  -1.38997  -0.00006 
 6                    -1   -1.9305   -0.3121    0. 
 16                   -1   -3.57098  -0.50661   0.00003 
 1                    -1    0.59686   2.0431   -0.00002 
 1                    -1    0.83176  -2.28899  -0.00015 
 1                    -1   -1.52148  -2.29639  -0.00009 
 X                    6    RDUM     5    ADUM     4    DDUM     0
 X                    16   RDUM     6    ADUM     5    DDUM     0
 H1                   6    RX       16   ADUM     17   DH1      0
 X                    18   RDUM     6    ADUM     16   DDUM     0
 OH2                  18   ROH      19   ADUM     6    DOH2     0
 H2                   20   ROH      18   AHOH     16   DH2      0
       Variables:
  RX                    2.3099                   
       Constants:
  RDUM                  1.                       
  ROH                   0.9572                   
  ADUM                 90.                       
  AHOH                104.52                     
  DDUM                  0.                       
  DH1                 180.                       
  DOH2                180.                       
  DH2                   0.                       
 

 GradGradGradGradGradGradGradGradGradGradGradGradGradGradGradGradGradGrad
 Berny optimization.
 Initialization pass.
                       ----------------------------
                       !    Initial Parameters    !
                       ! (Angstroms and Degrees)  !
 ----------------------                            ----------------------
 !      Name          Value   Derivative information (Atomic Units)     !
 ------------------------------------------------------------------------
 !       RX          2.3099   estimate D2E/DX2                          !
 !      RDUM         1.0      Frozen                                    !
 !       ROH         0.9572   Frozen                                    !
 !      ADUM        90.0      Frozen                                    !
 !      AHOH       104.52     Frozen                                    !
 !      DDUM         0.0      Frozen                                    !
 !       DH1       180.0      Frozen                                    !
 !      DOH2       180.0      Frozen                                    !
 !       DH2         0.0      Frozen                                    !
 ------------------------------------------------------------------------
 Trust Radius=3.00D-01 FncErr=1.00D-07 GrdErr=1.00D-07
 Number of steps in this run=  20 maximum allowed number of steps= 100.
 GradGradGradGradGradGradGradGradGradGradGradGradGradGradGradGradGradGrad

 ---------------------------------------------------------------------------------------------------
                            Z-MATRIX (ANGSTROMS AND DEGREES)
   CD    Cent   Atom    N1       Length/X        N2       Alpha/Y        N3        Beta/Z          J
 ---------------------------------------------------------------------------------------------------
      1      1  F       -1  -1.969300          2.053680          0.000070
      2      2  C       -1  -1.222250          0.944230          0.000030
      3      3  C       -1   0.140030          1.057400         -0.000020
      4      4  C       -1   0.927950         -0.123640         -0.000080
      5      5  C       -1   2.414660         -0.018650         -0.000010
      6      6  F       -1   3.007080         -1.234610         -0.000560
      7      7  F       -1   2.858290          0.654480         -1.086020
      8      8  F       -1   2.858270          0.653500          1.086650
      9      9  C       -1   0.306540         -1.341490         -0.000090
     10     10  N       -1  -1.054170         -1.389970         -0.000060
     11     11  C       -1  -1.930500         -0.312100          0.000000
     12     12  S       -1  -3.570980         -0.506610          0.000030
     13     13  H       -1   0.596860          2.043100         -0.000020
     14     14  H       -1   0.831760         -2.288990         -0.000150
     15     15  H       -1  -1.521480         -2.296390         -0.000090
     16         X        6   1.000000(    15)      5   90.000(    34)      4    0.000(    52)      0
     17         X       16   1.000000(    16)      6   90.000(    35)      5    0.000(    53)      0
     18     16  H        6   2.309900(    17)     16   90.000(    36)     17  180.000(    54)      0
     19         X       18   1.000000(    18)      6   90.000(    37)     16    0.000(    55)      0
     20     17  O       18   0.957200(    19)     19   90.000(    38)      6  180.000(    56)      0
     21     18  H       20   0.957200(    20)     18  104.520(    39)     16    0.000(    57)      0
 ---------------------------------------------------------------------------------------------------
                         Z-Matrix orientation:                         
 ---------------------------------------------------------------------
 Center     Atomic      Atomic             Coordinates (Angstroms)
 Number     Number       Type             X           Y           Z
 ---------------------------------------------------------------------
      1          9           0       -1.969300    2.053680    0.000070
      2          6           0       -1.222250    0.944230    0.000030
      3          6           0        0.140030    1.057400   -0.000020
      4          6           0        0.927950   -0.123640   -0.000080
      5          6           0        2.414660   -0.018650   -0.000010
      6          9           0        3.007080   -1.234610   -0.000560
      7          9           0        2.858290    0.654480   -1.086020
      8          9           0        2.858270    0.653500    1.086650
      9          6           0        0.306540   -1.341490   -0.000090
     10          7           0       -1.054170   -1.389970   -0.000060
     11          6           0       -1.930500   -0.312100    0.000000
     12         16           0       -3.570980   -0.506610    0.000030
     13          1           0        0.596860    2.043100   -0.000020
     14          1           0        0.831760   -2.288990   -0.000150
     15          1           0       -1.521480   -2.296390   -0.000090
     16         -1           0        2.108099   -1.672597   -0.000774
     17         -1           0        1.670112   -0.773616   -0.000368
     18          1           0        4.018786   -3.311167   -0.001499
     19         -1           0        3.119804   -3.749154   -0.001714
     20          8           0        4.438027   -4.171672   -0.001888
     21          1           0        3.710117   -4.793266   -0.002185
 ---------------------------------------------------------------------
                    Distance matrix (angstroms):
                    1          2          3          4          5
     1  F    0.000000
     2  C    1.337521   0.000000
     3  C    2.332777   1.366973   0.000000
     4  C    3.624194   2.400772   1.419744   0.000000
     5  C    4.849088   3.762214   2.516312   1.490413   0.000000
     6  F    5.964663   4.757581   3.670597   2.357337   1.352598
     7  F    5.142274   4.232525   2.954772   2.347541   1.352527
     8  F    5.142625   4.232719   2.955134   2.347566   1.352555
     9  C    4.087374   2.749857   2.404662   1.367227   2.488790
    10  N    3.563171   2.340244   2.723184   2.352104   3.730054
    11  C    2.366098   1.442215   2.482463   2.864656   4.355058
    12  S    3.020011   2.760701   4.027123   4.515201   6.005497
    13  H    2.566182   2.125247   1.086415   2.191890   2.748674
    14  H    5.167661   3.830492   3.417136   2.167485   2.767673
    15  H    4.373060   3.254406   3.742796   3.274225   4.547669
    16  X    5.523615   4.235446   3.365439   1.947311   1.682118
    17  X    4.608570   3.364038   2.386162   0.986546   1.060342
    18  H    8.039823   6.751064   5.842014   4.440000   3.662498
    19  X    7.718281   6.393848   5.655265   4.236576   3.796563
    20  O    8.933580   7.629626   6.768750   5.357910   4.619698
    21  H    8.895868   7.566182   6.853891   5.435611   4.947239
                    6          7          8          9         10
     6  F    0.000000
     7  F    2.183809   0.000000
     8  F    2.183834   2.172670   0.000000
     9  C    2.702654   3.416807   3.416477   0.000000
    10  N    4.064221   4.546034   4.545756   1.361573   0.000000
    11  C    5.023019   5.004620   5.004549   2.462517   1.389157
    12  S    6.618222   6.622926   6.622828   3.966382   2.667332
    13  H    4.068482   2.867355   2.868068   3.397019   3.809445
    14  H    2.417382   3.734964   3.734451   1.083334   2.089251
    15  H    4.651369   5.391592   5.391203   2.062399   1.019792
    16  X    1.000000   2.675039   2.675065   1.831733   3.174873
    17  X    1.414214   2.151712   2.151740   1.477095   2.793135
    18  H    2.309900   4.271919   4.271937   4.202428   5.424563
    19  X    2.517069   4.542697   4.542719   3.702878   4.794561
    20  O    3.267100   5.192557   5.192575   5.007905   6.156468
    21  H    3.627437   5.619453   5.619472   4.847587   5.854986
                   11         12         13         14         15
    11  C    0.000000
    12  S    1.651971   0.000000
    13  H    3.454637   4.885889   0.000000
    14  H    3.396789   4.749842   4.338454   0.000000
    15  H    2.026007   2.720986   4.828927   2.353252   0.000000
    16  X    4.261600   5.797539   4.011265   1.417385   3.682792
    17  X    3.630069   5.247889   3.014259   1.731818   3.536255
    18  H    6.662462   8.091359   6.354349   3.346936   5.632435
    19  X    6.108921   7.435098   6.317868   2.714264   4.863337
    20  O    7.446773   8.807773   7.306022   4.068127   6.247592
    21  H    7.203986   8.449249   7.511876   3.815278   5.796896
                   16         17         18         19         20
    16  X    0.000000
    17  X    1.000000   0.000000
    18  H    2.517069   3.457664   0.000000
    19  X    2.309900   3.309900   1.000000   0.000000
    20  O    3.416715   4.382709   0.957200   1.384280   0.000000
    21  H    3.507855   4.507684   1.513901   1.199434   0.957200
                   21
    21  H    0.000000
 Symmetry turned off by external request.
 Stoichiometry    C6H5F4NOS
 Framework group  C1[X(C6H5F4NOS)]
 Deg. of freedom    48
 Full point group                 C1      NOp   1
 Rotational constants (GHZ):      1.0874083      0.3208969      0.2591728
 Standard basis: 6-31G(d) (6D, 7F)
 Integral buffers will be    131072 words long.
 Raffenetti 1 integral format.
 Two-electron integral symmetry is turned off.
   209 basis functions,   408 primitive gaussians,   209 cartesian basis functions
    54 alpha electrons       54 beta electrons
       nuclear repulsion energy       903.5599671790 Hartrees.
 NAtoms=   18 NActive=   18 NUniq=   18 SFac= 7.50D-01 NAtFMM=   80 NAOKFM=F Big=F
 One-electron integrals computed using PRISM.
 NBasis=   209 RedAO= T  NBF=   209
 NBsUse=   209 1.00D-06 NBFU=   209
 Harris functional with IExCor=  205 diagonalized for initial guess.
 ExpMin= 1.17D-01 ExpMax= 2.19D+04 ExpMxC= 3.30D+03 IAcc=1 IRadAn=         1 AccDes= 0.00D+00
 HarFok:  IExCor=  205 AccDes= 0.00D+00 IRadAn=         1 IDoV= 1
 ScaDFX=  1.000000  1.000000  1.000000  1.000000
 FoFCou: FMM=F IPFlag=           0 FMFlag=      100000 FMFlg1=           0
         NFxFlg=           0 DoJE=T BraDBF=F KetDBF=T FulRan=T
         Omega=  0.000000  0.000000  1.000000  0.000000  0.000000 ICntrl=     500 IOpCl=  0
         NMat0=    1 NMatS0=    1 NMatT0=    0 NMatD0=    1 NMtDS0=    0 NMtDT0=    0
         I1Cent=           4 NGrid=           0.
 Symmetry not used in FoFCou.
 Requested convergence on RMS density matrix=1.00D-08 within 128 cycles.
 Requested convergence on MAX density matrix=1.00D-06.
 Requested convergence on             energy=1.00D-06.
 No special actions if energy rises.
 Integral accuracy reduced to 1.0D-05 until final iterations.
 Initial convergence to 1.0D-05 achieved.  Increase integral accuracy.
 SCF Done:  E(RHF) =  -1154.67242033     A.U. after   15 cycles
             Convg  =    0.5839D-08             -V/T =  2.0019

 **********************************************************************

            Population analysis using the SCF density.

 **********************************************************************

 Alpha  occ. eigenvalues --  -91.90891 -26.38365 -26.36575 -26.36572 -26.33827
 Alpha  occ. eigenvalues --  -20.56604 -15.69203 -11.55085 -11.38265 -11.37644
 Alpha  occ. eigenvalues --  -11.36782 -11.31656 -11.30954  -8.91977  -6.60304
 Alpha  occ. eigenvalues --   -6.60029  -6.59902  -1.75066  -1.66292  -1.65072
 Alpha  occ. eigenvalues --   -1.65045  -1.36047  -1.34807  -1.17692  -1.12557
 Alpha  occ. eigenvalues --   -1.03651  -0.97802  -0.93259  -0.88765  -0.85518
 Alpha  occ. eigenvalues --   -0.84791  -0.84164  -0.77559  -0.76480  -0.74392
 Alpha  occ. eigenvalues --   -0.73165  -0.72595  -0.71691  -0.71225  -0.70770
 Alpha  occ. eigenvalues --   -0.68518  -0.68412  -0.66858  -0.64475  -0.63020
 Alpha  occ. eigenvalues --   -0.61397  -0.59939  -0.57659  -0.52991  -0.50375
 Alpha  occ. eigenvalues --   -0.47065  -0.43726  -0.34509  -0.31417
 Alpha virt. eigenvalues --    0.04031   0.08192   0.16361   0.19458   0.24135
 Alpha virt. eigenvalues --    0.25441   0.26049   0.26412   0.28473   0.32026
 Alpha virt. eigenvalues --    0.33545   0.34780   0.39656   0.39926   0.42183
 Alpha virt. eigenvalues --    0.43135   0.46183   0.49047   0.53699   0.55246
 Alpha virt. eigenvalues --    0.56319   0.59358   0.60751   0.63992   0.66162
 Alpha virt. eigenvalues --    0.67279   0.71403   0.72606   0.72970   0.74926
 Alpha virt. eigenvalues --    0.76645   0.77451   0.82436   0.84021   0.87058
 Alpha virt. eigenvalues --    0.88576   0.89637   0.91688   0.95213   0.99306
 Alpha virt. eigenvalues --    1.00772   1.01524   1.02653   1.04188   1.07065
 Alpha virt. eigenvalues --    1.08801   1.09337   1.12187   1.14777   1.14900
 Alpha virt. eigenvalues --    1.15563   1.16170   1.17332   1.17853   1.24036
 Alpha virt. eigenvalues --    1.27560   1.30469   1.31136   1.32158   1.32621
 Alpha virt. eigenvalues --    1.34481   1.36770   1.39994   1.41276   1.41639
 Alpha virt. eigenvalues --    1.43450   1.46899   1.51619   1.59870   1.59876
 Alpha virt. eigenvalues --    1.60643   1.62990   1.63618   1.63739   1.64250
 Alpha virt. eigenvalues --    1.65967   1.67002   1.68543   1.69231   1.70594
 Alpha virt. eigenvalues --    1.72679   1.75753   1.77674   1.83852   1.86961
 Alpha virt. eigenvalues --    1.89138   1.91631   1.93457   1.99727   2.01530
 Alpha virt. eigenvalues --    2.02814   2.03833   2.05441   2.06176   2.08533
 Alpha virt. eigenvalues --    2.09634   2.11767   2.11866   2.17553   2.19763
 Alpha virt. eigenvalues --    2.21898   2.21991   2.24020   2.27886   2.29105
 Alpha virt. eigenvalues --    2.30010   2.31847   2.33233   2.34047   2.35448
 Alpha virt. eigenvalues --    2.37390   2.38733   2.42834   2.44559   2.45099
 Alpha virt. eigenvalues --    2.46384   2.51672   2.60169   2.61450   2.62858
 Alpha virt. eigenvalues --    2.64947   2.67820   2.74510   2.82315   2.84038
 Alpha virt. eigenvalues --    2.84086   2.90729   2.92321   2.92780   2.94172
 Alpha virt. eigenvalues --    2.99815   3.06503   3.09118   3.16671   3.21489
 Alpha virt. eigenvalues --    3.29127   3.36733   3.38891   3.42463   3.44519
 Alpha virt. eigenvalues --    3.48865   3.70667   4.02846   4.35963   4.39610
 Alpha virt. eigenvalues --    4.45127   4.47901   4.59604   4.64559   4.68106
 Alpha virt. eigenvalues --    4.81890   5.00814   5.19434   5.57857   6.04329
          Condensed to atoms (all electrons):
              1          2          3          4          5          6
     1  F    9.158221   0.268130  -0.033601   0.002210  -0.000015   0.000000
     2  C    0.268130   4.575345   0.569480  -0.025707   0.000873  -0.000019
     3  C   -0.033601   0.569480   5.066450   0.354330  -0.012801   0.002132
     4  C    0.002210  -0.025707   0.354330   5.198526   0.420284  -0.044145
     5  C   -0.000015   0.000873  -0.012801   0.420284   3.552254   0.277568
     6  F    0.000000  -0.000019   0.002132  -0.044145   0.277568   9.196799
     7  F    0.000000   0.000291   0.004930  -0.055118   0.286004  -0.030226
     8  F    0.000000   0.000290   0.004924  -0.055125   0.286011  -0.030227
     9  C    0.000137  -0.023410  -0.053490   0.590853  -0.021098   0.005712
    10  N    0.001381  -0.053066  -0.021312  -0.034998   0.001165   0.000235
    11  C   -0.040738   0.376707  -0.078993  -0.001341   0.000074   0.000002
    12  S    0.003515  -0.083411   0.001576  -0.000050   0.000006   0.000000
    13  H   -0.000278  -0.017108   0.368481  -0.030142  -0.000289   0.000036
    14  H    0.000001  -0.000136   0.001930  -0.024576  -0.000162   0.004828
    15  H   -0.000018   0.003876  -0.000583   0.002364  -0.000015   0.000001
    16  H    0.000000   0.000000  -0.000001   0.000019   0.000117   0.009014
    17  O    0.000000   0.000000   0.000000   0.000001   0.000007  -0.000860
    18  H    0.000000   0.000000   0.000000   0.000000  -0.000001  -0.000027
              7          8          9         10         11         12
     1  F    0.000000   0.000000   0.000137   0.001381  -0.040738   0.003515
     2  C    0.000291   0.000290  -0.023410  -0.053066   0.376707  -0.083411
     3  C    0.004930   0.004924  -0.053490  -0.021312  -0.078993   0.001576
     4  C   -0.055118  -0.055125   0.590853  -0.034998  -0.001341  -0.000050
     5  C    0.286004   0.286011  -0.021098   0.001165   0.000074   0.000006
     6  F   -0.030226  -0.030227   0.005712   0.000235   0.000002   0.000000
     7  F    9.196447  -0.034031   0.000510  -0.000006  -0.000002   0.000000
     8  F   -0.034031   9.196466   0.000506  -0.000006  -0.000002   0.000000
     9  C    0.000510   0.000506   4.729643   0.267586  -0.038340   0.003353
    10  N   -0.000006  -0.000006   0.267586   7.235751   0.210951  -0.104617
    11  C   -0.000002  -0.000002  -0.038340   0.210951   4.957503   0.447487
    12  S    0.000000   0.000000   0.003353  -0.104617   0.447487  15.943263
    13  H    0.000897   0.000893   0.002406  -0.000260   0.002620  -0.000054
    14  H    0.000080   0.000080   0.381369  -0.032584   0.001018  -0.000139
    15  H    0.000000   0.000000  -0.021497   0.309780  -0.017743   0.013832
    16  H    0.000013   0.000013  -0.000047   0.000000   0.000000   0.000000
    17  O    0.000000   0.000000  -0.000024   0.000000   0.000000   0.000000
    18  H    0.000000   0.000000  -0.000011   0.000000   0.000000   0.000000
             13         14         15         16         17         18
     1  F   -0.000278   0.000001  -0.000018   0.000000   0.000000   0.000000
     2  C   -0.017108  -0.000136   0.003876   0.000000   0.000000   0.000000
     3  C    0.368481   0.001930  -0.000583  -0.000001   0.000000   0.000000
     4  C   -0.030142  -0.024576   0.002364   0.000019   0.000001   0.000000
     5  C   -0.000289  -0.000162  -0.000015   0.000117   0.000007  -0.000001
     6  F    0.000036   0.004828   0.000001   0.009014  -0.000860  -0.000027
     7  F    0.000897   0.000080   0.000000   0.000013   0.000000   0.000000
     8  F    0.000893   0.000080   0.000000   0.000013   0.000000   0.000000
     9  C    0.002406   0.381369  -0.021497  -0.000047  -0.000024  -0.000011
    10  N   -0.000260  -0.032584   0.309780   0.000000   0.000000   0.000000
    11  C    0.002620   0.001018  -0.017743   0.000000   0.000000   0.000000
    12  S   -0.000054  -0.000139   0.013832   0.000000   0.000000   0.000000
    13  H    0.390478  -0.000063   0.000008   0.000000   0.000000   0.000000
    14  H   -0.000063   0.394511  -0.002239   0.000229   0.000112   0.000075
    15  H    0.000008  -0.002239   0.270620   0.000000   0.000000   0.000000
    16  H    0.000000   0.000229   0.000000   0.309565   0.261615  -0.018499
    17  O    0.000000   0.000112   0.000000   0.261615   8.348624   0.264503
    18  H    0.000000   0.000075   0.000000  -0.018499   0.264503   0.327182
 Mulliken atomic charges:
              1
     1  F   -0.358944
     2  C    0.407864
     3  C   -0.173452
     4  C   -0.297386
     5  C    1.210020
     6  F   -0.390822
     7  F   -0.369788
     8  F   -0.369793
     9  C    0.175843
    10  N   -0.780001
    11  C    0.180797
    12  S   -0.224762
    13  H    0.282376
    14  H    0.275669
    15  H    0.441614
    16  H    0.437962
    17  O   -0.873978
    18  H    0.426779
 Sum of Mulliken atomic charges =   0.00000
 Mulliken charges with hydrogens summed into heavy atoms:
              1
     1  F   -0.358944
     2  C    0.407864
     3  C    0.108924
     4  C   -0.297386
     5  C    1.210020
     6  F   -0.390822
     7  F   -0.369788
     8  F   -0.369793
     9  C    0.451512
    10  N   -0.338387
    11  C    0.180797
    12  S   -0.224762
    17  O   -0.009236
 Sum of Mulliken charges with hydrogens summed into heavy atoms =   0.00000
 Electronic spatial extent (au):  <R**2>=           3949.4329
 Charge=              0.0000 electrons
 Dipole moment (field-independent basis, Debye):
    X=              1.1205    Y=             -1.8510    Z=             -0.0001  Tot=              2.1637
 Quadrupole moment (field-independent basis, Debye-Ang):
   XX=           -123.4660   YY=            -73.4810   ZZ=            -82.4479
   XY=             14.1638   XZ=              0.0052   YZ=             -0.0002
 Traceless Quadrupole moment (field-independent basis, Debye-Ang):
   XX=            -30.3344   YY=             19.6506   ZZ=             10.6837
   XY=             14.1638   XZ=              0.0052   YZ=             -0.0002
 Octapole moment (field-independent basis, Debye-Ang**2):
  XXX=            -99.8967  YYY=             72.2894  ZZZ=              0.0399  XYY=            -56.6234
  XXY=            120.3278  XXZ=              0.0506  XZZ=            -14.8337  YZZ=             34.6420
  YYZ=              0.0086  XYZ=             -0.0211
 Hexadecapole moment (field-independent basis, Debye-Ang**3):
 XXXX=          -4066.3185 YYYY=          -1047.1293 ZZZZ=           -143.1916 XXXY=            852.9836
 XXXZ=              0.4073 YYYX=            530.8200 YYYZ=             -0.0983 ZZZX=              0.1799
 ZZZY=             -0.1771 XXYY=          -1132.0070 XXZZ=           -582.4201 YYZZ=           -238.0445
 XXYZ=             -0.2184 YYXZ=              0.1268 ZZXY=            115.4613
 N-N= 9.035599671790D+02 E-N=-4.544335252417D+03  KE= 1.152538507955D+03
 Calling FoFJK, ICntrl=      2127 FMM=F ISym2X=0 I1Cent= 0 IOpClX= 0 NMat=1 NMatS=1 NMatT=0.
 -------------------------------------------------------------------
 Center     Atomic                   Forces (Hartrees/Bohr)
 Number     Number              X              Y              Z
 -------------------------------------------------------------------
      1        9           0.000000000    0.000000000    0.000000000
      2        6           0.000000000    0.000000000    0.000000000
      3        6           0.000000000    0.000000000    0.000000000
      4        6           0.000000000    0.000000000    0.000000000
      5        6           0.000000000    0.000000000    0.000000000
      6        9           0.000000000    0.000000000    0.000000000
      7        9           0.000000000    0.000000000    0.000000000
      8        9           0.000000000    0.000000000    0.000000000
      9        6           0.000000000    0.000000000    0.000000000
     10        7           0.000000000    0.000000000    0.000000000
     11        6           0.000000000    0.000000000    0.000000000
     12       16           0.000000000    0.000000000    0.000000000
     13        1           0.000000000    0.000000000    0.000000000
     14        1           0.000000000    0.000000000    0.000000000
     15        1           0.000000000    0.000000000    0.000000000
     16        1           0.007542012   -0.008572206   -0.000004441
     17        8          -0.016317238    0.003076570    0.000001924
     18        1           0.009627993    0.005218186    0.000002086
 -------------------------------------------------------------------
 Cartesian Forces:  Max     0.016317238 RMS     0.003121045
 -----------------------------------------------------------------------------------------------
                       Internal Coordinate Forces (Hartree/Bohr or radian)
  Cent   Atom   N1       Length/X         N2         Alpha/Y        N3         Beta/Z          J
 -----------------------------------------------------------------------------------------------
      1  F 
      2  C 
      3  C 
      4  C 
      5  C 
      6  F 
      7  F 
      8  F 
      9  C 
     10  N 
     11  C 
     12  S 
     13  H 
     14  H 
     15  H 
         X        6   0.000000(     1)      5   0.002642(     7)      4   0.000001(    13)     0
         X       16   0.000000(     2)      6   0.000000(     8)      5  -0.000001(    14)     0
     16  H        6   0.000623(     3)     16   0.002642(     9)     17   0.000001(    15)     0
         X       18   0.000000(     4)      6  -0.000174(    10)     16   0.000000(    16)     0
     17  O       18  -0.010387(     5)     19  -0.000174(    11)      6   0.000001(    17)     0
     18  H       20  -0.010710(     6)     18   0.004132(    12)     16   0.000001(    18)     0
 -----------------------------------------------------------------------------------------------
 Internal  Forces:  Max     0.010710303 RMS     0.003756971

 GradGradGradGradGradGradGradGradGradGradGradGradGradGradGradGradGradGrad
 Berny optimization.
 Search for a local minimum.
 Step number   1 out of a maximum of   20
 All quantities printed in internal units (Hartrees-Bohrs-Radians)
 Second derivative matrix not updated -- first step.
 The second derivative matrix:
                          RX       RDUM       ROH      ADUM      AHOH
           RX           0.02683
           RDUM         0.00000   0.00000
           ROH          0.00000   0.00000   1.12160
           ADUM         0.00000   0.00000   0.00000   1.64000
           AHOH         0.00000   0.00000   0.00000   0.00000   0.16000
           DDUM        -0.00198   0.00000  -0.00349   0.00464  -0.00300
           DH1          0.00269   0.00000   0.00475  -0.00632   0.00407
           DOH2         0.00256   0.00000   0.00452  -0.00598   0.00388
           DH2          0.00071   0.00000   0.00125  -0.00169   0.00108
                         DDUM       DH1      DOH2       DH2
           DDUM        23.97689
           DH1        -32.51574  44.12085
           DOH2       -30.75597  41.80025  40.08955
           DH2         -8.53886  11.60511  11.04428   3.06625
     Eigenvalues ---    0.026831000.000001000.000001000.000001000.00000
     Eigenvalues --- 1000.000001000.000001000.000001000.00000
 RFO step:  Lambda=-1.44627149D-05 EMin= 2.68298867D-02
 Linear search not attempted -- first point.
 Variable       Old X    -DE/DX   Delta X   Delta X   Delta X     New X
                                 (Linear)    (Quad)   (Total)
    RX        4.36508   0.00062   0.00000   0.02320   0.02320   4.38828
   RDUM       1.88973   0.00000   0.00000   0.00000   0.00000   1.88973
   ROH        1.80885  -0.02110   0.00000   0.00000   0.00000   1.80885
   ADUM       1.57080   0.00493   0.00000   0.00000   0.00000   1.57080
   AHOH       1.82422   0.00413   0.00000   0.00000   0.00000   1.82422
   DDUM       0.00000   0.00000   0.00000   0.00000   0.00000   0.00000
   DH1        3.14159   0.00000   0.00000   0.00000   0.00000   3.14159
   DOH2       3.14159   0.00000   0.00000   0.00000   0.00000   3.14159
   DH2        0.00000   0.00000   0.00000   0.00000   0.00000   0.00000
         Item               Value     Threshold  Converged?
 Maximum Force            0.000623     0.000450     NO 
 RMS     Force            0.000623     0.000300     NO 
 Maximum Displacement     0.023205     0.001800     NO 
 RMS     Displacement     0.007735     0.001200     NO 
 Predicted change in Energy=-7.231355D-06
 GradGradGradGradGradGradGradGradGradGradGradGradGradGradGradGradGradGrad

 ---------------------------------------------------------------------------------------------------
                            Z-MATRIX (ANGSTROMS AND DEGREES)
   CD    Cent   Atom    N1       Length/X        N2       Alpha/Y        N3        Beta/Z          J
 ---------------------------------------------------------------------------------------------------
      1      1  F       -1  -1.969300          2.053680          0.000070
      2      2  C       -1  -1.222250          0.944230          0.000030
      3      3  C       -1   0.140030          1.057400         -0.000020
      4      4  C       -1   0.927950         -0.123640         -0.000080
      5      5  C       -1   2.414660         -0.018650         -0.000010
      6      6  F       -1   3.007080         -1.234610         -0.000560
      7      7  F       -1   2.858290          0.654480         -1.086020
      8      8  F       -1   2.858270          0.653500          1.086650
      9      9  C       -1   0.306540         -1.341490         -0.000090
     10     10  N       -1  -1.054170         -1.389970         -0.000060
     11     11  C       -1  -1.930500         -0.312100          0.000000
     12     12  S       -1  -3.570980         -0.506610          0.000030
     13     13  H       -1   0.596860          2.043100         -0.000020
     14     14  H       -1   0.831760         -2.288990         -0.000150
     15     15  H       -1  -1.521480         -2.296390         -0.000090
     16         X        6   1.000000(    15)      5   90.000(    34)      4    0.000(    52)      0
     17         X       16   1.000000(    16)      6   90.000(    35)      5    0.000(    53)      0
     18     16  H        6   2.322180(    17)     16   90.000(    36)     17  180.000(    54)      0
     19         X       18   1.000000(    18)      6   90.000(    37)     16    0.000(    55)      0
     20     17  O       18   0.957200(    19)     19   90.000(    38)      6  180.000(    56)      0
     21     18  H       20   0.957200(    20)     18  104.520(    39)     16    0.000(    57)      0
 ---------------------------------------------------------------------------------------------------
                         Z-Matrix orientation:                         
 ---------------------------------------------------------------------
 Center     Atomic      Atomic             Coordinates (Angstroms)
 Number     Number       Type             X           Y           Z
 ---------------------------------------------------------------------
      1          9           0       -1.969300    2.053680    0.000070
      2          6           0       -1.222250    0.944230    0.000030
      3          6           0        0.140030    1.057400   -0.000020
      4          6           0        0.927950   -0.123640   -0.000080
      5          6           0        2.414660   -0.018650   -0.000010
      6          9           0        3.007080   -1.234610   -0.000560
      7          9           0        2.858290    0.654480   -1.086020
      8          9           0        2.858270    0.653500    1.086650
      9          6           0        0.306540   -1.341490   -0.000090
     10          7           0       -1.054170   -1.389970   -0.000060
     11          6           0       -1.930500   -0.312100    0.000000
     12         16           0       -3.570980   -0.506610    0.000030
     13          1           0        0.596860    2.043100   -0.000020
     14          1           0        0.831760   -2.288990   -0.000150
     15          1           0       -1.521480   -2.296390   -0.000090
     16         -1           0        2.108099   -1.672597   -0.000774
     17         -1           0        1.670112   -0.773616   -0.000368
     18          1           0        4.024164   -3.322206   -0.001504
     19         -1           0        3.125183   -3.760193   -0.001719
     20          8           0        4.443405   -4.182711   -0.001893
     21          1           0        3.715496   -4.804305   -0.002190
 ---------------------------------------------------------------------
                    Distance matrix (angstroms):
                    1          2          3          4          5
     1  F    0.000000
     2  C    1.337521   0.000000
     3  C    2.332777   1.366973   0.000000
     4  C    3.624194   2.400772   1.419744   0.000000
     5  C    4.849088   3.762214   2.516312   1.490413   0.000000
     6  F    5.964663   4.757581   3.670597   2.357337   1.352598
     7  F    5.142274   4.232525   2.954772   2.347541   1.352527
     8  F    5.142625   4.232719   2.955134   2.347566   1.352555
     9  C    4.087374   2.749857   2.404662   1.367227   2.488790
    10  N    3.563171   2.340244   2.723184   2.352104   3.730054
    11  C    2.366098   1.442215   2.482463   2.864656   4.355058
    12  S    3.020011   2.760701   4.027123   4.515201   6.005497
    13  H    2.566182   2.125247   1.086415   2.191890   2.748674
    14  H    5.167661   3.830492   3.417136   2.167485   2.767673
    15  H    4.373060   3.254406   3.742796   3.274225   4.547669
    16  X    5.523615   4.235446   3.365439   1.947311   1.682118
    17  X    4.608570   3.364038   2.386162   0.986546   1.060342
    18  H    8.051196   6.762199   5.853840   4.451670   3.674777
    19  X    7.730128   6.405604   5.667481   4.248806   3.808410
    20  O    8.945131   7.641019   6.780693   5.369775   4.631977
    21  H    8.907798   7.578060   6.866116   5.447848   4.959302
                    6          7          8          9         10
     6  F    0.000000
     7  F    2.183809   0.000000
     8  F    2.183834   2.172670   0.000000
     9  C    2.702654   3.416807   3.416477   0.000000
    10  N    4.064221   4.546034   4.545756   1.361573   0.000000
    11  C    5.023019   5.004620   5.004549   2.462517   1.389157
    12  S    6.618222   6.622926   6.622828   3.966382   2.667332
    13  H    4.068482   2.867355   2.868068   3.397019   3.809445
    14  H    2.417382   3.734964   3.734451   1.083334   2.089251
    15  H    4.651369   5.391592   5.391203   2.062399   1.019792
    16  X    1.000000   2.675039   2.675065   1.831733   3.174873
    17  X    1.414214   2.151712   2.151740   1.477095   2.793135
    18  H    2.322180   4.283628   4.283646   4.212359   5.433509
    19  X    2.528343   4.553710   4.553732   3.714145   4.804680
    20  O    3.279380   5.204453   5.204471   5.018585   6.166258
    21  H    3.639310   5.630970   5.630990   4.859226   5.865782
                   11         12         13         14         15
    11  C    0.000000
    12  S    1.651971   0.000000
    13  H    3.454637   4.885889   0.000000
    14  H    3.396789   4.749842   4.338454   0.000000
    15  H    2.026007   2.720986   4.828927   2.353252   0.000000
    16  X    4.261600   5.797539   4.011265   1.417385   3.682792
    17  X    3.630069   5.247889   3.014259   1.731818   3.536255
    18  H    6.672238   8.100234   6.366547   3.355441   5.639722
    19  X    6.119581   7.444756   6.330136   2.724744   4.871775
    20  O    7.457097   8.817261   7.318240   4.078010   6.256042
    21  H    7.215066   8.459487   7.524151   3.826584   5.806510
                   16         17         18         19         20
    16  X    0.000000
    17  X    1.000000   0.000000
    18  H    2.528343   3.469420   0.000000
    19  X    2.322180   3.322180   1.000000   0.000000
    20  O    3.428459   4.394666   0.957200   1.384280   0.000000
    21  H    3.520132   4.519962   1.513901   1.199434   0.957200
                   21
    21  H    0.000000
 Symmetry turned off by external request.
 Stoichiometry    C6H5F4NOS
 Framework group  C1[X(C6H5F4NOS)]
 Deg. of freedom    48
 Full point group                 C1      NOp   1
 Rotational constants (GHZ):      1.0854927      0.3205964      0.2588680
 Standard basis: 6-31G(d) (6D, 7F)
 Integral buffers will be    131072 words long.
 Raffenetti 1 integral format.
 Two-electron integral symmetry is turned off.
   209 basis functions,   408 primitive gaussians,   209 cartesian basis functions
    54 alpha electrons       54 beta electrons
       nuclear repulsion energy       903.3567531063 Hartrees.
 NAtoms=   18 NActive=   18 NUniq=   18 SFac= 7.50D-01 NAtFMM=   80 NAOKFM=F Big=F
 One-electron integrals computed using PRISM.
 NBasis=   209 RedAO= T  NBF=   209
 NBsUse=   209 1.00D-06 NBFU=   209
 Initial guess read from the read-write file.
 B after Tr=     0.000000    0.000000    0.000000
         Rot=    1.000000    0.000000    0.000000    0.000000 Ang=   0.00 deg.
 Harris functional with IExCor=  205 diagonalized for initial guess.
 ExpMin= 1.17D-01 ExpMax= 2.19D+04 ExpMxC= 3.30D+03 IAcc=1 IRadAn=         1 AccDes= 0.00D+00
 HarFok:  IExCor=  205 AccDes= 0.00D+00 IRadAn=         1 IDoV= 1
 ScaDFX=  1.000000  1.000000  1.000000  1.000000
 FoFCou: FMM=F IPFlag=           0 FMFlag=      100000 FMFlg1=           0
         NFxFlg=           0 DoJE=T BraDBF=F KetDBF=T FulRan=T
         Omega=  0.000000  0.000000  1.000000  0.000000  0.000000 ICntrl=     500 IOpCl=  0
         NMat0=    1 NMatS0=    1 NMatT0=    0 NMatD0=    1 NMtDS0=    0 NMtDT0=    0
         I1Cent=           4 NGrid=           0.
 Symmetry not used in FoFCou.
 Requested convergence on RMS density matrix=1.00D-08 within 128 cycles.
 Requested convergence on MAX density matrix=1.00D-06.
 Requested convergence on             energy=1.00D-06.
 No special actions if energy rises.
 Integral accuracy reduced to 1.0D-05 until final iterations.
 Initial convergence to 1.0D-05 achieved.  Increase integral accuracy.
 SCF Done:  E(RHF) =  -1154.67243406     A.U. after    7 cycles
             Convg  =    0.5675D-08             -V/T =  2.0019
 Calling FoFJK, ICntrl=      2127 FMM=F ISym2X=0 I1Cent= 0 IOpClX= 0 NMat=1 NMatS=1 NMatT=0.
 -------------------------------------------------------------------
 Center     Atomic                   Forces (Hartrees/Bohr)
 Number     Number              X              Y              Z
 -------------------------------------------------------------------
      1        9           0.000000000    0.000000000    0.000000000
      2        6           0.000000000    0.000000000    0.000000000
      3        6           0.000000000    0.000000000    0.000000000
      4        6           0.000000000    0.000000000    0.000000000
      5        6           0.000000000    0.000000000    0.000000000
      6        9           0.000000000    0.000000000    0.000000000
      7        9           0.000000000    0.000000000    0.000000000
      8        9           0.000000000    0.000000000    0.000000000
      9        6           0.000000000    0.000000000    0.000000000
     10        7           0.000000000    0.000000000    0.000000000
     11        6           0.000000000    0.000000000    0.000000000
     12       16           0.000000000    0.000000000    0.000000000
     13        1           0.000000000    0.000000000    0.000000000
     14        1           0.000000000    0.000000000    0.000000000
     15        1           0.000000000    0.000000000    0.000000000
     16        1           0.007497703   -0.008526074   -0.000004416
     17        8          -0.016293847    0.003076963    0.000001918
     18        1           0.009617233    0.005225293    0.000002093
 -------------------------------------------------------------------
 Cartesian Forces:  Max     0.016293847 RMS     0.003114071
 -----------------------------------------------------------------------------------------------
                       Internal Coordinate Forces (Hartree/Bohr or radian)
  Cent   Atom   N1       Length/X         N2         Alpha/Y        N3         Beta/Z          J
 -----------------------------------------------------------------------------------------------
      1  F 
      2  C 
      3  C 
      4  C 
      5  C 
      6  F 
      7  F 
      8  F 
      9  C 
     10  N 
     11  C 
     12  S 
     13  H 
     14  H 
     15  H 
         X        6   0.000000(     1)      5   0.002639(     7)      4   0.000001(    13)     0
         X       16   0.000000(     2)      6   0.000000(     8)      5  -0.000001(    14)     0
     16  H        6   0.000561(     3)     16   0.002639(     9)     17   0.000001(    15)     0
         X       18   0.000000(     4)      6  -0.000170(    10)     16   0.000000(    16)     0
     17  O       18  -0.010388(     5)     19  -0.000170(    11)      6   0.000001(    17)     0
     18  H       20  -0.010707(     6)     18   0.004109(    12)     16   0.000001(    18)     0
 -----------------------------------------------------------------------------------------------
 Internal  Forces:  Max     0.010706737 RMS     0.003754439

 GradGradGradGradGradGradGradGradGradGradGradGradGradGradGradGradGradGrad
 Berny optimization.
 Search for a local minimum.
 Step number   2 out of a maximum of   20
 All quantities printed in internal units (Hartrees-Bohrs-Radians)
 Update second derivatives using D2CorN and points    1    2
 DE= -1.37D-05 DEPred=-7.23D-06 R= 1.90D+00
 SS=  1.41D+00  RLast= 2.32D-02 DXNew= 5.0454D-01 6.9615D-02
 Trust test= 1.90D+00 RLast= 2.32D-02 DXMaxT set to 3.00D-01
 The second derivative matrix:
                          RX       RDUM       ROH      ADUM      AHOH
           RX           0.00268
           RDUM         0.00000   0.00000
           ROH         -0.00005   0.00000   1.12160
           ADUM        -0.00005   0.00000   0.00000   1.64000
           AHOH         0.00048   0.00000   0.00000   0.00000   0.16000
           DDUM        -0.00099   0.00000  -0.00349   0.00464  -0.00300
           DH1          0.00135   0.00000   0.00475  -0.00632   0.00407
           DOH2         0.00128   0.00000   0.00452  -0.00598   0.00388
           DH2          0.00036   0.00000   0.00125  -0.00169   0.00108
                         DDUM       DH1      DOH2       DH2
           DDUM        23.97689
           DH1        -32.51574  44.12085
           DOH2       -30.75597  41.80025  40.08955
           DH2         -8.53886  11.60511  11.04428   3.06625
     Eigenvalues ---    0.002681000.000001000.000001000.000001000.00000
     Eigenvalues --- 1000.000001000.000001000.000001000.00000
 RFO step:  Lambda= 0.00000000D+00 EMin= 2.67561369D-03
 Quartic linear search produced a step of  2.00000.
 Variable       Old X    -DE/DX   Delta X   Delta X   Delta X     New X
                                 (Linear)    (Quad)   (Total)
    RX        4.38828   0.00056   0.04641   0.00000   0.04641   4.43469
   RDUM       1.88973   0.00000   0.00000   0.00000   0.00000   1.88973
   ROH        1.80885  -0.02109   0.00000   0.00000   0.00000   1.80885
   ADUM       1.57080   0.00494   0.00000   0.00000   0.00000   1.57080
   AHOH       1.82422   0.00411   0.00000   0.00000   0.00000   1.82422
   DDUM       0.00000   0.00000   0.00000   0.00000   0.00000   0.00000
   DH1        3.14159   0.00000   0.00000   0.00000   0.00000   3.14159
   DOH2       3.14159   0.00000   0.00000   0.00000   0.00000   3.14159
   DH2        0.00000   0.00000   0.00000   0.00000   0.00000   0.00000
         Item               Value     Threshold  Converged?
 Maximum Force            0.000561     0.000450     NO 
 RMS     Force            0.000561     0.000300     NO 
 Maximum Displacement     0.046410     0.001800     NO 
 RMS     Displacement     0.015470     0.001200     NO 
 Predicted change in Energy=-2.314688D-05
 GradGradGradGradGradGradGradGradGradGradGradGradGradGradGradGradGradGrad

 ---------------------------------------------------------------------------------------------------
                            Z-MATRIX (ANGSTROMS AND DEGREES)
   CD    Cent   Atom    N1       Length/X        N2       Alpha/Y        N3        Beta/Z          J
 ---------------------------------------------------------------------------------------------------
      1      1  F       -1  -1.969300          2.053680          0.000070
      2      2  C       -1  -1.222250          0.944230          0.000030
      3      3  C       -1   0.140030          1.057400         -0.000020
      4      4  C       -1   0.927950         -0.123640         -0.000080
      5      5  C       -1   2.414660         -0.018650         -0.000010
      6      6  F       -1   3.007080         -1.234610         -0.000560
      7      7  F       -1   2.858290          0.654480         -1.086020
      8      8  F       -1   2.858270          0.653500          1.086650
      9      9  C       -1   0.306540         -1.341490         -0.000090
     10     10  N       -1  -1.054170         -1.389970         -0.000060
     11     11  C       -1  -1.930500         -0.312100          0.000000
     12     12  S       -1  -3.570980         -0.506610          0.000030
     13     13  H       -1   0.596860          2.043100         -0.000020
     14     14  H       -1   0.831760         -2.288990         -0.000150
     15     15  H       -1  -1.521480         -2.296390         -0.000090
     16         X        6   1.000000(    15)      5   90.000(    34)      4    0.000(    52)      0
     17         X       16   1.000000(    16)      6   90.000(    35)      5    0.000(    53)      0
     18     16  H        6   2.346739(    17)     16   90.000(    36)     17  180.000(    54)      0
     19         X       18   1.000000(    18)      6   90.000(    37)     16    0.000(    55)      0
     20     17  O       18   0.957200(    19)     19   90.000(    38)      6  180.000(    56)      0
     21     18  H       20   0.957200(    20)     18  104.520(    39)     16    0.000(    57)      0
 ---------------------------------------------------------------------------------------------------
                         Z-Matrix orientation:                         
 ---------------------------------------------------------------------
 Center     Atomic      Atomic             Coordinates (Angstroms)
 Number     Number       Type             X           Y           Z
 ---------------------------------------------------------------------
      1          9           0       -1.969300    2.053680    0.000070
      2          6           0       -1.222250    0.944230    0.000030
      3          6           0        0.140030    1.057400   -0.000020
      4          6           0        0.927950   -0.123640   -0.000080
      5          6           0        2.414660   -0.018650   -0.000010
      6          9           0        3.007080   -1.234610   -0.000560
      7          9           0        2.858290    0.654480   -1.086020
      8          9           0        2.858270    0.653500    1.086650
      9          6           0        0.306540   -1.341490   -0.000090
     10          7           0       -1.054170   -1.389970   -0.000060
     11          6           0       -1.930500   -0.312100    0.000000
     12         16           0       -3.570980   -0.506610    0.000030
     13          1           0        0.596860    2.043100   -0.000020
     14          1           0        0.831760   -2.288990   -0.000150
     15          1           0       -1.521480   -2.296390   -0.000090
     16         -1           0        2.108099   -1.672597   -0.000774
     17         -1           0        1.670112   -0.773616   -0.000368
     18          1           0        4.034921   -3.344284   -0.001514
     19         -1           0        3.135939   -3.782271   -0.001729
     20          8           0        4.454162   -4.204789   -0.001903
     21          1           0        3.726252   -4.826384   -0.002200
 ---------------------------------------------------------------------
                    Distance matrix (angstroms):
                    1          2          3          4          5
     1  F    0.000000
     2  C    1.337521   0.000000
     3  C    2.332777   1.366973   0.000000
     4  C    3.624194   2.400772   1.419744   0.000000
     5  C    4.849088   3.762214   2.516312   1.490413   0.000000
     6  F    5.964663   4.757581   3.670597   2.357337   1.352598
     7  F    5.142274   4.232525   2.954772   2.347541   1.352527
     8  F    5.142625   4.232719   2.955134   2.347566   1.352555
     9  C    4.087374   2.749857   2.404662   1.367227   2.488790
    10  N    3.563171   2.340244   2.723184   2.352104   3.730054
    11  C    2.366098   1.442215   2.482463   2.864656   4.355058
    12  S    3.020011   2.760701   4.027123   4.515201   6.005497
    13  H    2.566182   2.125247   1.086415   2.191890   2.748674
    14  H    5.167661   3.830492   3.417136   2.167485   2.767673
    15  H    4.373060   3.254406   3.742796   3.274225   4.547669
    16  X    5.523615   4.235446   3.365439   1.947311   1.682118
    17  X    4.608570   3.364038   2.386162   0.986546   1.060342
    18  H    8.073951   6.784482   5.877499   4.475022   3.699336
    19  X    7.753825   6.429123   5.691914   4.273266   3.832113
    20  O    8.968238   7.663814   6.804584   5.393510   4.656536
    21  H    8.931663   7.601820   6.890566   5.472321   4.983431
                    6          7          8          9         10
     6  F    0.000000
     7  F    2.183809   0.000000
     8  F    2.183834   2.172670   0.000000
     9  C    2.702654   3.416807   3.416477   0.000000
    10  N    4.064221   4.546034   4.545756   1.361573   0.000000
    11  C    5.023019   5.004620   5.004549   2.462517   1.389157
    12  S    6.618222   6.622926   6.622828   3.966382   2.667332
    13  H    4.068482   2.867355   2.868068   3.397019   3.809445
    14  H    2.417382   3.734964   3.734451   1.083334   2.089251
    15  H    4.651369   5.391592   5.391203   2.062399   1.019792
    16  X    1.000000   2.675039   2.675065   1.831733   3.174873
    17  X    1.414214   2.151712   2.151740   1.477095   2.793135
    18  H    2.346739   4.307056   4.307074   4.232258   5.451439
    19  X    2.550918   4.575755   4.575777   3.736698   4.824948
    20  O    3.303939   5.228251   5.228268   5.039965   6.185865
    21  H    3.663065   5.654015   5.654035   4.882512   5.887392
                   11         12         13         14         15
    11  C    0.000000
    12  S    1.651971   0.000000
    13  H    3.454637   4.885889   0.000000
    14  H    3.396789   4.749842   4.338454   0.000000
    15  H    2.026007   2.720986   4.828927   2.353252   0.000000
    16  X    4.261600   5.797539   4.011265   1.417385   3.682792
    17  X    3.630069   5.247889   3.014259   1.731818   3.536255
    18  H    6.691815   8.118012   6.390944   3.372519   5.654350
    19  X    6.140920   7.464096   6.354673   2.745748   4.888701
    20  O    7.477763   8.836257   7.342676   4.097814   6.272980
    21  H    7.237238   8.479979   7.548702   3.849215   5.825767
                   16         17         18         19         20
    16  X    0.000000
    17  X    1.000000   0.000000
    18  H    2.550918   3.492944   0.000000
    19  X    2.346739   3.346739   1.000000   0.000000
    20  O    3.451958   4.418584   0.957200   1.384280   0.000000
    21  H    3.544685   4.544518   1.513901   1.199434   0.957200
                   21
    21  H    0.000000
 Symmetry turned off by external request.
 Stoichiometry    C6H5F4NOS
 Framework group  C1[X(C6H5F4NOS)]
 Deg. of freedom    48
 Full point group                 C1      NOp   1
 Rotational constants (GHZ):      1.0816804      0.3199942      0.2582585
 Standard basis: 6-31G(d) (6D, 7F)
 Integral buffers will be    131072 words long.
 Raffenetti 1 integral format.
 Two-electron integral symmetry is turned off.
   209 basis functions,   408 primitive gaussians,   209 cartesian basis functions
    54 alpha electrons       54 beta electrons
       nuclear repulsion energy       902.9533470127 Hartrees.
 NAtoms=   18 NActive=   18 NUniq=   18 SFac= 7.50D-01 NAtFMM=   80 NAOKFM=F Big=F
 One-electron integrals computed using PRISM.
 NBasis=   209 RedAO= T  NBF=   209
 NBsUse=   209 1.00D-06 NBFU=   209
 Initial guess read from the read-write file.
 B after Tr=     0.000000    0.000000    0.000000
         Rot=    1.000000    0.000000    0.000000    0.000000 Ang=   0.00 deg.
 Harris functional with IExCor=  205 diagonalized for initial guess.
 ExpMin= 1.17D-01 ExpMax= 2.19D+04 ExpMxC= 3.30D+03 IAcc=1 IRadAn=         1 AccDes= 0.00D+00
 HarFok:  IExCor=  205 AccDes= 0.00D+00 IRadAn=         1 IDoV= 1
 ScaDFX=  1.000000  1.000000  1.000000  1.000000
 FoFCou: FMM=F IPFlag=           0 FMFlag=      100000 FMFlg1=           0
         NFxFlg=           0 DoJE=T BraDBF=F KetDBF=T FulRan=T
         Omega=  0.000000  0.000000  1.000000  0.000000  0.000000 ICntrl=     500 IOpCl=  0
         NMat0=    1 NMatS0=    1 NMatT0=    0 NMatD0=    1 NMtDS0=    0 NMtDT0=    0
         I1Cent=           4 NGrid=           0.
 Symmetry not used in FoFCou.
 Requested convergence on RMS density matrix=1.00D-08 within 128 cycles.
 Requested convergence on MAX density matrix=1.00D-06.
 Requested convergence on             energy=1.00D-06.
 No special actions if energy rises.
 Integral accuracy reduced to 1.0D-05 until final iterations.
 Initial convergence to 1.0D-05 achieved.  Increase integral accuracy.
 SCF Done:  E(RHF) =  -1154.67245739     A.U. after    7 cycles
             Convg  =    0.9964D-08             -V/T =  2.0019
 Calling FoFJK, ICntrl=      2127 FMM=F ISym2X=0 I1Cent= 0 IOpClX= 0 NMat=1 NMatS=1 NMatT=0.
 -------------------------------------------------------------------
 Center     Atomic                   Forces (Hartrees/Bohr)
 Number     Number              X              Y              Z
 -------------------------------------------------------------------
      1        9           0.000000000    0.000000000    0.000000000
      2        6           0.000000000    0.000000000    0.000000000
      3        6           0.000000000    0.000000000    0.000000000
      4        6           0.000000000    0.000000000    0.000000000
      5        6           0.000000000    0.000000000    0.000000000
      6        9           0.000000000    0.000000000    0.000000000
      7        9           0.000000000    0.000000000    0.000000000
      8        9           0.000000000    0.000000000    0.000000000
      9        6           0.000000000    0.000000000    0.000000000
     10        7           0.000000000    0.000000000    0.000000000
     11        6           0.000000000    0.000000000    0.000000000
     12       16           0.000000000    0.000000000    0.000000000
     13        1           0.000000000    0.000000000    0.000000000
     14        1           0.000000000    0.000000000    0.000000000
     15        1           0.000000000    0.000000000    0.000000000
     16        1           0.007413952   -0.008441845   -0.000004369
     17        8          -0.016248417    0.003077557    0.000001906
     18        1           0.009596466    0.005238954    0.000002108
 -------------------------------------------------------------------
 Cartesian Forces:  Max     0.016248417 RMS     0.003100934
 -----------------------------------------------------------------------------------------------
                       Internal Coordinate Forces (Hartree/Bohr or radian)
  Cent   Atom   N1       Length/X         N2         Alpha/Y        N3         Beta/Z          J
 -----------------------------------------------------------------------------------------------
      1  F 
      2  C 
      3  C 
      4  C 
      5  C 
      6  F 
      7  F 
      8  F 
      9  C 
     10  N 
     11  C 
     12  S 
     13  H 
     14  H 
     15  H 
         X        6   0.000000(     1)      5   0.002632(     7)      4   0.000001(    13)     0
         X       16   0.000000(     2)      6   0.000000(     8)      5  -0.000001(    14)     0
     16  H        6   0.000446(     3)     16   0.002632(     9)     17   0.000001(    15)     0
         X       18   0.000000(     4)      6  -0.000162(    10)     16   0.000000(    16)     0
     17  O       18  -0.010390(     5)     19  -0.000162(    11)      6   0.000001(    17)     0
     18  H       20  -0.010700(     6)     18   0.004066(    12)     16   0.000001(    18)     0
 -----------------------------------------------------------------------------------------------
 Internal  Forces:  Max     0.010699815 RMS     0.003749648

 GradGradGradGradGradGradGradGradGradGradGradGradGradGradGradGradGradGrad
 Berny optimization.
 Search for a local minimum.
 Step number   3 out of a maximum of   20
 All quantities printed in internal units (Hartrees-Bohrs-Radians)
 Update second derivatives using D2CorN and points    2    3
 DE= -2.33D-05 DEPred=-2.31D-05 R= 1.01D+00
 SS=  1.41D+00  RLast= 4.64D-02 DXNew= 5.0454D-01 1.3923D-01
 Trust test= 1.01D+00 RLast= 4.64D-02 DXMaxT set to 3.00D-01
 The second derivative matrix:
                          RX       RDUM       ROH      ADUM      AHOH
           RX           0.00247
           RDUM         0.00000   0.00000
           ROH         -0.00008   0.00000   1.12160
           ADUM        -0.00007   0.00000   0.00000   1.64000
           AHOH         0.00071   0.00000   0.00000   0.00000   0.16000
           DDUM        -0.00050   0.00000  -0.00349   0.00464  -0.00300
           DH1          0.00067   0.00000   0.00475  -0.00632   0.00407
           DOH2         0.00064   0.00000   0.00452  -0.00598   0.00388
           DH2          0.00018   0.00000   0.00125  -0.00169   0.00108
                         DDUM       DH1      DOH2       DH2
           DDUM        23.97689
           DH1        -32.51574  44.12085
           DOH2       -30.75597  41.80025  40.08955
           DH2         -8.53886  11.60511  11.04428   3.06625
     Eigenvalues ---    0.002471000.000001000.000001000.000001000.00000
     Eigenvalues --- 1000.000001000.000001000.000001000.00000
 RFO step:  Lambda= 0.00000000D+00 EMin= 2.46533035D-03
 Quartic linear search produced a step of  2.00000.
 Variable       Old X    -DE/DX   Delta X   Delta X   Delta X     New X
                                 (Linear)    (Quad)   (Total)
    RX        4.43469   0.00045   0.09282   0.00000   0.09282   4.52751
   RDUM       1.88973   0.00000   0.00000   0.00000   0.00000   1.88973
   ROH        1.80885  -0.02109   0.00000   0.00000   0.00000   1.80885
   ADUM       1.57080   0.00494   0.00000   0.00000   0.00000   1.57080
   AHOH       1.82422   0.00407   0.00000   0.00000   0.00000   1.82422
   DDUM       0.00000   0.00000   0.00000   0.00000   0.00000   0.00000
   DH1        3.14159   0.00000   0.00000   0.00000   0.00000   3.14159
   DOH2       3.14159   0.00000   0.00000   0.00000   0.00000   3.14159
   DH2        0.00000   0.00000   0.00000   0.00000   0.00000   0.00000
         Item               Value     Threshold  Converged?
 Maximum Force            0.000446     0.000450     YES
 RMS     Force            0.000446     0.000300     NO 
 Maximum Displacement     0.092820     0.001800     NO 
 RMS     Displacement     0.030940     0.001200     NO 
 Predicted change in Energy=-3.081655D-05
 GradGradGradGradGradGradGradGradGradGradGradGradGradGradGradGradGradGrad

 ---------------------------------------------------------------------------------------------------
                            Z-MATRIX (ANGSTROMS AND DEGREES)
   CD    Cent   Atom    N1       Length/X        N2       Alpha/Y        N3        Beta/Z          J
 ---------------------------------------------------------------------------------------------------
      1      1  F       -1  -1.969300          2.053680          0.000070
      2      2  C       -1  -1.222250          0.944230          0.000030
      3      3  C       -1   0.140030          1.057400         -0.000020
      4      4  C       -1   0.927950         -0.123640         -0.000080
      5      5  C       -1   2.414660         -0.018650         -0.000010
      6      6  F       -1   3.007080         -1.234610         -0.000560
      7      7  F       -1   2.858290          0.654480         -1.086020
      8      8  F       -1   2.858270          0.653500          1.086650
      9      9  C       -1   0.306540         -1.341490         -0.000090
     10     10  N       -1  -1.054170         -1.389970         -0.000060
     11     11  C       -1  -1.930500         -0.312100          0.000000
     12     12  S       -1  -3.570980         -0.506610          0.000030
     13     13  H       -1   0.596860          2.043100         -0.000020
     14     14  H       -1   0.831760         -2.288990         -0.000150
     15     15  H       -1  -1.521480         -2.296390         -0.000090
     16         X        6   1.000000(    15)      5   90.000(    34)      4    0.000(    52)      0
     17         X       16   1.000000(    16)      6   90.000(    35)      5    0.000(    53)      0
     18     16  H        6   2.395857(    17)     16   90.000(    36)     17  180.000(    54)      0
     19         X       18   1.000000(    18)      6   90.000(    37)     16    0.000(    55)      0
     20     17  O       18   0.957200(    19)     19   90.000(    38)      6  180.000(    56)      0
     21     18  H       20   0.957200(    20)     18  104.520(    39)     16    0.000(    57)      0
 ---------------------------------------------------------------------------------------------------
                         Z-Matrix orientation:                         
 ---------------------------------------------------------------------
 Center     Atomic      Atomic             Coordinates (Angstroms)
 Number     Number       Type             X           Y           Z
 ---------------------------------------------------------------------
      1          9           0       -1.969300    2.053680    0.000070
      2          6           0       -1.222250    0.944230    0.000030
      3          6           0        0.140030    1.057400   -0.000020
      4          6           0        0.927950   -0.123640   -0.000080
      5          6           0        2.414660   -0.018650   -0.000010
      6          9           0        3.007080   -1.234610   -0.000560
      7          9           0        2.858290    0.654480   -1.086020
      8          9           0        2.858270    0.653500    1.086650
      9          6           0        0.306540   -1.341490   -0.000090
     10          7           0       -1.054170   -1.389970   -0.000060
     11          6           0       -1.930500   -0.312100    0.000000
     12         16           0       -3.570980   -0.506610    0.000030
     13          1           0        0.596860    2.043100   -0.000020
     14          1           0        0.831760   -2.288990   -0.000150
     15          1           0       -1.521480   -2.296390   -0.000090
     16         -1           0        2.108099   -1.672597   -0.000774
     17         -1           0        1.670112   -0.773616   -0.000368
     18          1           0        4.056434   -3.388440   -0.001534
     19         -1           0        3.157452   -3.826427   -0.001749
     20          8           0        4.475675   -4.248945   -0.001923
     21          1           0        3.747765   -4.870540   -0.002220
 ---------------------------------------------------------------------
                    Distance matrix (angstroms):
                    1          2          3          4          5
     1  F    0.000000
     2  C    1.337521   0.000000
     3  C    2.332777   1.366973   0.000000
     4  C    3.624194   2.400772   1.419744   0.000000
     5  C    4.849088   3.762214   2.516312   1.490413   0.000000
     6  F    5.964663   4.757581   3.670597   2.357337   1.352598
     7  F    5.142274   4.232525   2.954772   2.347541   1.352527
     8  F    5.142625   4.232719   2.955134   2.347566   1.352555
     9  C    4.087374   2.749857   2.404662   1.367227   2.488790
    10  N    3.563171   2.340244   2.723184   2.352104   3.730054
    11  C    2.366098   1.442215   2.482463   2.864656   4.355058
    12  S    3.020011   2.760701   4.027123   4.515201   6.005497
    13  H    2.566182   2.125247   1.086415   2.191890   2.748674
    14  H    5.167661   3.830492   3.417136   2.167485   2.767673
    15  H    4.373060   3.254406   3.742796   3.274225   4.547669
    16  X    5.523615   4.235446   3.365439   1.947311   1.682118
    17  X    4.608570   3.364038   2.386162   0.986546   1.060342
    18  H    8.119492   6.829095   5.924839   4.521762   3.748455
    19  X    7.801234   6.476185   5.740785   4.322189   3.879550
    20  O    9.014477   7.709437   6.852381   5.441002   4.705655
    21  H    8.979402   7.649353   6.939469   5.521270   5.031701
                    6          7          8          9         10
     6  F    0.000000
     7  F    2.183809   0.000000
     8  F    2.183834   2.172670   0.000000
     9  C    2.702654   3.416807   3.416477   0.000000
    10  N    4.064221   4.546034   4.545756   1.361573   0.000000
    11  C    5.023019   5.004620   5.004549   2.462517   1.389157
    12  S    6.618222   6.622926   6.622828   3.966382   2.667332
    13  H    4.068482   2.867355   2.868068   3.397019   3.809445
    14  H    2.417382   3.734964   3.734451   1.083334   2.089251
    15  H    4.651369   5.391592   5.391203   2.062399   1.019792
    16  X    1.000000   2.675039   2.675065   1.831733   3.174873
    17  X    1.414214   2.151712   2.151740   1.477095   2.793135
    18  H    2.395857   4.353948   4.353967   4.272202   5.487455
    19  X    2.596176   4.619921   4.619943   3.781880   4.865603
    20  O    3.353057   5.275868   5.275885   5.082813   6.225185
    21  H    3.710607   5.700143   5.700163   4.929121   5.930679
                   11         12         13         14         15
    11  C    0.000000
    12  S    1.651971   0.000000
    13  H    3.454637   4.885889   0.000000
    14  H    3.396789   4.749842   4.338454   0.000000
    15  H    2.026007   2.720986   4.828927   2.353252   0.000000
    16  X    4.261600   5.797539   4.011265   1.417385   3.682792
    17  X    3.630069   5.247889   3.014259   1.731818   3.536255
    18  H    6.731066   8.153673   6.439743   3.406951   5.683810
    19  X    6.183669   7.502866   6.403748   2.787931   4.922746
    20  O    7.519164   8.874330   7.391552   4.137577   6.307007
    21  H    7.281626   8.521028   7.597804   3.894546   5.864401
                   16         17         18         19         20
    16  X    0.000000
    17  X    1.000000   0.000000
    18  H    2.596176   3.540034   0.000000
    19  X    2.395857   3.395857   1.000000   0.000000
    20  O    3.498998   4.466442   0.957200   1.384280   0.000000
    21  H    3.593793   4.593630   1.513901   1.199434   0.957200
                   21
    21  H    0.000000
 Symmetry turned off by external request.
 Stoichiometry    C6H5F4NOS
 Framework group  C1[X(C6H5F4NOS)]
 Deg. of freedom    48
 Full point group                 C1      NOp   1
 Rotational constants (GHZ):      1.0741314      0.3187850      0.2570403
 Standard basis: 6-31G(d) (6D, 7F)
 Integral buffers will be    131072 words long.
 Raffenetti 1 integral format.
 Two-electron integral symmetry is turned off.
   209 basis functions,   408 primitive gaussians,   209 cartesian basis functions
    54 alpha electrons       54 beta electrons
       nuclear repulsion energy       902.1583828492 Hartrees.
 NAtoms=   18 NActive=   18 NUniq=   18 SFac= 7.50D-01 NAtFMM=   80 NAOKFM=F Big=F
 One-electron integrals computed using PRISM.
 NBasis=   209 RedAO= T  NBF=   209
 NBsUse=   209 1.00D-06 NBFU=   209
 Initial guess read from the read-write file.
 B after Tr=     0.000000    0.000000    0.000000
         Rot=    1.000000    0.000000    0.000000    0.000000 Ang=   0.00 deg.
 Harris functional with IExCor=  205 diagonalized for initial guess.
 ExpMin= 1.17D-01 ExpMax= 2.19D+04 ExpMxC= 3.30D+03 IAcc=1 IRadAn=         1 AccDes= 0.00D+00
 HarFok:  IExCor=  205 AccDes= 0.00D+00 IRadAn=         1 IDoV= 1
 ScaDFX=  1.000000  1.000000  1.000000  1.000000
 FoFCou: FMM=F IPFlag=           0 FMFlag=      100000 FMFlg1=           0
         NFxFlg=           0 DoJE=T BraDBF=F KetDBF=T FulRan=T
         Omega=  0.000000  0.000000  1.000000  0.000000  0.000000 ICntrl=     500 IOpCl=  0
         NMat0=    1 NMatS0=    1 NMatT0=    0 NMatD0=    1 NMtDS0=    0 NMtDT0=    0
         I1Cent=           4 NGrid=           0.
 Symmetry not used in FoFCou.
 Requested convergence on RMS density matrix=1.00D-08 within 128 cycles.
 Requested convergence on MAX density matrix=1.00D-06.
 Requested convergence on             energy=1.00D-06.
 No special actions if energy rises.
 Integral accuracy reduced to 1.0D-05 until final iterations.
 Initial convergence to 1.0D-05 achieved.  Increase integral accuracy.
 SCF Done:  E(RHF) =  -1154.67248947     A.U. after    9 cycles
             Convg  =    0.7761D-08             -V/T =  2.0019
 Calling FoFJK, ICntrl=      2127 FMM=F ISym2X=0 I1Cent= 0 IOpClX= 0 NMat=1 NMatS=1 NMatT=0.
 -------------------------------------------------------------------
 Center     Atomic                   Forces (Hartrees/Bohr)
 Number     Number              X              Y              Z
 -------------------------------------------------------------------
      1        9           0.000000000    0.000000000    0.000000000
      2        6           0.000000000    0.000000000    0.000000000
      3        6           0.000000000    0.000000000    0.000000000
      4        6           0.000000000    0.000000000    0.000000000
      5        6           0.000000000    0.000000000    0.000000000
      6        9           0.000000000    0.000000000    0.000000000
      7        9           0.000000000    0.000000000    0.000000000
      8        9           0.000000000    0.000000000    0.000000000
      9        6           0.000000000    0.000000000    0.000000000
     10        7           0.000000000    0.000000000    0.000000000
     11        6           0.000000000    0.000000000    0.000000000
     12       16           0.000000000    0.000000000    0.000000000
     13        1           0.000000000    0.000000000    0.000000000
     14        1           0.000000000    0.000000000    0.000000000
     15        1           0.000000000    0.000000000    0.000000000
     16        1           0.007264139   -0.008302061   -0.000004288
     17        8          -0.016162905    0.003078509    0.000001883
     18        1           0.009557707    0.005264207    0.000002135
 -------------------------------------------------------------------
 Cartesian Forces:  Max     0.016162905 RMS     0.003077608
 -----------------------------------------------------------------------------------------------
                       Internal Coordinate Forces (Hartree/Bohr or radian)
  Cent   Atom   N1       Length/X         N2         Alpha/Y        N3         Beta/Z          J
 -----------------------------------------------------------------------------------------------
      1  F 
      2  C 
      3  C 
      4  C 
      5  C 
      6  F 
      7  F 
      8  F 
      9  C 
     10  N 
     11  C 
     12  S 
     13  H 
     14  H 
     15  H 
         X        6   0.000000(     1)      5   0.002617(     7)      4   0.000001(    13)     0
         X       16   0.000000(     2)      6   0.000000(     8)      5  -0.000001(    14)     0
     16  H        6   0.000252(     3)     16   0.002617(     9)     17   0.000001(    15)     0
         X       18   0.000000(     4)      6  -0.000146(    10)     16   0.000000(    16)     0
     17  O       18  -0.010393(     5)     19  -0.000146(    11)      6   0.000001(    17)     0
     18  H       20  -0.010687(     6)     18   0.003986(    12)     16   0.000001(    18)     0
 -----------------------------------------------------------------------------------------------
 Internal  Forces:  Max     0.010686740 RMS     0.003740982

 GradGradGradGradGradGradGradGradGradGradGradGradGradGradGradGradGradGrad
 Berny optimization.
 Search for a local minimum.
 Step number   4 out of a maximum of   20
 All quantities printed in internal units (Hartrees-Bohrs-Radians)
 Update second derivatives using D2CorN and points    3    4
 DE= -3.21D-05 DEPred=-3.08D-05 R= 1.04D+00
 SS=  1.41D+00  RLast= 9.28D-02 DXNew= 5.0454D-01 2.7846D-01
 Trust test= 1.04D+00 RLast= 9.28D-02 DXMaxT set to 3.00D-01
 The second derivative matrix:
                          RX       RDUM       ROH      ADUM      AHOH
           RX           0.00209
           RDUM         0.00000   0.00000
           ROH         -0.00009   0.00000   1.12160
           ADUM        -0.00005   0.00000   0.00000   1.64000
           AHOH         0.00079   0.00000   0.00000   0.00000   0.16000
           DDUM        -0.00025   0.00000  -0.00349   0.00464  -0.00300
           DH1          0.00034   0.00000   0.00475  -0.00632   0.00407
           DOH2         0.00032   0.00000   0.00452  -0.00598   0.00388
           DH2          0.00009   0.00000   0.00125  -0.00169   0.00108
                         DDUM       DH1      DOH2       DH2
           DDUM        23.97689
           DH1        -32.51574  44.12085
           DOH2       -30.75597  41.80025  40.08955
           DH2         -8.53886  11.60511  11.04428   3.06625
     Eigenvalues ---    0.002091000.000001000.000001000.000001000.00000
     Eigenvalues --- 1000.000001000.000001000.000001000.00000
 RFO step:  Lambda= 0.00000000D+00 EMin= 2.09395110D-03
 Quartic linear search produced a step of  1.80722.
 Variable       Old X    -DE/DX   Delta X   Delta X   Delta X     New X
                                 (Linear)    (Quad)   (Total)
    RX        4.52751   0.00025   0.16775   0.00000   0.16775   4.69526
   RDUM       1.88973   0.00000   0.00000   0.00000   0.00000   1.88973
   ROH        1.80885  -0.02108   0.00000   0.00000   0.00000   1.80885
   ADUM       1.57080   0.00494   0.00000   0.00000   0.00000   1.57080
   AHOH       1.82422   0.00399   0.00000   0.00000   0.00000   1.82422
   DDUM       0.00000   0.00000   0.00000   0.00000   0.00000   0.00000
   DH1        3.14159   0.00000   0.00000   0.00000   0.00000   3.14159
   DOH2       3.14159   0.00000   0.00000   0.00000   0.00000   3.14159
   DH2        0.00000   0.00000   0.00000   0.00000   0.00000   0.00000
         Item               Value     Threshold  Converged?
 Maximum Force            0.000252     0.000450     YES
 RMS     Force            0.000252     0.000300     YES
 Maximum Displacement     0.167746     0.001800     NO 
 RMS     Displacement     0.055915     0.001200     NO 
 Predicted change in Energy=-1.282133D-05
 GradGradGradGradGradGradGradGradGradGradGradGradGradGradGradGradGradGrad

 ---------------------------------------------------------------------------------------------------
                            Z-MATRIX (ANGSTROMS AND DEGREES)
   CD    Cent   Atom    N1       Length/X        N2       Alpha/Y        N3        Beta/Z          J
 ---------------------------------------------------------------------------------------------------
[...]
 ---------------------------------------------------------------------------------------------------
      1      1  F       -1  -1.969300          2.053680          0.000070
      2      2  C       -1  -1.222250          0.944230          0.000030
      3      3  C       -1   0.140030          1.057400         -0.000020
      4      4  C       -1   0.927950         -0.123640         -0.000080
      5      5  C       -1   2.414660         -0.018650         -0.000010
      6      6  F       -1   3.007080         -1.234610         -0.000560
      7      7  F       -1   2.858290          0.654480         -1.086020
      8      8  F       -1   2.858270          0.653500          1.086650
      9      9  C       -1   0.306540         -1.341490         -0.000090
     10     10  N       -1  -1.054170         -1.389970         -0.000060
     11     11  C       -1  -1.930500         -0.312100          0.000000
     12     12  S       -1  -3.570980         -0.506610          0.000030
     13     13  H       -1   0.596860          2.043100         -0.000020
     14     14  H       -1   0.831760         -2.288990         -0.000150
     15     15  H       -1  -1.521480         -2.296390         -0.000090
     16         X        6   1.000000(    15)      5   90.000(    34)      4    0.000(    52)      0
     17         X       16   1.000000(    16)      6   90.000(    35)      5    0.000(    53)      0
     18     16  H        6   2.481916(    17)     16   90.000(    36)     17  180.000(    54)      0
     19         X       18   1.000000(    18)      6   90.000(    37)     16    0.000(    55)      0
     20     17  O       18   0.957200(    19)     19   90.000(    38)      6  180.000(    56)      0
     21     18  H       20   0.957200(    20)     18  104.520(    39)     16    0.000(    57)      0
 ---------------------------------------------------------------------------------------------------
                         Z-Matrix orientation:                         
 ---------------------------------------------------------------------
 Center     Atomic      Atomic             Coordinates (Angstroms)
 Number     Number       Type             X           Y           Z
 ---------------------------------------------------------------------
      1          9           0       -1.969300    2.053680    0.000070
      2          6           0       -1.222250    0.944230    0.000030
      3          6           0        0.140030    1.057400   -0.000020
      4          6           0        0.927950   -0.123640   -0.000080
      5          6           0        2.414660   -0.018650   -0.000010
      6          9           0        3.007080   -1.234610   -0.000560
      7          9           0        2.858290    0.654480   -1.086020
      8          9           0        2.858270    0.653500    1.086650
      9          6           0        0.306540   -1.341490   -0.000090
     10          7           0       -1.054170   -1.389970   -0.000060
     11          6           0       -1.930500   -0.312100    0.000000
     12         16           0       -3.570980   -0.506610    0.000030
     13          1           0        0.596860    2.043100   -0.000020
     14          1           0        0.831760   -2.288990   -0.000150
     15          1           0       -1.521480   -2.296390   -0.000090
     16         -1           0        2.108099   -1.672597   -0.000774
     17         -1           0        1.670112   -0.773616   -0.000368
     18          1           0        4.094126   -3.465806   -0.001569
     19         -1           0        3.195145   -3.903793   -0.001784
     20          8           0        4.513367   -4.326311   -0.001958
     21          1           0        3.785458   -4.947905   -0.002255
 ---------------------------------------------------------------------
                    Distance matrix (angstroms):
                    1          2          3          4          5
     1  F    0.000000
     2  C    1.337521   0.000000
     3  C    2.332777   1.366973   0.000000
     4  C    3.624194   2.400772   1.419744   0.000000
     5  C    4.849088   3.762214   2.516312   1.490413   0.000000
     6  F    5.964663   4.757581   3.670597   2.357337   1.352598
     7  F    5.142274   4.232525   2.954772   2.347541   1.352527
     8  F    5.142625   4.232719   2.955134   2.347566   1.352555
     9  C    4.087374   2.749857   2.404662   1.367227   2.488790
    10  N    3.563171   2.340244   2.723184   2.352104   3.730054
    11  C    2.366098   1.442215   2.482463   2.864656   4.355058
    12  S    3.020011   2.760701   4.027123   4.515201   6.005497
    13  H    2.566182   2.125247   1.086415   2.191890   2.748674
    14  H    5.167661   3.830492   3.417136   2.167485   2.767673
    15  H    4.373060   3.254406   3.742796   3.274225   4.547669
    16  X    5.523615   4.235446   3.365439   1.947311   1.682118
    17  X    4.608570   3.364038   2.386162   0.986546   1.060342
    18  H    8.199382   6.907407   6.007851   4.603775   3.834513
    19  X    7.884350   6.558712   5.826419   4.407917   3.962763
    20  O    9.095563   7.789474   6.936168   5.524279   4.791713
    21  H    9.063081   7.732684   7.025158   5.607039   5.116312
                    6          7          8          9         10
     6  F    0.000000
     7  F    2.183809   0.000000
     8  F    2.183834   2.172670   0.000000
     9  C    2.702654   3.416807   3.416477   0.000000
    10  N    4.064221   4.546034   4.545756   1.361573   0.000000
    11  C    5.023019   5.004620   5.004549   2.462517   1.389157
    12  S    6.618222   6.622926   6.622828   3.966382   2.667332
    13  H    4.068482   2.867355   2.868068   3.397019   3.809445
    14  H    2.417382   3.734964   3.734451   1.083334   2.089251
    15  H    4.651369   5.391592   5.391203   2.062399   1.019792
    16  X    1.000000   2.675039   2.675065   1.831733   3.174873
    17  X    1.414214   2.151712   2.151740   1.477095   2.793135
    18  H    2.481916   4.436224   4.436242   4.342641   5.551041
    19  X    2.675800   4.697541   4.697562   3.861274   4.937204
    20  O    3.439116   5.359361   5.359378   5.158154   6.294408
    21  H    3.794000   5.781082   5.781101   5.010899   6.006738
                   11         12         13         14         15
    11  C    0.000000
    12  S    1.651971   0.000000
    13  H    3.454637   4.885889   0.000000
    14  H    3.396789   4.749842   4.338454   0.000000
    15  H    2.026007   2.720986   4.828927   2.353252   0.000000
    16  X    4.261600   5.797539   4.011265   1.417385   3.682792
    17  X    3.630069   5.247889   3.014259   1.731818   3.536255
    18  H    6.800146   8.216489   6.525252   3.468131   5.736076
    19  X    6.258793   7.571083   6.489732   2.862373   4.983001
    20  O    7.591925   8.941297   7.477194   4.207721   6.367100
    21  H    7.359543   8.593154   7.683835   3.974187   5.932464
                   16         17         18         19         20
    16  X    0.000000
    17  X    1.000000   0.000000
    18  H    2.675800   3.622670   0.000000
    19  X    2.481916   3.481916   1.000000   0.000000
    20  O    3.581552   4.550357   0.957200   1.384280   0.000000
    21  H    3.679834   4.679678   1.513901   1.199434   0.957200
                   21
    21  H    0.000000
 Symmetry turned off by external request.
 Stoichiometry    C6H5F4NOS
 Framework group  C1[X(C6H5F4NOS)]
 Deg. of freedom    48
 Full point group                 C1      NOp   1
 Rotational constants (GHZ):      1.0611473      0.3166509      0.2549087

 **********************************************************************

            Population analysis using the SCF density.

 **********************************************************************

 Alpha  occ. eigenvalues --  -91.90855 -26.38163 -26.36497 -26.36495 -26.33793
 Alpha  occ. eigenvalues --  -20.56700 -15.69165 -11.54976 -11.38229 -11.37602
 Alpha  occ. eigenvalues --  -11.36725 -11.31616 -11.30895  -8.91941  -6.60269
 Alpha  occ. eigenvalues --   -6.59993  -6.59866  -1.74939  -1.66134  -1.65038
 Alpha  occ. eigenvalues --   -1.64971  -1.36006  -1.34877  -1.17636  -1.12513
 Alpha  occ. eigenvalues --   -1.03572  -0.97734  -0.93180  -0.88716  -0.85443
 Alpha  occ. eigenvalues --   -0.84630  -0.84060  -0.77501  -0.76413  -0.74337
 Alpha  occ. eigenvalues --   -0.73049  -0.72450  -0.71656  -0.71322  -0.70722
 Alpha  occ. eigenvalues --   -0.68403  -0.68299  -0.66769  -0.64428  -0.62978
 Alpha  occ. eigenvalues --   -0.61333  -0.59877  -0.57745  -0.52956  -0.50454
 Alpha  occ. eigenvalues --   -0.47017  -0.43687  -0.34476  -0.31380
 Alpha virt. eigenvalues --    0.04069   0.08242   0.16480   0.19413   0.24168
 Alpha virt. eigenvalues --    0.25321   0.26097   0.26176   0.28562   0.31573
 Alpha virt. eigenvalues --    0.33450   0.34819   0.39502   0.40013   0.42222
 Alpha virt. eigenvalues --    0.42862   0.46222   0.49075   0.53737   0.55232
 Alpha virt. eigenvalues --    0.56349   0.59383   0.60792   0.64016   0.66227
 Alpha virt. eigenvalues --    0.67354   0.71440   0.72657   0.73042   0.74972
 Alpha virt. eigenvalues --    0.76693   0.77490   0.82481   0.84064   0.87097
 Alpha virt. eigenvalues --    0.88632   0.89593   0.91740   0.95216   0.99345
 Alpha virt. eigenvalues --    1.00613   1.01489   1.02693   1.04227   1.07092
 Alpha virt. eigenvalues --    1.08835   1.09294   1.11956   1.14602   1.14813
 Alpha virt. eigenvalues --    1.15559   1.16110   1.16999   1.17678   1.24039
 Alpha virt. eigenvalues --    1.27292   1.30354   1.31203   1.31899   1.32708
 Alpha virt. eigenvalues --    1.34519   1.36632   1.40018   1.41246   1.41688
 Alpha virt. eigenvalues --    1.43425   1.46925   1.51657   1.59805   1.59992
 Alpha virt. eigenvalues --    1.60770   1.62872   1.63683   1.63697   1.63809
 Alpha virt. eigenvalues --    1.66025   1.67054   1.67242   1.69267   1.70027
 Alpha virt. eigenvalues --    1.72096   1.75792   1.76983   1.82239   1.86397
 Alpha virt. eigenvalues --    1.89220   1.91736   1.93371   1.99689   2.01402
 Alpha virt. eigenvalues --    2.02740   2.03866   2.05500   2.06107   2.08646
 Alpha virt. eigenvalues --    2.09670   2.11839   2.11947   2.17587   2.19807
 Alpha virt. eigenvalues --    2.21973   2.22065   2.24083   2.27923   2.29159
 Alpha virt. eigenvalues --    2.30037   2.31947   2.33276   2.34151   2.35518
 Alpha virt. eigenvalues --    2.37435   2.38748   2.42876   2.44622   2.45145
 Alpha virt. eigenvalues --    2.46472   2.51723   2.60244   2.61493   2.62134
 Alpha virt. eigenvalues --    2.64975   2.67800   2.74592   2.82356   2.84086
 Alpha virt. eigenvalues --    2.84130   2.90794   2.92378   2.92830   2.94046
 Alpha virt. eigenvalues --    2.99872   3.06615   3.09148   3.16740   3.21550
 Alpha virt. eigenvalues --    3.29158   3.36818   3.38713   3.42501   3.44408
 Alpha virt. eigenvalues --    3.48908   3.70715   4.00954   4.35987   4.39645
 Alpha virt. eigenvalues --    4.45054   4.47899   4.59632   4.64355   4.68174
 Alpha virt. eigenvalues --    4.81799   5.00886   5.17866   5.57588   6.03125
          Condensed to atoms (all electrons):
              1          2          3          4          5          6
     1  F    9.158402   0.268069  -0.033608   0.002210  -0.000015   0.000000
     2  C    0.268069   4.575474   0.569480  -0.025840   0.000865  -0.000019
     3  C   -0.033608   0.569480   5.066465   0.354549  -0.012658   0.002146
     4  C    0.002210  -0.025840   0.354549   5.199099   0.419639  -0.044459
     5  C   -0.000015   0.000865  -0.012658   0.419639   3.551766   0.279711
     6  F    0.000000  -0.000019   0.002146  -0.044459   0.279711   9.196866
     7  F    0.000000   0.000291   0.004940  -0.055146   0.285860  -0.030341
     8  F    0.000000   0.000291   0.004934  -0.055153   0.285867  -0.030341
     9  C    0.000136  -0.023311  -0.053929   0.591136  -0.021039   0.005663
    10  N    0.001381  -0.053131  -0.021248  -0.035170   0.001171   0.000236
    11  C   -0.040745   0.376960  -0.079005  -0.001322   0.000075   0.000002
    12  S    0.003518  -0.083416   0.001577  -0.000050   0.000006   0.000000
    13  H   -0.000277  -0.017153   0.368485  -0.030102  -0.000284   0.000036
    14  H    0.000001  -0.000129   0.001903  -0.024316  -0.000152   0.004923
    15  H   -0.000018   0.003876  -0.000582   0.002364  -0.000015   0.000001
    16  H    0.000000   0.000000   0.000000   0.000008   0.000088   0.006473
    17  O    0.000000   0.000000   0.000000   0.000000   0.000003  -0.000455
    18  H    0.000000   0.000000   0.000000   0.000000  -0.000001  -0.000021
              7          8          9         10         11         12
     1  F    0.000000   0.000000   0.000136   0.001381  -0.040745   0.003518
     2  C    0.000291   0.000291  -0.023311  -0.053131   0.376960  -0.083416
     3  C    0.004940   0.004934  -0.053929  -0.021248  -0.079005   0.001577
     4  C   -0.055146  -0.055153   0.591136  -0.035170  -0.001322  -0.000050
     5  C    0.285860   0.285867  -0.021039   0.001171   0.000075   0.000006
     6  F   -0.030341  -0.030341   0.005663   0.000236   0.000002   0.000000
     7  F    9.197158  -0.034028   0.000514  -0.000006  -0.000002   0.000000
     8  F   -0.034028   9.197177   0.000510  -0.000006  -0.000002   0.000000
     9  C    0.000514   0.000510   4.730394   0.267261  -0.038398   0.003351
    10  N   -0.000006  -0.000006   0.267261   7.235789   0.211220  -0.104625
    11  C   -0.000002  -0.000002  -0.038398   0.211220   4.957226   0.447255
    12  S    0.000000   0.000000   0.003351  -0.104625   0.447255  15.944249
    13  H    0.000897   0.000894   0.002405  -0.000260   0.002619  -0.000055
    14  H    0.000082   0.000082   0.381499  -0.032594   0.001008  -0.000138
    15  H    0.000000   0.000000  -0.021523   0.309810  -0.017759   0.013841
    16  H    0.000007   0.000007  -0.000028   0.000000   0.000000   0.000000
    17  O    0.000000   0.000000  -0.000012   0.000000   0.000000   0.000000
    18  H    0.000000   0.000000  -0.000006   0.000000   0.000000   0.000000
             13         14         15         16         17         18
     1  F   -0.000277   0.000001  -0.000018   0.000000   0.000000   0.000000
     2  C   -0.017153  -0.000129   0.003876   0.000000   0.000000   0.000000
     3  C    0.368485   0.001903  -0.000582   0.000000   0.000000   0.000000
     4  C   -0.030102  -0.024316   0.002364   0.000008   0.000000   0.000000
     5  C   -0.000284  -0.000152  -0.000015   0.000088   0.000003  -0.000001
     6  F    0.000036   0.004923   0.000001   0.006473  -0.000455  -0.000021
     7  F    0.000897   0.000082   0.000000   0.000007   0.000000   0.000000
     8  F    0.000894   0.000082   0.000000   0.000007   0.000000   0.000000
     9  C    0.002405   0.381499  -0.021523  -0.000028  -0.000012  -0.000006
    10  N   -0.000260  -0.032594   0.309810   0.000000   0.000000   0.000000
    11  C    0.002619   0.001008  -0.017759   0.000000   0.000000   0.000000
    12  S   -0.000055  -0.000138   0.013841   0.000000   0.000000   0.000000
    13  H    0.390625  -0.000063   0.000008   0.000000   0.000000   0.000000
    14  H   -0.000063   0.393546  -0.002231   0.000163   0.000059   0.000040
    15  H    0.000008  -0.002231   0.270754   0.000000   0.000000   0.000000
    16  H    0.000000   0.000163   0.000000   0.314979   0.262341  -0.018601
    17  O    0.000000   0.000059   0.000000   0.262341   8.342924   0.264555
    18  H    0.000000   0.000040   0.000000  -0.018601   0.264555   0.326083
 Mulliken atomic charges:
              1
     1  F   -0.359053
     2  C    0.407694
     3  C   -0.173448
     4  C   -0.297447
     5  C    1.209113
     6  F   -0.390421
     7  F   -0.370228
     8  F   -0.370232
     9  C    0.175377
    10  N   -0.779827
    11  C    0.180869
    12  S   -0.225513
    13  H    0.282224
    14  H    0.276321
    15  H    0.441475
    16  H    0.434563
    17  O   -0.869416
    18  H    0.427950
 Sum of Mulliken atomic charges =   0.00000
 Mulliken charges with hydrogens summed into heavy atoms:
              1
     1  F   -0.359053
     2  C    0.407694
     3  C    0.108776
     4  C   -0.297447
     5  C    1.209113
     6  F   -0.390421
     7  F   -0.370228
     8  F   -0.370232
     9  C    0.451698
    10  N   -0.338353
    11  C    0.180869
    12  S   -0.225513
    17  O   -0.006903
 Sum of Mulliken charges with hydrogens summed into heavy atoms =   0.00000
 Electronic spatial extent (au):  <R**2>=           4019.7639
 Charge=              0.0000 electrons
 Dipole moment (field-independent basis, Debye):
    X=              1.1562    Y=             -1.8976    Z=             -0.0001  Tot=              2.2221
 Quadrupole moment (field-independent basis, Debye-Ang):
   XX=           -123.7532   YY=            -73.4525   ZZ=            -82.4592
   XY=             14.3541   XZ=              0.0053   YZ=             -0.0002
 Traceless Quadrupole moment (field-independent basis, Debye-Ang):
   XX=            -30.5316   YY=             19.7691   ZZ=             10.7624
   XY=             14.3541   XZ=              0.0053   YZ=             -0.0002
 Octapole moment (field-independent basis, Debye-Ang**2):
  XXX=           -104.8470  YYY=             75.1918  ZZZ=              0.0414  XYY=            -60.0466
  XXY=            125.2236  XXZ=              0.0528  XZZ=            -15.3814  YZZ=             35.7447
  YYZ=              0.0089  XYZ=             -0.0224
 Hexadecapole moment (field-independent basis, Debye-Ang**3):
 XXXX=          -4126.0214 YYYY=          -1092.1027 ZZZZ=           -143.2241 XXXY=            907.5110
 XXXZ=              0.4320 YYYX=            569.6449 YYYZ=             -0.1055 ZZZX=              0.1897
 ZZZY=             -0.1899 XXYY=          -1176.8355 XXZZ=           -587.3355 YYZZ=           -247.4806
 XXYZ=             -0.2363 YYXZ=              0.1377 ZZXY=            122.6350
 N-N= 9.008022626123D+02 E-N=-4.538878857168D+03  KE= 1.152538936795D+03
 1\1\GINC-B1\FOpt\RHF\6-31G(d)\C6H5F4N1O1S1\ANA\24-Sep-2021\1\\#HF/6-31
 G* Opt=Z-matrix NoSymm\\water interaction with atom F6\\0,1\F,-1,-1.96
 93,2.05368,0.00007\C,-1,-1.22225,0.94423,0.00003\C,-1,0.14003,1.0574,-
 0.00002\C,-1,0.92795,-0.12364,-0.00008\C,-1,2.41466,-0.01865,-0.00001\
 F,-1,3.00708,-1.23461,-0.00056\F,-1,2.85829,0.65448,-1.08602\F,-1,2.85
 827,0.6535,1.08665\C,-1,0.30654,-1.34149,-0.00009\N,-1,-1.05417,-1.389
 97,-0.00006\C,-1,-1.9305,-0.3121,0.\S,-1,-3.57098,-0.50661,0.00003\H,-
 1,0.59686,2.0431,-0.00002\H,-1,0.83176,-2.28899,-0.00015\H,-1,-1.52148
 ,-2.29639,-0.00009\X,6,RDUM,5,ADUM,4,DDUM,0\X,16,RDUM,6,ADUM,5,DDUM,0\
 H,6,RX,16,ADUM,17,DH1,0\X,18,RDUM,6,ADUM,16,DDUM,0\O,18,ROH,19,ADUM,6,
 DOH2,0\H,20,ROH,18,AHOH,16,DH2,0\\RX=2.48191564\RDUM=1.\ROH=0.9572\ADU
 M=90.\AHOH=104.52\DDUM=0.\DH1=180.\DOH2=180.\DH2=0.\\Version=EM64L-G09
 RevA.01\HF=-1154.6725086\RMSD=4.930e-09\RMSF=3.045e-03\Dipole=0.454900
 1,-0.7465708,-0.0000498\Quadrupole=-22.6994708,14.6978707,8.0016001,10
 .6719238,0.0039151,-0.0001373\PG=C01 [X(C6H5F4N1O1S1)]\\@


 THE ENLIGHTENED ONE, BECAUSE HE SAW MANKIND DROWNING  
 IN THE GREAT SEA OF BIRTH, DEATH, AND SORROW, LONGED TO SAVE 
 THEM, FOR THIS HE WAS MOVED TO PITY.                         
 BECAUSE HE SAW MEN OF THE WORLD STRAYING IN FALSE PATHS, AND 
 NONE TO GUIDE THEM, FOR THIS HE WAS MOVED TO PITY.           
                     ..................                       
 BECAUSE HE SAW THE MEN OF THE WORLD PLOUGHING THEIR FIELDS,  
 SOWING THE SEED, TRAFFICKING, HUCKSTERING, BUYING, SELLING,  
 AND AT THE END WINNOWING NOTHING BUT BITTERNESS,             
 FOR THIS HE WAS MOVED TO PITY......                   
                   BUDAH'S PITY - UPSAKA SILA SUTRA           
 Job cpu time:  0 days  0 hours  5 minutes 36.0 seconds.
 File lengths (MBytes):  RWF=     33 Int=      0 D2E=      0 Chk=      3 Scr=      1
 Normal termination of Gaussian 09 at Fri Sep 24 08:03:56 2021.
