 Entering Gaussian System, Link 0=g09
 Initial command:
 /home/ana/programs/g09/l1.exe /home/ana/programs/g09/scratch/Gau-700013.inp -scrdir=/home/ana/programs/g09/scratch/
 Entering Link 1 = /home/ana/programs/g09/l1.exe PID=    700015.
  
 Copyright (c) 1988,1990,1992,1993,1995,1998,2003,2009, Gaussian, Inc.
                  All Rights Reserved.
  
 This is part of the Gaussian(R) 09 program.  It is based on
 the Gaussian(R) 03 system (copyright 2003, Gaussian, Inc.),
 the Gaussian(R) 98 system (copyright 1998, Gaussian, Inc.),
 the Gaussian(R) 94 system (copyright 1995, Gaussian, Inc.),
 the Gaussian 92(TM) system (copyright 1992, Gaussian, Inc.),
 the Gaussian 90(TM) system (copyright 1990, Gaussian, Inc.),
 the Gaussian 88(TM) system (copyright 1988, Gaussian, Inc.),
 the Gaussian 86(TM) system (copyright 1986, Carnegie Mellon
 University), and the Gaussian 82(TM) system (copyright 1983,
 Carnegie Mellon University). Gaussian is a federally registered
 trademark of Gaussian, Inc.
  
 This software contains proprietary and confidential information,
 including trade secrets, belonging to Gaussian, Inc.
  
 This software is provided under written license and may be
 used, copied, transmitted, or stored only in accord with that
 written license.
  
 The following legend is applicable only to US Government
 contracts under FAR:
  
                    RESTRICTED RIGHTS LEGEND
  
 Use, reproduction and disclosure by the US Government is
 subject to restrictions as set forth in subparagraphs (a)
 and (c) of the Commercial Computer Software - Restricted
 Rights clause in FAR 52.227-19.
  
 Gaussian, Inc.
 340 Quinnipiac St., Bldg. 40, Wallingford CT 06492
  
  
 ---------------------------------------------------------------
 Warning -- This program may not be used in any manner that
 competes with the business of Gaussian, Inc. or will provide
 assistance to any competitor of Gaussian, Inc.  The licensee
 of this program is prohibited from giving any competitor of
 Gaussian, Inc. access to this program.  By using this program,
 the user acknowledges that Gaussian, Inc. is engaged in the
 business of creating and licensing software in the field of
 computational chemistry and represents and warrants to the
 licensee that it is not a competitor of Gaussian, Inc. and that
 it will not use this program in any manner prohibited above.
 ---------------------------------------------------------------
  

 Cite this work as:
 Gaussian 09, Revision A.01,
 M. J. Frisch, G. W. Trucks, H. B. Schlegel, G. E. Scuseria, 
 M. A. Robb, J. R. Cheeseman, G. Scalmani, V. Barone, B. Mennucci, 
 G. A. Petersson, H. Nakatsuji, M. Caricato, X. Li, H. P. Hratchian, 
 A. F. Izmaylov, J. Bloino, G. Zheng, J. L. Sonnenberg, M. Hada, 
 M. Ehara, K. Toyota, R. Fukuda, J. Hasegawa, M. Ishida, T. Nakajima, 
 Y. Honda, O. Kitao, H. Nakai, T. Vreven, J. A. Montgomery, Jr., 
 J. E. Peralta, F. Ogliaro, M. Bearpark, J. J. Heyd, E. Brothers, 
 K. N. Kudin, V. N. Staroverov, R. Kobayashi, J. Normand, 
 K. Raghavachari, A. Rendell, J. C. Burant, S. S. Iyengar, J. Tomasi, 
 M. Cossi, N. Rega, J. M. Millam, M. Klene, J. E. Knox, J. B. Cross, 
 V. Bakken, C. Adamo, J. Jaramillo, R. Gomperts, R. E. Stratmann, 
 O. Yazyev, A. J. Austin, R. Cammi, C. Pomelli, J. W. Ochterski, 
 R. L. Martin, K. Morokuma, V. G. Zakrzewski, G. A. Voth, 
 P. Salvador, J. J. Dannenberg, S. Dapprich, A. D. Daniels, 
 O. Farkas, J. B. Foresman, J. V. Ortiz, J. Cioslowski, 
 and D. J. Fox, Gaussian, Inc., Wallingford CT, 2009.
 
 ******************************************
 Gaussian 09:  EM64L-G09RevA.01  8-May-2009
                24-Sep-2021 
 ******************************************
 %NPROC=4
 Will use up to    4 processors via shared memory.
 %NoSave
 ------------------------------
 #HF/6-31G* Opt=Z-matrix NoSymm
 ------------------------------
 1/10=7,18=40,38=1/1,3;
 2/12=2,15=1,17=6,18=5,29=3,40=1/2;
 3/5=1,6=6,7=1,11=9,16=1,25=1,30=1,71=1/1,2,3;
 4//1;
 5/5=2,38=5/2;
 6/7=2,8=2,9=2,10=2,28=1/1;
 7/29=1,30=1/1,2,3,16;
 1/10=7,18=40/3(2);
 2/15=1,29=3/2;
 99//99;
 2/15=1,29=3/2;
 3/5=1,6=6,7=1,11=9,16=1,25=1,30=1,71=1/1,2,3;
 4/5=5,16=3/1;
 5/5=2,38=5/2;
 7/30=1/1,2,3,16;
 1/18=40/3(-5);
 2/15=1,29=3/2;
 6/7=2,8=2,9=2,10=2,19=2,28=1/1;
 99/9=1/99;
 ------------------------------
 water interaction with atom F6
 ------------------------------
 Symbolic Z-matrix:
 Charge =  0 Multiplicity = 1
 9                    -1   -1.9693    2.05368   0.00007 
 6                    -1   -1.22225   0.94423   0.00003 
 6                    -1    0.14003   1.0574   -0.00002 
 6                    -1    0.92795  -0.12364  -0.00008 
 6                    -1    2.41466  -0.01865  -0.00001 
 9                    -1    3.00708  -1.23461  -0.00056 
 9                    -1    2.85829   0.65448  -1.08602 
 9                    -1    2.85827   0.6535    1.08665 
 6                    -1    0.30654  -1.34149  -0.00009 
 7                    -1   -1.05417  -1.38997  -0.00006 
 6                    -1   -1.9305   -0.3121    0. 
 16                   -1   -3.57098  -0.50661   0.00003 
 1                    -1    0.59686   2.0431   -0.00002 
 1                    -1    0.83176  -2.28899  -0.00015 
 1                    -1   -1.52148  -2.29639  -0.00009 
 X                    6    RDUM     5    ADUM     4    DDUM     0
 X                    16   RDUM     6    ADUM     5    DDUM     0
 H1                   6    RX       16   ADUM     17   DH1      0
 X                    18   RDUM     6    ADUM     16   DDUM     0
 OH2                  18   ROH      19   ADUM     6    DOH2     0
 H2                   20   ROH      18   AHOH     16   DH2      0
       Variables:
  RX                    2.3257                   
       Constants:
  RDUM                  1.                       
  ROH                   0.9572                   
  ADUM                 90.                       
  AHOH                104.52                     
  DDUM                  0.                       
  DH1                 180.                       
  DOH2                180.                       
  DH2                 180.                       
 

 GradGradGradGradGradGradGradGradGradGradGradGradGradGradGradGradGradGrad
 Berny optimization.
 Initialization pass.
                       ----------------------------
                       !    Initial Parameters    !
                       ! (Angstroms and Degrees)  !
 ----------------------                            ----------------------
 !      Name          Value   Derivative information (Atomic Units)     !
 ------------------------------------------------------------------------
 !       RX          2.3257   estimate D2E/DX2                          !
 !      RDUM         1.0      Frozen                                    !
 !       ROH         0.9572   Frozen                                    !
 !      ADUM        90.0      Frozen                                    !
 !      AHOH       104.52     Frozen                                    !
 !      DDUM         0.0      Frozen                                    !
 !       DH1       180.0      Frozen                                    !
 !      DOH2       180.0      Frozen                                    !
 !       DH2       180.0      Frozen                                    !
 ------------------------------------------------------------------------
 Trust Radius=3.00D-01 FncErr=1.00D-07 GrdErr=1.00D-07
 Number of steps in this run=  20 maximum allowed number of steps= 100.
 GradGradGradGradGradGradGradGradGradGradGradGradGradGradGradGradGradGrad

 ---------------------------------------------------------------------------------------------------
                            Z-MATRIX (ANGSTROMS AND DEGREES)
   CD    Cent   Atom    N1       Length/X        N2       Alpha/Y        N3        Beta/Z          J
 ---------------------------------------------------------------------------------------------------
      1      1  F       -1  -1.969300          2.053680          0.000070
      2      2  C       -1  -1.222250          0.944230          0.000030
      3      3  C       -1   0.140030          1.057400         -0.000020
      4      4  C       -1   0.927950         -0.123640         -0.000080
      5      5  C       -1   2.414660         -0.018650         -0.000010
      6      6  F       -1   3.007080         -1.234610         -0.000560
      7      7  F       -1   2.858290          0.654480         -1.086020
      8      8  F       -1   2.858270          0.653500          1.086650
      9      9  C       -1   0.306540         -1.341490         -0.000090
     10     10  N       -1  -1.054170         -1.389970         -0.000060
     11     11  C       -1  -1.930500         -0.312100          0.000000
     12     12  S       -1  -3.570980         -0.506610          0.000030
     13     13  H       -1   0.596860          2.043100         -0.000020
     14     14  H       -1   0.831760         -2.288990         -0.000150
     15     15  H       -1  -1.521480         -2.296390         -0.000090
     16         X        6   1.000000(    15)      5   90.000(    34)      4    0.000(    52)      0
     17         X       16   1.000000(    16)      6   90.000(    35)      5    0.000(    53)      0
     18     16  H        6   2.325700(    17)     16   90.000(    36)     17  180.000(    54)      0
     19         X       18   1.000000(    18)      6   90.000(    37)     16    0.000(    55)      0
     20     17  O       18   0.957200(    19)     19   90.000(    38)      6  180.000(    56)      0
     21     18  H       20   0.957200(    20)     18  104.520(    39)     16  180.000(    57)      0
 ---------------------------------------------------------------------------------------------------
                         Z-Matrix orientation:                         
 ---------------------------------------------------------------------
 Center     Atomic      Atomic             Coordinates (Angstroms)
 Number     Number       Type             X           Y           Z
 ---------------------------------------------------------------------
      1          9           0       -1.969300    2.053680    0.000070
      2          6           0       -1.222250    0.944230    0.000030
      3          6           0        0.140030    1.057400   -0.000020
      4          6           0        0.927950   -0.123640   -0.000080
      5          6           0        2.414660   -0.018650   -0.000010
      6          9           0        3.007080   -1.234610   -0.000560
      7          9           0        2.858290    0.654480   -1.086020
      8          9           0        2.858270    0.653500    1.086650
      9          6           0        0.306540   -1.341490   -0.000090
     10          7           0       -1.054170   -1.389970   -0.000060
     11          6           0       -1.930500   -0.312100    0.000000
     12         16           0       -3.570980   -0.506610    0.000030
     13          1           0        0.596860    2.043100   -0.000020
     14          1           0        0.831760   -2.288990   -0.000150
     15          1           0       -1.521480   -2.296390   -0.000090
     16         -1           0        2.108099   -1.672597   -0.000774
     17         -1           0        1.670112   -0.773616   -0.000368
     18          1           0        4.025706   -3.325371   -0.001506
     19         -1           0        3.126725   -3.763358   -0.001720
     20          8           0        4.444947   -4.185876   -0.001895
     21          1           0        5.383079   -3.995769   -0.001794
 ---------------------------------------------------------------------
                    Distance matrix (angstroms):
                    1          2          3          4          5
     1  F    0.000000
     2  C    1.337521   0.000000
     3  C    2.332777   1.366973   0.000000
     4  C    3.624194   2.400772   1.419744   0.000000
     5  C    4.849088   3.762214   2.516312   1.490413   0.000000
     6  F    5.964663   4.757581   3.670597   2.357337   1.352598
     7  F    5.142274   4.232525   2.954772   2.347541   1.352527
     8  F    5.142625   4.232719   2.955134   2.347566   1.352555
     9  C    4.087374   2.749857   2.404662   1.367227   2.488790
    10  N    3.563171   2.340244   2.723184   2.352104   3.730054
    11  C    2.366098   1.442215   2.482463   2.864656   4.355058
    12  S    3.020011   2.760701   4.027123   4.515201   6.005497
    13  H    2.566182   2.125247   1.086415   2.191890   2.748674
    14  H    5.167661   3.830492   3.417136   2.167485   2.767673
    15  H    4.373060   3.254406   3.742796   3.274225   4.547669
    16  X    5.523615   4.235446   3.365439   1.947311   1.682118
    17  X    4.608570   3.364038   2.386162   0.986546   1.060342
    18  H    8.054458   6.765392   5.857231   4.455017   3.678298
    19  X    7.733524   6.408975   5.670983   4.252312   3.811807
    20  O    8.948443   7.644286   6.784118   5.373177   4.635498
    21  H    9.521203   8.248270   7.281764   5.902674   4.962760
                    6          7          8          9         10
     6  F    0.000000
     7  F    2.183809   0.000000
     8  F    2.183834   2.172670   0.000000
     9  C    2.702654   3.416807   3.416477   0.000000
    10  N    4.064221   4.546034   4.545756   1.361573   0.000000
    11  C    5.023019   5.004620   5.004549   2.462517   1.389157
    12  S    6.618222   6.622926   6.622828   3.966382   2.667332
    13  H    4.068482   2.867355   2.868068   3.397019   3.809445
    14  H    2.417382   3.734964   3.734451   1.083334   2.089251
    15  H    4.651369   5.391592   5.391203   2.062399   1.019792
    16  X    1.000000   2.675039   2.675065   1.831733   3.174873
    17  X    1.414214   2.151712   2.151740   1.477095   2.793135
    18  H    2.325700   4.286985   4.287004   4.215208   5.436076
    19  X    2.531577   4.556869   4.556890   3.717376   4.807583
    20  O    3.282900   5.207864   5.207882   5.021648   6.169066
    21  H    3.642715   5.401382   5.401396   5.728564   6.944665
                   11         12         13         14         15
    11  C    0.000000
    12  S    1.651971   0.000000
    13  H    3.454637   4.885889   0.000000
    14  H    3.396789   4.749842   4.338454   0.000000
    15  H    2.026007   2.720986   4.828927   2.353252   0.000000
    16  X    4.261600   5.797539   4.011265   1.417385   3.682792
    17  X    3.630069   5.247889   3.014259   1.731818   3.536255
    18  H    6.675043   8.102781   6.370044   3.357883   5.641815
    19  X    6.122639   7.447527   6.333654   2.727751   4.874198
    20  O    7.460058   8.819982   7.321743   4.080845   6.258467
    21  H    8.188886   9.609860   7.705572   4.860823   7.110614
                   16         17         18         19         20
    16  X    0.000000
    17  X    1.000000   0.000000
    18  H    2.531577   3.472791   0.000000
    19  X    2.325700   3.325700   1.000000   0.000000
    20  O    3.431826   4.398094   0.957200   1.384280   0.000000
    21  H    4.015299   4.916137   1.513901   2.268292   0.957200
                   21
    21  H    0.000000
 Symmetry turned off by external request.
 Stoichiometry    C6H5F4NOS
 Framework group  C1[X(C6H5F4NOS)]
 Deg. of freedom    48
 Full point group                 C1      NOp   1
 Rotational constants (GHZ):      1.1011665      0.3176655      0.2578224
 Standard basis: 6-31G(d) (6D, 7F)
 Integral buffers will be    131072 words long.
 Raffenetti 1 integral format.
 Two-electron integral symmetry is turned off.
   209 basis functions,   408 primitive gaussians,   209 cartesian basis functions
    54 alpha electrons       54 beta electrons
       nuclear repulsion energy       902.8170988631 Hartrees.
 NAtoms=   18 NActive=   18 NUniq=   18 SFac= 7.50D-01 NAtFMM=   80 NAOKFM=F Big=F
 One-electron integrals computed using PRISM.
 NBasis=   209 RedAO= T  NBF=   209
 NBsUse=   209 1.00D-06 NBFU=   209
 Harris functional with IExCor=  205 diagonalized for initial guess.
 ExpMin= 1.17D-01 ExpMax= 2.19D+04 ExpMxC= 3.30D+03 IAcc=1 IRadAn=         1 AccDes= 0.00D+00
 HarFok:  IExCor=  205 AccDes= 0.00D+00 IRadAn=         1 IDoV= 1
 ScaDFX=  1.000000  1.000000  1.000000  1.000000
 FoFCou: FMM=F IPFlag=           0 FMFlag=      100000 FMFlg1=           0
         NFxFlg=           0 DoJE=T BraDBF=F KetDBF=T FulRan=T
         Omega=  0.000000  0.000000  1.000000  0.000000  0.000000 ICntrl=     500 IOpCl=  0
         NMat0=    1 NMatS0=    1 NMatT0=    0 NMatD0=    1 NMtDS0=    0 NMtDT0=    0
         I1Cent=           4 NGrid=           0.
 Symmetry not used in FoFCou.
 Requested convergence on RMS density matrix=1.00D-08 within 128 cycles.
 Requested convergence on MAX density matrix=1.00D-06.
 Requested convergence on             energy=1.00D-06.
 No special actions if energy rises.
 Integral accuracy reduced to 1.0D-05 until final iterations.
 Initial convergence to 1.0D-05 achieved.  Increase integral accuracy.
 SCF Done:  E(RHF) =  -1154.67483473     A.U. after   15 cycles
             Convg  =    0.5633D-08             -V/T =  2.0019

 **********************************************************************

            Population analysis using the SCF density.

 **********************************************************************

 Alpha  occ. eigenvalues --  -91.90592 -26.38310 -26.36569 -26.36566 -26.33578
 Alpha  occ. eigenvalues --  -20.56473 -15.68844 -11.54995 -11.37959 -11.37346
 Alpha  occ. eigenvalues --  -11.36385 -11.31410 -11.30619  -8.91680  -6.60007
 Alpha  occ. eigenvalues --   -6.59731  -6.59605  -1.75047  -1.66261  -1.65050
 Alpha  occ. eigenvalues --   -1.64828  -1.35687  -1.34672  -1.17415  -1.12238
 Alpha  occ. eigenvalues --   -1.03456  -0.97551  -0.93033  -0.88471  -0.85328
 Alpha  occ. eigenvalues --   -0.84727  -0.84150  -0.77287  -0.76243  -0.74100
 Alpha  occ. eigenvalues --   -0.73162  -0.72485  -0.71454  -0.71168  -0.70490
 Alpha  occ. eigenvalues --   -0.68456  -0.68398  -0.66862  -0.64268  -0.62666
 Alpha  occ. eigenvalues --   -0.61110  -0.59711  -0.57611  -0.52701  -0.50289
 Alpha  occ. eigenvalues --   -0.46790  -0.43411  -0.34214  -0.31125
 Alpha virt. eigenvalues --    0.04335   0.08526   0.17291   0.20226   0.24350
 Alpha virt. eigenvalues --    0.25138   0.26184   0.26312   0.29216   0.32712
 Alpha virt. eigenvalues --    0.33605   0.35146   0.39996   0.40064   0.42426
 Alpha virt. eigenvalues --    0.43124   0.46487   0.49376   0.53949   0.55542
 Alpha virt. eigenvalues --    0.56601   0.59584   0.61061   0.64250   0.66415
 Alpha virt. eigenvalues --    0.67270   0.71776   0.72822   0.73214   0.75183
 Alpha virt. eigenvalues --    0.76966   0.77707   0.82730   0.84289   0.87330
 Alpha virt. eigenvalues --    0.88824   0.89812   0.91964   0.95477   0.99652
 Alpha virt. eigenvalues --    0.99811   1.02416   1.04308   1.05042   1.07396
 Alpha virt. eigenvalues --    1.09096   1.09521   1.11955   1.14177   1.15083
 Alpha virt. eigenvalues --    1.15792   1.16230   1.17195   1.18013   1.24315
 Alpha virt. eigenvalues --    1.27792   1.30717   1.31117   1.32358   1.32722
 Alpha virt. eigenvalues --    1.34715   1.36959   1.40211   1.41493   1.41941
 Alpha virt. eigenvalues --    1.43575   1.47206   1.51866   1.59888   1.60039
 Alpha virt. eigenvalues --    1.60660   1.63065   1.63678   1.63858   1.64282
 Alpha virt. eigenvalues --    1.66220   1.67317   1.68579   1.69487   1.70777
 Alpha virt. eigenvalues --    1.72799   1.76064   1.77879   1.83822   1.87106
 Alpha virt. eigenvalues --    1.89245   1.91740   1.93744   1.99790   2.01554
 Alpha virt. eigenvalues --    2.02818   2.04090   2.05602   2.06248   2.08531
 Alpha virt. eigenvalues --    2.09861   2.11747   2.11973   2.17805   2.20044
 Alpha virt. eigenvalues --    2.22107   2.22124   2.24206   2.27890   2.29363
 Alpha virt. eigenvalues --    2.30145   2.31981   2.33496   2.34138   2.35487
 Alpha virt. eigenvalues --    2.37652   2.38981   2.43045   2.44700   2.45420
 Alpha virt. eigenvalues --    2.46572   2.51988   2.60344   2.61758   2.62924
 Alpha virt. eigenvalues --    2.65180   2.67869   2.74685   2.82605   2.84281
 Alpha virt. eigenvalues --    2.84406   2.90890   2.92600   2.93072   2.94321
 Alpha virt. eigenvalues --    3.00029   3.06592   3.09387   3.16847   3.21742
 Alpha virt. eigenvalues --    3.29344   3.36759   3.38909   3.42713   3.44565
 Alpha virt. eigenvalues --    3.49128   3.70979   4.02293   4.36284   4.39911
 Alpha virt. eigenvalues --    4.45366   4.48196   4.59916   4.64789   4.68099
 Alpha virt. eigenvalues --    4.82097   5.00995   5.19349   5.58030   6.04227
          Condensed to atoms (all electrons):
              1          2          3          4          5          6
     1  F    9.159445   0.267770  -0.033678   0.002216  -0.000015   0.000000
     2  C    0.267770   4.576112   0.569869  -0.026011   0.000866  -0.000019
     3  C   -0.033678   0.569869   5.065828   0.354341  -0.012921   0.002124
     4  C    0.002216  -0.026011   0.354341   5.202614   0.420818  -0.043930
     5  C   -0.000015   0.000866  -0.012921   0.420818   3.554510   0.277668
     6  F    0.000000  -0.000019   0.002124  -0.043930   0.277668   9.197774
     7  F    0.000000   0.000292   0.004968  -0.055554   0.285638  -0.030235
     8  F    0.000000   0.000291   0.004962  -0.055561   0.285645  -0.030235
     9  C    0.000134  -0.023222  -0.053178   0.590142  -0.021067   0.005449
    10  N    0.001382  -0.053142  -0.021357  -0.035241   0.001166   0.000229
    11  C   -0.040753   0.377400  -0.078888  -0.001271   0.000076   0.000002
    12  S    0.003490  -0.083551   0.001604  -0.000049   0.000006   0.000000
    13  H   -0.000275  -0.017108   0.368704  -0.030446  -0.000296   0.000035
    14  H    0.000000  -0.000120   0.001818  -0.023705  -0.000070   0.004584
    15  H   -0.000018   0.003834  -0.000571   0.002322  -0.000016   0.000001
    16  H    0.000000   0.000000  -0.000001   0.000007   0.000131   0.008785
    17  O    0.000000   0.000000   0.000000   0.000000   0.000008  -0.000812
    18  H    0.000000   0.000000   0.000000   0.000000   0.000000  -0.000021
              7          8          9         10         11         12
     1  F    0.000000   0.000000   0.000134   0.001382  -0.040753   0.003490
     2  C    0.000292   0.000291  -0.023222  -0.053142   0.377400  -0.083551
     3  C    0.004968   0.004962  -0.053178  -0.021357  -0.078888   0.001604
     4  C   -0.055554  -0.055561   0.590142  -0.035241  -0.001271  -0.000049
     5  C    0.285638   0.285645  -0.021067   0.001166   0.000076   0.000006
     6  F   -0.030235  -0.030235   0.005449   0.000229   0.000002   0.000000
     7  F    9.198463  -0.034030   0.000494  -0.000006  -0.000002   0.000000
     8  F   -0.034030   9.198482   0.000490  -0.000006  -0.000002   0.000000
     9  C    0.000494   0.000490   4.731826   0.269143  -0.038522   0.003325
    10  N   -0.000006  -0.000006   0.269143   7.232259   0.211959  -0.104246
    11  C   -0.000002  -0.000002  -0.038522   0.211959   4.955616   0.447284
    12  S    0.000000   0.000000   0.003325  -0.104246   0.447284  15.945221
    13  H    0.000888   0.000884   0.002412  -0.000265   0.002630  -0.000056
    14  H    0.000076   0.000076   0.379931  -0.031248   0.000968  -0.000132
    15  H    0.000000   0.000000  -0.021256   0.309646  -0.017811   0.013596
    16  H    0.000012   0.000012  -0.000002   0.000000   0.000000   0.000000
    17  O    0.000000   0.000000  -0.000012   0.000000   0.000000   0.000000
    18  H    0.000000   0.000000   0.000001   0.000000   0.000000   0.000000
             13         14         15         16         17         18
     1  F   -0.000275   0.000000  -0.000018   0.000000   0.000000   0.000000
     2  C   -0.017108  -0.000120   0.003834   0.000000   0.000000   0.000000
     3  C    0.368704   0.001818  -0.000571  -0.000001   0.000000   0.000000
     4  C   -0.030446  -0.023705   0.002322   0.000007   0.000000   0.000000
     5  C   -0.000296  -0.000070  -0.000016   0.000131   0.000008   0.000000
     6  F    0.000035   0.004584   0.000001   0.008785  -0.000812  -0.000021
     7  F    0.000888   0.000076   0.000000   0.000012   0.000000   0.000000
     8  F    0.000884   0.000076   0.000000   0.000012   0.000000   0.000000
     9  C    0.002412   0.379931  -0.021256  -0.000002  -0.000012   0.000001
    10  N   -0.000265  -0.031248   0.309646   0.000000   0.000000   0.000000
    11  C    0.002630   0.000968  -0.017811   0.000000   0.000000   0.000000
    12  S   -0.000056  -0.000132   0.013596   0.000000   0.000000   0.000000
    13  H    0.392667  -0.000061   0.000008   0.000000   0.000000   0.000000
    14  H   -0.000061   0.380060  -0.002095   0.000106   0.000059  -0.000004
    15  H    0.000008  -0.002095   0.268802   0.000000   0.000000   0.000000
    16  H    0.000000   0.000106   0.000000   0.310983   0.261762  -0.018480
    17  O    0.000000   0.000059   0.000000   0.261762   8.353652   0.266586
    18  H    0.000000  -0.000004   0.000000  -0.018480   0.266586   0.316573
 Mulliken atomic charges:
              1
     1  F   -0.359697
     2  C    0.406740
     3  C   -0.173626
     4  C   -0.300692
     5  C    1.207852
     6  F   -0.391400
     7  F   -0.371005
     8  F   -0.371009
     9  C    0.173913
    10  N   -0.780275
    11  C    0.181315
    12  S   -0.226493
    13  H    0.280279
    14  H    0.289756
    15  H    0.443558
    16  H    0.436683
    17  O   -0.881243
    18  H    0.435345
 Sum of Mulliken atomic charges =   0.00000
 Mulliken charges with hydrogens summed into heavy atoms:
              1
     1  F   -0.359697
     2  C    0.406740
     3  C    0.106653
     4  C   -0.300692
     5  C    1.207852
     6  F   -0.391400
     7  F   -0.371005
     8  F   -0.371009
     9  C    0.463670
    10  N   -0.336717
    11  C    0.181315
    12  S   -0.226493
    17  O   -0.009215
 Sum of Mulliken charges with hydrogens summed into heavy atoms =   0.00000
 Electronic spatial extent (au):  <R**2>=           3973.1992
 Charge=              0.0000 electrons
 Dipole moment (field-independent basis, Debye):
    X=              4.2445    Y=             -0.4838    Z=              0.0006  Tot=              4.2720
 Quadrupole moment (field-independent basis, Debye-Ang):
   XX=            -94.7752   YY=            -87.0756   ZZ=            -82.4645
   XY=              6.9553   XZ=              0.0022   YZ=             -0.0067
 Traceless Quadrupole moment (field-independent basis, Debye-Ang):
   XX=             -6.6701   YY=              1.0295   ZZ=              5.6406
   XY=              6.9553   XZ=              0.0022   YZ=             -0.0067
 Octapole moment (field-independent basis, Debye-Ang**2):
  XXX=            100.4549  YYY=            164.1821  ZZZ=              0.0395  XYY=            -56.4310
  XXY=             22.7278  XXZ=              0.0077  XZZ=            -15.5903  YZZ=             34.3326
  YYZ=              0.0519  XYZ=             -0.0218
 Hexadecapole moment (field-independent basis, Debye-Ang**3):
 XXXX=          -2836.9384 YYYY=          -1595.8059 ZZZZ=           -143.2418 XXXY=            112.2727
 XXXZ=              0.0781 YYYX=            673.1643 YYYZ=             -0.3550 ZZZX=              0.1825
 ZZZY=             -0.1743 XXYY=           -847.4750 XXZZ=           -589.1713 YYZZ=           -236.0341
 XXYZ=             -0.0920 YYXZ=              0.1947 ZZXY=            117.4510
 N-N= 9.028170988631D+02 E-N=-4.543072946761D+03  KE= 1.152540760140D+03
 Calling FoFJK, ICntrl=      2127 FMM=F ISym2X=0 I1Cent= 0 IOpClX= 0 NMat=1 NMatS=1 NMatT=0.
 -------------------------------------------------------------------
 Center     Atomic                   Forces (Hartrees/Bohr)
 Number     Number              X              Y              Z
 -------------------------------------------------------------------
      1        9           0.000000000    0.000000000    0.000000000
      2        6           0.000000000    0.000000000    0.000000000
      3        6           0.000000000    0.000000000    0.000000000
      4        6           0.000000000    0.000000000    0.000000000
      5        6           0.000000000    0.000000000    0.000000000
      6        9           0.000000000    0.000000000    0.000000000
      7        9           0.000000000    0.000000000    0.000000000
      8        9           0.000000000    0.000000000    0.000000000
      9        6           0.000000000    0.000000000    0.000000000
     10        7           0.000000000    0.000000000    0.000000000
     11        6           0.000000000    0.000000000    0.000000000
     12       16           0.000000000    0.000000000    0.000000000
     13        1           0.000000000    0.000000000    0.000000000
     14        1           0.000000000    0.000000000    0.000000000
     15        1           0.000000000    0.000000000    0.000000000
     16        1           0.005111339   -0.009781025   -0.000005065
     17        8           0.005213701    0.013266393    0.000006757
     18        1          -0.010066093   -0.003233341   -0.000001705
 -------------------------------------------------------------------
 Cartesian Forces:  Max     0.013266393 RMS     0.002843950
 -----------------------------------------------------------------------------------------------
                       Internal Coordinate Forces (Hartree/Bohr or radian)
  Cent   Atom   N1       Length/X         N2         Alpha/Y        N3         Beta/Z          J
 -----------------------------------------------------------------------------------------------
      1  F 
      2  C 
      3  C 
      4  C 
      5  C 
      6  F 
      7  F 
      8  F 
      9  C 
     10  N 
     11  C 
     12  S 
     13  H 
     14  H 
     15  H 
         X        6   0.000000(     1)      5  -0.000550(     7)      4   0.000000(    13)     0
         X       16   0.000000(     2)      6   0.000000(     8)      5   0.000000(    14)     0
     16  H        6  -0.000113(     3)     16  -0.000550(     9)     17   0.000000(    15)     0
         X       18   0.000000(     4)      6  -0.002058(    10)     16   0.000000(    16)     0
     17  O       18  -0.011145(     5)     19  -0.002058(    11)      6  -0.000001(    17)     0
     18  H       20  -0.010508(     6)     18   0.002116(    12)     16   0.000000(    18)     0
 -----------------------------------------------------------------------------------------------
 Internal  Forces:  Max     0.011144811 RMS     0.003713201

 GradGradGradGradGradGradGradGradGradGradGradGradGradGradGradGradGradGrad
 Berny optimization.
 Search for a local minimum.
 Step number   1 out of a maximum of   20
 All quantities printed in internal units (Hartrees-Bohrs-Radians)
 Second derivative matrix not updated -- first step.
 The second derivative matrix:
                          RX       RDUM       ROH      ADUM      AHOH
           RX           0.02624
           RDUM         0.00000   0.00000
           ROH          0.00000   0.00000   1.12160
           ADUM         0.00000   0.00000   0.00000   1.64004
           AHOH         0.00000   0.00000   0.00000  -0.00001   0.16000
           DDUM        -0.00342   0.00000  -0.00253   0.05604  -0.00680
           DH1          0.00271   0.00000   0.00200  -0.04436   0.00539
           DOH2        -0.00074   0.00000  -0.00054   0.01218  -0.00146
           DH2         -0.00071   0.00000  -0.00053   0.01168  -0.00142
                         DDUM       DH1      DOH2       DH2
           DDUM        70.89854
           DH1        -56.17490  44.51751
           DOH2        15.22007 -12.05044   3.58584
           DH2         14.72364 -11.65739   3.16963   3.06625
     Eigenvalues ---    0.026241000.000001000.000001000.000001000.00000
     Eigenvalues --- 1000.000001000.000001000.000001000.00000
 RFO step:  Lambda=-4.87934511D-07 EMin= 2.62398416D-02
 Linear search not attempted -- first point.
 Variable       Old X    -DE/DX   Delta X   Delta X   Delta X     New X
                                 (Linear)    (Quad)   (Total)
    RX        4.39494  -0.00011   0.00000  -0.00431  -0.00431   4.39062
   RDUM       1.88973   0.00000   0.00000   0.00000   0.00000   1.88973
   ROH        1.80885  -0.02165   0.00000   0.00000   0.00000   1.80885
   ADUM       1.57080  -0.00521   0.00000   0.00000   0.00000   1.57080
   AHOH       1.82422   0.00212   0.00000   0.00000   0.00000   1.82422
   DDUM       0.00000   0.00000   0.00000   0.00000   0.00000   0.00000
   DH1        3.14159   0.00000   0.00000   0.00000   0.00000   3.14159
   DOH2       3.14159   0.00000   0.00000   0.00000   0.00000   3.14159
   DH2        3.14159   0.00000   0.00000   0.00000   0.00000   3.14159
         Item               Value     Threshold  Converged?
 Maximum Force            0.000113     0.000450     YES
 RMS     Force            0.000113     0.000300     YES
 Maximum Displacement     0.004312     0.001800     NO 
 RMS     Displacement     0.001437     0.001200     NO 
 Predicted change in Energy=-2.439673D-07
 GradGradGradGradGradGradGradGradGradGradGradGradGradGradGradGradGradGrad

 ---------------------------------------------------------------------------------------------------
                            Z-MATRIX (ANGSTROMS AND DEGREES)
   CD    Cent   Atom    N1       Length/X        N2       Alpha/Y        N3        Beta/Z          J
 ---------------------------------------------------------------------------------------------------
      1      1  F       -1  -1.969300          2.053680          0.000070
      2      2  C       -1  -1.222250          0.944230          0.000030
      3      3  C       -1   0.140030          1.057400         -0.000020
      4      4  C       -1   0.927950         -0.123640         -0.000080
      5      5  C       -1   2.414660         -0.018650         -0.000010
      6      6  F       -1   3.007080         -1.234610         -0.000560
      7      7  F       -1   2.858290          0.654480         -1.086020
      8      8  F       -1   2.858270          0.653500          1.086650
      9      9  C       -1   0.306540         -1.341490         -0.000090
     10     10  N       -1  -1.054170         -1.389970         -0.000060
     11     11  C       -1  -1.930500         -0.312100          0.000000
     12     12  S       -1  -3.570980         -0.506610          0.000030
     13     13  H       -1   0.596860          2.043100         -0.000020
     14     14  H       -1   0.831760         -2.288990         -0.000150
     15     15  H       -1  -1.521480         -2.296390         -0.000090
     16         X        6   1.000000(    15)      5   90.000(    34)      4    0.000(    52)      0
     17         X       16   1.000000(    16)      6   90.000(    35)      5    0.000(    53)      0
     18     16  H        6   2.323418(    17)     16   90.000(    36)     17  180.000(    54)      0
     19         X       18   1.000000(    18)      6   90.000(    37)     16    0.000(    55)      0
     20     17  O       18   0.957200(    19)     19   90.000(    38)      6  180.000(    56)      0
     21     18  H       20   0.957200(    20)     18  104.520(    39)     16  180.000(    57)      0
 ---------------------------------------------------------------------------------------------------
                         Z-Matrix orientation:                         
 ---------------------------------------------------------------------
 Center     Atomic      Atomic             Coordinates (Angstroms)
 Number     Number       Type             X           Y           Z
 ---------------------------------------------------------------------
      1          9           0       -1.969300    2.053680    0.000070
      2          6           0       -1.222250    0.944230    0.000030
      3          6           0        0.140030    1.057400   -0.000020
      4          6           0        0.927950   -0.123640   -0.000080
      5          6           0        2.414660   -0.018650   -0.000010
      6          9           0        3.007080   -1.234610   -0.000560
      7          9           0        2.858290    0.654480   -1.086020
      8          9           0        2.858270    0.653500    1.086650
      9          6           0        0.306540   -1.341490   -0.000090
     10          7           0       -1.054170   -1.389970   -0.000060
     11          6           0       -1.930500   -0.312100    0.000000
     12         16           0       -3.570980   -0.506610    0.000030
     13          1           0        0.596860    2.043100   -0.000020
     14          1           0        0.831760   -2.288990   -0.000150
     15          1           0       -1.521480   -2.296390   -0.000090
     16         -1           0        2.108099   -1.672597   -0.000774
     17         -1           0        1.670112   -0.773616   -0.000368
     18          1           0        4.024707   -3.323319   -0.001505
     19         -1           0        3.125725   -3.761306   -0.001719
     20          8           0        4.443948   -4.183824   -0.001894
     21          1           0        5.382079   -3.993718   -0.001793
 ---------------------------------------------------------------------
                    Distance matrix (angstroms):
                    1          2          3          4          5
     1  F    0.000000
     2  C    1.337521   0.000000
     3  C    2.332777   1.366973   0.000000
     4  C    3.624194   2.400772   1.419744   0.000000
     5  C    4.849088   3.762214   2.516312   1.490413   0.000000
     6  F    5.964663   4.757581   3.670597   2.357337   1.352598
     7  F    5.142274   4.232525   2.954772   2.347541   1.352527
     8  F    5.142625   4.232719   2.955134   2.347566   1.352555
     9  C    4.087374   2.749857   2.404662   1.367227   2.488790
    10  N    3.563171   2.340244   2.723184   2.352104   3.730054
    11  C    2.366098   1.442215   2.482463   2.864656   4.355058
    12  S    3.020011   2.760701   4.027123   4.515201   6.005497
    13  H    2.566182   2.125247   1.086415   2.191890   2.748674
    14  H    5.167661   3.830492   3.417136   2.167485   2.767673
    15  H    4.373060   3.254406   3.742796   3.274225   4.547669
    16  X    5.523615   4.235446   3.365439   1.947311   1.682118
    17  X    4.608570   3.364038   2.386162   0.986546   1.060342
    18  H    8.052344   6.763323   5.855033   4.452848   3.676016
    19  X    7.731323   6.406790   5.668713   4.250039   3.809605
    20  O    8.946296   7.642169   6.781898   5.370972   4.633216
    21  H    9.519128   8.246242   7.279621   5.900574   4.960519
                    6          7          8          9         10
     6  F    0.000000
     7  F    2.183809   0.000000
     8  F    2.183834   2.172670   0.000000
     9  C    2.702654   3.416807   3.416477   0.000000
    10  N    4.064221   4.546034   4.545756   1.361573   0.000000
    11  C    5.023019   5.004620   5.004549   2.462517   1.389157
    12  S    6.618222   6.622926   6.622828   3.966382   2.667332
    13  H    4.068482   2.867355   2.868068   3.397019   3.809445
    14  H    2.417382   3.734964   3.734451   1.083334   2.089251
    15  H    4.651369   5.391592   5.391203   2.062399   1.019792
    16  X    1.000000   2.675039   2.675065   1.831733   3.174873
    17  X    1.414214   2.151712   2.151740   1.477095   2.793135
    18  H    2.323418   4.284809   4.284828   4.213361   5.434412
    19  X    2.529481   4.554821   4.554843   3.715282   4.805701
    20  O    3.280618   5.205653   5.205671   5.019662   6.167246
    21  H    3.640508   5.399148   5.399162   5.726728   6.942969
                   11         12         13         14         15
    11  C    0.000000
    12  S    1.651971   0.000000
    13  H    3.454637   4.885889   0.000000
    14  H    3.396789   4.749842   4.338454   0.000000
    15  H    2.026007   2.720986   4.828927   2.353252   0.000000
    16  X    4.261600   5.797539   4.011265   1.417385   3.682792
    17  X    3.630069   5.247889   3.014259   1.731818   3.536255
    18  H    6.673225   8.101130   6.367778   3.356300   5.640458
    19  X    6.120657   7.445731   6.331374   2.725802   4.872627
    20  O    7.458139   8.818218   7.319472   4.079007   6.256895
    21  H    8.187071   9.608184   7.703343   4.859167   7.109153
                   16         17         18         19         20
    16  X    0.000000
    17  X    1.000000   0.000000
    18  H    2.529481   3.470606   0.000000
    19  X    2.323418   3.323418   1.000000   0.000000
    20  O    3.429644   4.395872   0.957200   1.384280   0.000000
    21  H    4.013297   4.914038   1.513901   2.268292   0.957200
                   21
    21  H    0.000000
 Symmetry turned off by external request.
 Stoichiometry    C6H5F4NOS
 Framework group  C1[X(C6H5F4NOS)]
 Deg. of freedom    48
 Full point group                 C1      NOp   1
 Rotational constants (GHZ):      1.1015257      0.3177210      0.2578787
 Standard basis: 6-31G(d) (6D, 7F)
 Integral buffers will be    131072 words long.
 Raffenetti 1 integral format.
 Two-electron integral symmetry is turned off.
   209 basis functions,   408 primitive gaussians,   209 cartesian basis functions
    54 alpha electrons       54 beta electrons
       nuclear repulsion energy       902.8543281760 Hartrees.
 NAtoms=   18 NActive=   18 NUniq=   18 SFac= 7.50D-01 NAtFMM=   80 NAOKFM=F Big=F
 One-electron integrals computed using PRISM.
 NBasis=   209 RedAO= T  NBF=   209
 NBsUse=   209 1.00D-06 NBFU=   209
 Initial guess read from the read-write file.
 B after Tr=     0.000000    0.000000    0.000000
         Rot=    1.000000    0.000000    0.000000    0.000000 Ang=   0.00 deg.
 Requested convergence on RMS density matrix=1.00D-08 within 128 cycles.
 Requested convergence on MAX density matrix=1.00D-06.
 Requested convergence on             energy=1.00D-06.
 No special actions if energy rises.
 SCF Done:  E(RHF) =  -1154.67483520     A.U. after    5 cycles
             Convg  =    0.5222D-08             -V/T =  2.0019
 Calling FoFJK, ICntrl=      2127 FMM=F ISym2X=0 I1Cent= 0 IOpClX= 0 NMat=1 NMatS=1 NMatT=0.
 -------------------------------------------------------------------
 Center     Atomic                   Forces (Hartrees/Bohr)
 Number     Number              X              Y              Z
 -------------------------------------------------------------------
      1        9           0.000000000    0.000000000    0.000000000
      2        6           0.000000000    0.000000000    0.000000000
      3        6           0.000000000    0.000000000    0.000000000
      4        6           0.000000000    0.000000000    0.000000000
      5        6           0.000000000    0.000000000    0.000000000
      6        9           0.000000000    0.000000000    0.000000000
      7        9           0.000000000    0.000000000    0.000000000
      8        9           0.000000000    0.000000000    0.000000000
      9        6           0.000000000    0.000000000    0.000000000
     10        7           0.000000000    0.000000000    0.000000000
     11        6           0.000000000    0.000000000    0.000000000
     12       16           0.000000000    0.000000000    0.000000000
     13        1           0.000000000    0.000000000    0.000000000
     14        1           0.000000000    0.000000000    0.000000000
     15        1           0.000000000    0.000000000    0.000000000
     16        1           0.005117389   -0.009790440   -0.000005071
     17        8           0.005212845    0.013267552    0.000006759
     18        1          -0.010066551   -0.003234208   -0.000001705
 -------------------------------------------------------------------
 Cartesian Forces:  Max     0.013267552 RMS     0.002844871
 -----------------------------------------------------------------------------------------------
                       Internal Coordinate Forces (Hartree/Bohr or radian)
  Cent   Atom   N1       Length/X         N2         Alpha/Y        N3         Beta/Z          J
 -----------------------------------------------------------------------------------------------
      1  F 
      2  C 
      3  C 
      4  C 
      5  C 
      6  F 
      7  F 
      8  F 
      9  C 
     10  N 
     11  C 
     12  S 
     13  H 
     14  H 
     15  H 
         X        6   0.000000(     1)      5  -0.000553(     7)      4   0.000000(    13)     0
         X       16   0.000000(     2)      6   0.000000(     8)      5   0.000000(    14)     0
     16  H        6  -0.000103(     3)     16  -0.000553(     9)     17   0.000000(    15)     0
         X       18   0.000000(     4)      6  -0.002061(    10)     16   0.000000(    16)     0
     17  O       18  -0.011146(     5)     19  -0.002061(    11)      6  -0.000001(    17)     0
     18  H       20  -0.010508(     6)     18   0.002117(    12)     16   0.000000(    18)     0
 -----------------------------------------------------------------------------------------------
 Internal  Forces:  Max     0.011145650 RMS     0.003713727

 GradGradGradGradGradGradGradGradGradGradGradGradGradGradGradGradGradGrad
 Berny optimization.
 Search for a local minimum.
 Step number   2 out of a maximum of   20
 All quantities printed in internal units (Hartrees-Bohrs-Radians)
 Update second derivatives using D2CorN and points    1    2
 DE= -4.66D-07 DEPred=-2.44D-07 R= 1.91D+00
 Trust test= 1.91D+00 RLast= 4.31D-03 DXMaxT set to 3.00D-01
 The second derivative matrix:
                          RX       RDUM       ROH      ADUM      AHOH
           RX           0.00238
           RDUM         0.00000   0.00000
           ROH         -0.00017   0.00000   1.12160
           ADUM        -0.00160   0.00000   0.00000   1.64004
           AHOH         0.00016   0.00000   0.00000  -0.00001   0.16000
           DDUM        -0.00171   0.00000  -0.00253   0.05604  -0.00680
           DH1          0.00135   0.00000   0.00200  -0.04436   0.00539
           DOH2        -0.00037   0.00000  -0.00054   0.01218  -0.00146
           DH2         -0.00036   0.00000  -0.00053   0.01168  -0.00142
                         DDUM       DH1      DOH2       DH2
           DDUM        70.89854
           DH1        -56.17490  44.51751
           DOH2        15.22007 -12.05044   3.58584
           DH2         14.72364 -11.65739   3.16963   3.06625
     Eigenvalues ---    0.002381000.000001000.000001000.000001000.00000
     Eigenvalues --- 1000.000001000.000001000.000001000.00000
 RFO step:  Lambda= 0.00000000D+00 EMin= 2.38280946D-03
 Quartic linear search produced a step of  2.00000.
 Variable       Old X    -DE/DX   Delta X   Delta X   Delta X     New X
                                 (Linear)    (Quad)   (Total)
    RX        4.39062  -0.00010  -0.00862   0.00000  -0.00862   4.38200
   RDUM       1.88973   0.00000   0.00000   0.00000   0.00000   1.88973
   ROH        1.80885  -0.02165   0.00000   0.00000   0.00000   1.80885
   ADUM       1.57080  -0.00523   0.00000   0.00000   0.00000   1.57080
   AHOH       1.82422   0.00212   0.00000   0.00000   0.00000   1.82422
   DDUM       0.00000   0.00000   0.00000   0.00000   0.00000   0.00000
   DH1        3.14159   0.00000   0.00000   0.00000   0.00000   3.14159
   DOH2       3.14159   0.00000   0.00000   0.00000   0.00000   3.14159
   DH2        3.14159   0.00000   0.00000   0.00000   0.00000   3.14159
         Item               Value     Threshold  Converged?
 Maximum Force            0.000103     0.000450     YES
 RMS     Force            0.000103     0.000300     YES
 Maximum Displacement     0.008624     0.001800     NO 
 RMS     Displacement     0.002875     0.001200     NO 
 Predicted change in Energy=-7.986224D-07
 GradGradGradGradGradGradGradGradGradGradGradGradGradGradGradGradGradGrad

 ---------------------------------------------------------------------------------------------------
                            Z-MATRIX (ANGSTROMS AND DEGREES)
   CD    Cent   Atom    N1       Length/X        N2       Alpha/Y        N3        Beta/Z          J
 ---------------------------------------------------------------------------------------------------
      1      1  F       -1  -1.969300          2.053680          0.000070
      2      2  C       -1  -1.222250          0.944230          0.000030
      3      3  C       -1   0.140030          1.057400         -0.000020
      4      4  C       -1   0.927950         -0.123640         -0.000080
      5      5  C       -1   2.414660         -0.018650         -0.000010
      6      6  F       -1   3.007080         -1.234610         -0.000560
      7      7  F       -1   2.858290          0.654480         -1.086020
      8      8  F       -1   2.858270          0.653500          1.086650
      9      9  C       -1   0.306540         -1.341490         -0.000090
     10     10  N       -1  -1.054170         -1.389970         -0.000060
     11     11  C       -1  -1.930500         -0.312100          0.000000
     12     12  S       -1  -3.570980         -0.506610          0.000030
     13     13  H       -1   0.596860          2.043100         -0.000020
     14     14  H       -1   0.831760         -2.288990         -0.000150
     15     15  H       -1  -1.521480         -2.296390         -0.000090
     16         X        6   1.000000(    15)      5   90.000(    34)      4    0.000(    52)      0
     17         X       16   1.000000(    16)      6   90.000(    35)      5    0.000(    53)      0
     18     16  H        6   2.318854(    17)     16   90.000(    36)     17  180.000(    54)      0
     19         X       18   1.000000(    18)      6   90.000(    37)     16    0.000(    55)      0
     20     17  O       18   0.957200(    19)     19   90.000(    38)      6  180.000(    56)      0
     21     18  H       20   0.957200(    20)     18  104.520(    39)     16  180.000(    57)      0
 ---------------------------------------------------------------------------------------------------
                         Z-Matrix orientation:                         
 ---------------------------------------------------------------------
 Center     Atomic      Atomic             Coordinates (Angstroms)
 Number     Number       Type             X           Y           Z
 ---------------------------------------------------------------------
      1          9           0       -1.969300    2.053680    0.000070
      2          6           0       -1.222250    0.944230    0.000030
      3          6           0        0.140030    1.057400   -0.000020
      4          6           0        0.927950   -0.123640   -0.000080
      5          6           0        2.414660   -0.018650   -0.000010
      6          9           0        3.007080   -1.234610   -0.000560
      7          9           0        2.858290    0.654480   -1.086020
      8          9           0        2.858270    0.653500    1.086650
      9          6           0        0.306540   -1.341490   -0.000090
     10          7           0       -1.054170   -1.389970   -0.000060
     11          6           0       -1.930500   -0.312100    0.000000
     12         16           0       -3.570980   -0.506610    0.000030
     13          1           0        0.596860    2.043100   -0.000020
     14          1           0        0.831760   -2.288990   -0.000150
     15          1           0       -1.521480   -2.296390   -0.000090
     16         -1           0        2.108099   -1.672597   -0.000774
     17         -1           0        1.670112   -0.773616   -0.000368
     18          1           0        4.022708   -3.319217   -0.001503
     19         -1           0        3.123726   -3.757203   -0.001717
     20          8           0        4.441949   -4.179722   -0.001892
     21          1           0        5.380081   -3.989615   -0.001791
 ---------------------------------------------------------------------
                    Distance matrix (angstroms):
                    1          2          3          4          5
     1  F    0.000000
     2  C    1.337521   0.000000
     3  C    2.332777   1.366973   0.000000
     4  C    3.624194   2.400772   1.419744   0.000000
     5  C    4.849088   3.762214   2.516312   1.490413   0.000000
     6  F    5.964663   4.757581   3.670597   2.357337   1.352598
     7  F    5.142274   4.232525   2.954772   2.347541   1.352527
     8  F    5.142625   4.232719   2.955134   2.347566   1.352555
     9  C    4.087374   2.749857   2.404662   1.367227   2.488790
    10  N    3.563171   2.340244   2.723184   2.352104   3.730054
    11  C    2.366098   1.442215   2.482463   2.864656   4.355058
    12  S    3.020011   2.760701   4.027123   4.515201   6.005497
    13  H    2.566182   2.125247   1.086415   2.191890   2.748674
    14  H    5.167661   3.830492   3.417136   2.167485   2.767673
    15  H    4.373060   3.254406   3.742796   3.274225   4.547669
    16  X    5.523615   4.235446   3.365439   1.947311   1.682118
    17  X    4.608570   3.364038   2.386162   0.986546   1.060342
    18  H    8.048116   6.759183   5.850638   4.448510   3.671452
    19  X    7.726920   6.402421   5.664173   4.245494   3.805202
    20  O    8.942003   7.637934   6.777459   5.366562   4.628652
    21  H    9.514978   8.242184   7.275335   5.896375   4.956035
                    6          7          8          9         10
     6  F    0.000000
     7  F    2.183809   0.000000
     8  F    2.183834   2.172670   0.000000
     9  C    2.702654   3.416807   3.416477   0.000000
    10  N    4.064221   4.546034   4.545756   1.361573   0.000000
    11  C    5.023019   5.004620   5.004549   2.462517   1.389157
    12  S    6.618222   6.622926   6.622828   3.966382   2.667332
    13  H    4.068482   2.867355   2.868068   3.397019   3.809445
    14  H    2.417382   3.734964   3.734451   1.083334   2.089251
    15  H    4.651369   5.391592   5.391203   2.062399   1.019792
    16  X    1.000000   2.675039   2.675065   1.831733   3.174873
    17  X    1.414214   2.151712   2.151740   1.477095   2.793135
    18  H    2.318854   4.280457   4.280475   4.209668   5.431085
    19  X    2.525289   4.550727   4.550749   3.711093   4.801939
    20  O    3.276054   5.201232   5.201249   5.015692   6.163606
    21  H    3.636095   5.394682   5.394696   5.723057   6.939578
                   11         12         13         14         15
    11  C    0.000000
    12  S    1.651971   0.000000
    13  H    3.454637   4.885889   0.000000
    14  H    3.396789   4.749842   4.338454   0.000000
    15  H    2.026007   2.720986   4.828927   2.353252   0.000000
    16  X    4.261600   5.797539   4.011265   1.417385   3.682792
    17  X    3.630069   5.247889   3.014259   1.731818   3.536255
    18  H    6.669590   8.097830   6.363244   3.353135   5.637747
    19  X    6.116694   7.442140   6.326814   2.721904   4.869489
    20  O    7.454301   8.814691   7.314931   4.075332   6.253753
    21  H    8.183441   9.604833   7.698887   4.855857   7.106233
                   16         17         18         19         20
    16  X    0.000000
    17  X    1.000000   0.000000
    18  H    2.525289   3.466236   0.000000
    19  X    2.318854   3.318854   1.000000   0.000000
    20  O    3.425278   4.391428   0.957200   1.384280   0.000000
    21  H    4.009294   4.909839   1.513901   2.268292   0.957200
                   21
    21  H    0.000000
 Symmetry turned off by external request.
 Stoichiometry    C6H5F4NOS
 Framework group  C1[X(C6H5F4NOS)]
 Deg. of freedom    48
 Full point group                 C1      NOp   1
 Rotational constants (GHZ):      1.1022446      0.3178319      0.2579911
 Standard basis: 6-31G(d) (6D, 7F)
 Integral buffers will be    131072 words long.
 Raffenetti 1 integral format.
 Two-electron integral symmetry is turned off.
   209 basis functions,   408 primitive gaussians,   209 cartesian basis functions
    54 alpha electrons       54 beta electrons
       nuclear repulsion energy       902.9288901290 Hartrees.
 NAtoms=   18 NActive=   18 NUniq=   18 SFac= 7.50D-01 NAtFMM=   80 NAOKFM=F Big=F
 One-electron integrals computed using PRISM.
 NBasis=   209 RedAO= T  NBF=   209
 NBsUse=   209 1.00D-06 NBFU=   209
 Initial guess read from the read-write file.
 B after Tr=     0.000000    0.000000    0.000000
         Rot=    1.000000    0.000000    0.000000    0.000000 Ang=   0.00 deg.
 Requested convergence on RMS density matrix=1.00D-08 within 128 cycles.
 Requested convergence on MAX density matrix=1.00D-06.
 Requested convergence on             energy=1.00D-06.
 No special actions if energy rises.
 SCF Done:  E(RHF) =  -1154.67483600     A.U. after    6 cycles
             Convg  =    0.3804D-08             -V/T =  2.0019
 Calling FoFJK, ICntrl=      2127 FMM=F ISym2X=0 I1Cent= 0 IOpClX= 0 NMat=1 NMatS=1 NMatT=0.
 -------------------------------------------------------------------
 Center     Atomic                   Forces (Hartrees/Bohr)
 Number     Number              X              Y              Z
 -------------------------------------------------------------------
      1        9           0.000000000    0.000000000    0.000000000
      2        6           0.000000000    0.000000000    0.000000000
      3        6           0.000000000    0.000000000    0.000000000
      4        6           0.000000000    0.000000000    0.000000000
      5        6           0.000000000    0.000000000    0.000000000
      6        9           0.000000000    0.000000000    0.000000000
      7        9           0.000000000    0.000000000    0.000000000
      8        9           0.000000000    0.000000000    0.000000000
      9        6           0.000000000    0.000000000    0.000000000
     10        7           0.000000000    0.000000000    0.000000000
     11        6           0.000000000    0.000000000    0.000000000
     12       16           0.000000000    0.000000000    0.000000000
     13        1           0.000000000    0.000000000    0.000000000
     14        1           0.000000000    0.000000000    0.000000000
     15        1           0.000000000    0.000000000    0.000000000
     16        1           0.005129612   -0.009809662   -0.000005081
     17        8           0.005211135    0.013269986    0.000006761
     18        1          -0.010067447   -0.003235964   -0.000001705
 -------------------------------------------------------------------
 Cartesian Forces:  Max     0.013269986 RMS     0.002846752
 -----------------------------------------------------------------------------------------------
                       Internal Coordinate Forces (Hartree/Bohr or radian)
  Cent   Atom   N1       Length/X         N2         Alpha/Y        N3         Beta/Z          J
 -----------------------------------------------------------------------------------------------
      1  F 
      2  C 
      3  C 
      4  C 
      5  C 
      6  F 
      7  F 
      8  F 
      9  C 
     10  N 
     11  C 
     12  S 
     13  H 
     14  H 
     15  H 
         X        6   0.000000(     1)      5  -0.000560(     7)      4   0.000000(    13)     0
         X       16   0.000000(     2)      6   0.000000(     8)      5   0.000000(    14)     0
     16  H        6  -0.000082(     3)     16  -0.000560(     9)     17   0.000000(    15)     0
         X       18   0.000000(     4)      6  -0.002068(    10)     16   0.000000(    16)     0
     17  O       18  -0.011147(     5)     19  -0.002068(    11)      6  -0.000001(    17)     0
     18  H       20  -0.010510(     6)     18   0.002120(    12)     16   0.000000(    18)     0
 -----------------------------------------------------------------------------------------------
 Internal  Forces:  Max     0.011147401 RMS     0.003714792

 GradGradGradGradGradGradGradGradGradGradGradGradGradGradGradGradGradGrad
 Berny optimization.
 Search for a local minimum.
 Step number   3 out of a maximum of   20
 All quantities printed in internal units (Hartrees-Bohrs-Radians)
 Update second derivatives using D2CorN and points    2    3
 DE= -7.98D-07 DEPred=-7.99D-07 R= 9.99D-01
 Trust test= 9.99D-01 RLast= 8.62D-03 DXMaxT set to 3.00D-01
 The second derivative matrix:
                          RX       RDUM       ROH      ADUM      AHOH
           RX           0.00242
           RDUM         0.00000   0.00000
           ROH         -0.00026   0.00000   1.12160
           ADUM        -0.00238   0.00000   0.00000   1.64004
           AHOH         0.00024   0.00000   0.00000  -0.00001   0.16000
           DDUM        -0.00085   0.00000  -0.00253   0.05604  -0.00680
           DH1          0.00068   0.00000   0.00200  -0.04436   0.00539
           DOH2        -0.00018   0.00000  -0.00054   0.01218  -0.00146
           DH2         -0.00018   0.00000  -0.00053   0.01168  -0.00142
                         DDUM       DH1      DOH2       DH2
           DDUM        70.89854
           DH1        -56.17490  44.51751
           DOH2        15.22007 -12.05044   3.58584
           DH2         14.72364 -11.65739   3.16963   3.06625
     Eigenvalues ---    0.002421000.000001000.000001000.000001000.00000
     Eigenvalues --- 1000.000001000.000001000.000001000.00000
 RFO step:  Lambda= 0.00000000D+00 EMin= 2.42147284D-03
 Quartic linear search produced a step of  2.00000.
 Variable       Old X    -DE/DX   Delta X   Delta X   Delta X     New X
                                 (Linear)    (Quad)   (Total)
    RX        4.38200  -0.00008  -0.01725   0.00000  -0.01725   4.36475
   RDUM       1.88973   0.00000   0.00000   0.00000   0.00000   1.88973
   ROH        1.80885  -0.02166   0.00000   0.00000   0.00000   1.80885
   ADUM       1.57080  -0.00526   0.00000   0.00000   0.00000   1.57080
   AHOH       1.82422   0.00212   0.00000   0.00000   0.00000   1.82422
   DDUM       0.00000   0.00000   0.00000   0.00000   0.00000   0.00000
   DH1        3.14159   0.00000   0.00000   0.00000   0.00000   3.14159
   DOH2       3.14159   0.00000   0.00000   0.00000   0.00000   3.14159
   DH2        3.14159   0.00000   0.00000   0.00000   0.00000   3.14159
         Item               Value     Threshold  Converged?
 Maximum Force            0.000082     0.000450     YES
 RMS     Force            0.000082     0.000300     YES
 Maximum Displacement     0.017249     0.001800     NO 
 RMS     Displacement     0.005750     0.001200     NO 
 Predicted change in Energy=-1.054057D-06
 GradGradGradGradGradGradGradGradGradGradGradGradGradGradGradGradGradGrad

 ---------------------------------------------------------------------------------------------------
                            Z-MATRIX (ANGSTROMS AND DEGREES)
   CD    Cent   Atom    N1       Length/X        N2       Alpha/Y        N3        Beta/Z          J
 ---------------------------------------------------------------------------------------------------
      1      1  F       -1  -1.969300          2.053680          0.000070
      2      2  C       -1  -1.222250          0.944230          0.000030
      3      3  C       -1   0.140030          1.057400         -0.000020
      4      4  C       -1   0.927950         -0.123640         -0.000080
      5      5  C       -1   2.414660         -0.018650         -0.000010
      6      6  F       -1   3.007080         -1.234610         -0.000560
      7      7  F       -1   2.858290          0.654480         -1.086020
      8      8  F       -1   2.858270          0.653500          1.086650
      9      9  C       -1   0.306540         -1.341490         -0.000090
     10     10  N       -1  -1.054170         -1.389970         -0.000060
     11     11  C       -1  -1.930500         -0.312100          0.000000
     12     12  S       -1  -3.570980         -0.506610          0.000030
     13     13  H       -1   0.596860          2.043100         -0.000020
     14     14  H       -1   0.831760         -2.288990         -0.000150
     15     15  H       -1  -1.521480         -2.296390         -0.000090
     16         X        6   1.000000(    15)      5   90.000(    34)      4    0.000(    52)      0
     17         X       16   1.000000(    16)      6   90.000(    35)      5    0.000(    53)      0
     18     16  H        6   2.309727(    17)     16   90.000(    36)     17  180.000(    54)      0
     19         X       18   1.000000(    18)      6   90.000(    37)     16    0.000(    55)      0
     20     17  O       18   0.957200(    19)     19   90.000(    38)      6  180.000(    56)      0
     21     18  H       20   0.957200(    20)     18  104.520(    39)     16  180.000(    57)      0
 ---------------------------------------------------------------------------------------------------
                         Z-Matrix orientation:                         
 ---------------------------------------------------------------------
 Center     Atomic      Atomic             Coordinates (Angstroms)
 Number     Number       Type             X           Y           Z
 ---------------------------------------------------------------------
      1          9           0       -1.969300    2.053680    0.000070
      2          6           0       -1.222250    0.944230    0.000030
      3          6           0        0.140030    1.057400   -0.000020
      4          6           0        0.927950   -0.123640   -0.000080
      5          6           0        2.414660   -0.018650   -0.000010
      6          9           0        3.007080   -1.234610   -0.000560
      7          9           0        2.858290    0.654480   -1.086020
      8          9           0        2.858270    0.653500    1.086650
      9          6           0        0.306540   -1.341490   -0.000090
     10          7           0       -1.054170   -1.389970   -0.000060
     11          6           0       -1.930500   -0.312100    0.000000
     12         16           0       -3.570980   -0.506610    0.000030
     13          1           0        0.596860    2.043100   -0.000020
     14          1           0        0.831760   -2.288990   -0.000150
     15          1           0       -1.521480   -2.296390   -0.000090
     16         -1           0        2.108099   -1.672597   -0.000774
     17         -1           0        1.670112   -0.773616   -0.000368
     18          1           0        4.018710   -3.311011   -0.001499
     19         -1           0        3.119729   -3.748998   -0.001714
     20          8           0        4.437951   -4.171516   -0.001888
     21          1           0        5.376083   -3.981410   -0.001787
 ---------------------------------------------------------------------
                    Distance matrix (angstroms):
                    1          2          3          4          5
     1  F    0.000000
     2  C    1.337521   0.000000
     3  C    2.332777   1.366973   0.000000
     4  C    3.624194   2.400772   1.419744   0.000000
     5  C    4.849088   3.762214   2.516312   1.490413   0.000000
     6  F    5.964663   4.757581   3.670597   2.357337   1.352598
     7  F    5.142274   4.232525   2.954772   2.347541   1.352527
     8  F    5.142625   4.232719   2.955134   2.347566   1.352555
     9  C    4.087374   2.749857   2.404662   1.367227   2.488790
    10  N    3.563171   2.340244   2.723184   2.352104   3.730054
    11  C    2.366098   1.442215   2.482463   2.864656   4.355058
    12  S    3.020011   2.760701   4.027123   4.515201   6.005497
    13  H    2.566182   2.125247   1.086415   2.191890   2.748674
    14  H    5.167661   3.830492   3.417136   2.167485   2.767673
    15  H    4.373060   3.254406   3.742796   3.274225   4.547669
    16  X    5.523615   4.235446   3.365439   1.947311   1.682118
    17  X    4.608570   3.364038   2.386162   0.986546   1.060342
    18  H    8.039663   6.750907   5.841847   4.439835   3.662325
    19  X    7.718114   6.393682   5.655092   4.236404   3.796396
    20  O    8.933417   7.629465   6.768581   5.357743   4.619525
    21  H    9.506680   8.234071   7.266764   5.887977   4.947069
                    6          7          8          9         10
     6  F    0.000000
     7  F    2.183809   0.000000
     8  F    2.183834   2.172670   0.000000
     9  C    2.702654   3.416807   3.416477   0.000000
    10  N    4.064221   4.546034   4.545756   1.361573   0.000000
    11  C    5.023019   5.004620   5.004549   2.462517   1.389157
    12  S    6.618222   6.622926   6.622828   3.966382   2.667332
    13  H    4.068482   2.867355   2.868068   3.397019   3.809445
    14  H    2.417382   3.734964   3.734451   1.083334   2.089251
    15  H    4.651369   5.391592   5.391203   2.062399   1.019792
    16  X    1.000000   2.675039   2.675065   1.831733   3.174873
    17  X    1.414214   2.151712   2.151740   1.477095   2.793135
    18  H    2.309727   4.271754   4.271772   4.202288   5.424437
    19  X    2.516910   4.542542   4.542564   3.702719   4.794418
    20  O    3.266927   5.192389   5.192407   5.007755   6.156330
    21  H    3.627269   5.385751   5.385765   5.715719   6.932800
                   11         12         13         14         15
    11  C    0.000000
    12  S    1.651971   0.000000
    13  H    3.454637   4.885889   0.000000
    14  H    3.396789   4.749842   4.338454   0.000000
    15  H    2.026007   2.720986   4.828927   2.353252   0.000000
    16  X    4.261600   5.797539   4.011265   1.417385   3.682792
    17  X    3.630069   5.247889   3.014259   1.731818   3.536255
    18  H    6.662325   8.091234   6.354177   3.346816   5.632332
    19  X    6.108771   7.434962   6.317695   2.714116   4.863218
    20  O    7.446628   8.807640   7.305849   4.067987   6.247473
    21  H    8.176184   9.598134   7.689973   4.849243   7.100399
                   16         17         18         19         20
    16  X    0.000000
    17  X    1.000000   0.000000
    18  H    2.516910   3.457498   0.000000
    19  X    2.309727   3.309727   1.000000   0.000000
    20  O    3.416550   4.382541   0.957200   1.384280   0.000000
    21  H    4.001292   4.901445   1.513901   2.268292   0.957200
                   21
    21  H    0.000000
 Symmetry turned off by external request.
 Stoichiometry    C6H5F4NOS
 Framework group  C1[X(C6H5F4NOS)]
 Deg. of freedom    48
 Full point group                 C1      NOp   1
 Rotational constants (GHZ):      1.1036851      0.3180535      0.2582160
 Standard basis: 6-31G(d) (6D, 7F)
 Integral buffers will be    131072 words long.
 Raffenetti 1 integral format.
 Two-electron integral symmetry is turned off.
   209 basis functions,   408 primitive gaussians,   209 cartesian basis functions
    54 alpha electrons       54 beta electrons
       nuclear repulsion energy       903.0784289106 Hartrees.
 NAtoms=   18 NActive=   18 NUniq=   18 SFac= 7.50D-01 NAtFMM=   80 NAOKFM=F Big=F
 One-electron integrals computed using PRISM.
 NBasis=   209 RedAO= T  NBF=   209
 NBsUse=   209 1.00D-06 NBFU=   209
 Initial guess read from the read-write file.
 B after Tr=     0.000000    0.000000    0.000000
         Rot=    1.000000    0.000000    0.000000    0.000000 Ang=   0.00 deg.
 Requested convergence on RMS density matrix=1.00D-08 within 128 cycles.
 Requested convergence on MAX density matrix=1.00D-06.
 Requested convergence on             energy=1.00D-06.
 No special actions if energy rises.
 SCF Done:  E(RHF) =  -1154.67483704     A.U. after    6 cycles
             Convg  =    0.7661D-08             -V/T =  2.0019
 Calling FoFJK, ICntrl=      2127 FMM=F ISym2X=0 I1Cent= 0 IOpClX= 0 NMat=1 NMatS=1 NMatT=0.
 -------------------------------------------------------------------
 Center     Atomic                   Forces (Hartrees/Bohr)
 Number     Number              X              Y              Z
 -------------------------------------------------------------------
      1        9           0.000000000    0.000000000    0.000000000
      2        6           0.000000000    0.000000000    0.000000000
      3        6           0.000000000    0.000000000    0.000000000
      4        6           0.000000000    0.000000000    0.000000000
      5        6           0.000000000    0.000000000    0.000000000
      6        9           0.000000000    0.000000000    0.000000000
      7        9           0.000000000    0.000000000    0.000000000
      8        9           0.000000000    0.000000000    0.000000000
      9        6           0.000000000    0.000000000    0.000000000
     10        7           0.000000000    0.000000000    0.000000000
     11        6           0.000000000    0.000000000    0.000000000
     12       16           0.000000000    0.000000000    0.000000000
     13        1           0.000000000    0.000000000    0.000000000
     14        1           0.000000000    0.000000000    0.000000000
     15        1           0.000000000    0.000000000    0.000000000
     16        1           0.005154628   -0.009849268   -0.000005103
     17        8           0.005207783    0.013274879    0.000006766
     18        1          -0.010069269   -0.003239592   -0.000001707
 -------------------------------------------------------------------
 Cartesian Forces:  Max     0.013274879 RMS     0.002850623
 -----------------------------------------------------------------------------------------------
                       Internal Coordinate Forces (Hartree/Bohr or radian)
  Cent   Atom   N1       Length/X         N2         Alpha/Y        N3         Beta/Z          J
 -----------------------------------------------------------------------------------------------
      1  F 
      2  C 
      3  C 
      4  C 
      5  C 
      6  F 
      7  F 
      8  F 
      9  C 
     10  N 
     11  C 
     12  S 
     13  H 
     14  H 
     15  H 
         X        6   0.000000(     1)      5  -0.000575(     7)      4   0.000000(    13)     0
         X       16   0.000000(     2)      6   0.000000(     8)      5   0.000000(    14)     0
     16  H        6  -0.000039(     3)     16  -0.000575(     9)     17   0.000000(    15)     0
         X       18   0.000000(     4)      6  -0.002081(    10)     16   0.000000(    16)     0
     17  O       18  -0.011151(     5)     19  -0.002081(    11)      6  -0.000001(    17)     0
     18  H       20  -0.010512(     6)     18   0.002126(    12)     16   0.000000(    18)     0
 -----------------------------------------------------------------------------------------------
 Internal  Forces:  Max     0.011150804 RMS     0.003716962

 GradGradGradGradGradGradGradGradGradGradGradGradGradGradGradGradGradGrad
 Berny optimization.
 Search for a local minimum.
 Step number   4 out of a maximum of   20
 All quantities printed in internal units (Hartrees-Bohrs-Radians)
 Update second derivatives using D2CorN and points    3    4
 DE= -1.04D-06 DEPred=-1.05D-06 R= 9.91D-01
 SS=  1.41D+00  RLast= 1.72D-02 DXNew= 5.0454D-01 5.1746D-02
 Trust test= 9.91D-01 RLast= 1.72D-02 DXMaxT set to 3.00D-01
 The second derivative matrix:
                          RX       RDUM       ROH      ADUM      AHOH
           RX           0.00250
           RDUM         0.00000   0.00000
           ROH         -0.00030   0.00000   1.12160
           ADUM        -0.00280   0.00000   0.00000   1.64004
           AHOH         0.00029   0.00000   0.00000  -0.00001   0.16000
           DDUM        -0.00043   0.00000  -0.00253   0.05604  -0.00680
           DH1          0.00034   0.00000   0.00200  -0.04436   0.00539
           DOH2        -0.00009   0.00000  -0.00054   0.01218  -0.00146
           DH2         -0.00009   0.00000  -0.00053   0.01168  -0.00142
                         DDUM       DH1      DOH2       DH2
           DDUM        70.89854
           DH1        -56.17490  44.51751
           DOH2        15.22007 -12.05044   3.58584
           DH2         14.72364 -11.65739   3.16963   3.06625
     Eigenvalues ---    0.002501000.000001000.000001000.000001000.00000
     Eigenvalues --- 1000.000001000.000001000.000001000.00000
 RFO step:  Lambda= 0.00000000D+00 EMin= 2.50211513D-03
 Quartic linear search produced a step of  0.86454.
 Variable       Old X    -DE/DX   Delta X   Delta X   Delta X     New X
                                 (Linear)    (Quad)   (Total)
    RX        4.36475  -0.00004  -0.01491   0.00000  -0.01491   4.34984
   RDUM       1.88973   0.00000   0.00000   0.00000   0.00000   1.88973
   ROH        1.80885  -0.02166   0.00000   0.00000   0.00000   1.80885
   ADUM       1.57080  -0.00531   0.00000   0.00000   0.00000   1.57080
   AHOH       1.82422   0.00213   0.00000   0.00000   0.00000   1.82422
   DDUM       0.00000   0.00000   0.00000   0.00000   0.00000   0.00000
   DH1        3.14159   0.00000   0.00000   0.00000   0.00000   3.14159
   DOH2       3.14159   0.00000   0.00000   0.00000   0.00000   3.14159
   DH2        3.14159   0.00000   0.00000   0.00000   0.00000   3.14159
         Item               Value     Threshold  Converged?
 Maximum Force            0.000039     0.000450     YES
 RMS     Force            0.000039     0.000300     YES
 Maximum Displacement     0.014912     0.001800     NO 
 RMS     Displacement     0.004971     0.001200     NO 
 Predicted change in Energy=-3.009209D-07
 GradGradGradGradGradGradGradGradGradGradGradGradGradGradGradGradGradGrad

 ---------------------------------------------------------------------------------------------------
                            Z-MATRIX (ANGSTROMS AND DEGREES)
   CD    Cent   Atom    N1       Length/X        N2       Alpha/Y        N3        Beta/Z          J
 ---------------------------------------------------------------------------------------------------
      1      1  F       -1  -1.969300          2.053680          0.000070
      2      2  C       -1  -1.222250          0.944230          0.000030
      3      3  C       -1   0.140030          1.057400         -0.000020
      4      4  C       -1   0.927950         -0.123640         -0.000080
      5      5  C       -1   2.414660         -0.018650         -0.000010
      6      6  F       -1   3.007080         -1.234610         -0.000560
      7      7  F       -1   2.858290          0.654480         -1.086020
      8      8  F       -1   2.858270          0.653500          1.086650
      9      9  C       -1   0.306540         -1.341490         -0.000090
     10     10  N       -1  -1.054170         -1.389970         -0.000060
     11     11  C       -1  -1.930500         -0.312100          0.000000
     12     12  S       -1  -3.570980         -0.506610          0.000030
     13     13  H       -1   0.596860          2.043100         -0.000020
     14     14  H       -1   0.831760         -2.288990         -0.000150
     15     15  H       -1  -1.521480         -2.296390         -0.000090
     16         X        6   1.000000(    15)      5   90.000(    34)      4    0.000(    52)      0
     17         X       16   1.000000(    16)      6   90.000(    35)      5    0.000(    53)      0
     18     16  H        6   2.301836(    17)     16   90.000(    36)     17  180.000(    54)      0
     19         X       18   1.000000(    18)      6   90.000(    37)     16    0.000(    55)      0
     20     17  O       18   0.957200(    19)     19   90.000(    38)      6  180.000(    56)      0
     21     18  H       20   0.957200(    20)     18  104.520(    39)     16  180.000(    57)      0
 ---------------------------------------------------------------------------------------------------
                         Z-Matrix orientation:                         
 ---------------------------------------------------------------------
 Center     Atomic      Atomic             Coordinates (Angstroms)
 Number     Number       Type             X           Y           Z
 ---------------------------------------------------------------------
      1          9           0       -1.969300    2.053680    0.000070
      2          6           0       -1.222250    0.944230    0.000030
      3          6           0        0.140030    1.057400   -0.000020
      4          6           0        0.927950   -0.123640   -0.000080
      5          6           0        2.414660   -0.018650   -0.000010
[...]
 GradGradGradGradGradGradGradGradGradGradGradGradGradGradGradGradGradGrad

 ---------------------------------------------------------------------------------------------------
                            Z-MATRIX (ANGSTROMS AND DEGREES)
   CD    Cent   Atom    N1       Length/X        N2       Alpha/Y        N3        Beta/Z          J
 ---------------------------------------------------------------------------------------------------
      1      1  F       -1  -1.969300          2.053680          0.000070
      2      2  C       -1  -1.222250          0.944230          0.000030
      3      3  C       -1   0.140030          1.057400         -0.000020
      4      4  C       -1   0.927950         -0.123640         -0.000080
      5      5  C       -1   2.414660         -0.018650         -0.000010
      6      6  F       -1   3.007080         -1.234610         -0.000560
      7      7  F       -1   2.858290          0.654480         -1.086020
      8      8  F       -1   2.858270          0.653500          1.086650
      9      9  C       -1   0.306540         -1.341490         -0.000090
     10     10  N       -1  -1.054170         -1.389970         -0.000060
     11     11  C       -1  -1.930500         -0.312100          0.000000
     12     12  S       -1  -3.570980         -0.506610          0.000030
     13     13  H       -1   0.596860          2.043100         -0.000020
     14     14  H       -1   0.831760         -2.288990         -0.000150
     15     15  H       -1  -1.521480         -2.296390         -0.000090
     16         X        6   1.000000(    15)      5   90.000(    34)      4    0.000(    52)      0
     17         X       16   1.000000(    16)      6   90.000(    35)      5    0.000(    53)      0
     18     16  H        6   2.301836(    17)     16   90.000(    36)     17  180.000(    54)      0
     19         X       18   1.000000(    18)      6   90.000(    37)     16    0.000(    55)      0
     20     17  O       18   0.957200(    19)     19   90.000(    38)      6  180.000(    56)      0
     21     18  H       20   0.957200(    20)     18  104.520(    39)     16  180.000(    57)      0
 ---------------------------------------------------------------------------------------------------
                         Z-Matrix orientation:                         
 ---------------------------------------------------------------------
 Center     Atomic      Atomic             Coordinates (Angstroms)
 Number     Number       Type             X           Y           Z
 ---------------------------------------------------------------------
      1          9           0       -1.969300    2.053680    0.000070
      2          6           0       -1.222250    0.944230    0.000030
      3          6           0        0.140030    1.057400   -0.000020
      4          6           0        0.927950   -0.123640   -0.000080
      5          6           0        2.414660   -0.018650   -0.000010
      6          9           0        3.007080   -1.234610   -0.000560
      7          9           0        2.858290    0.654480   -1.086020
      8          9           0        2.858270    0.653500    1.086650
      9          6           0        0.306540   -1.341490   -0.000090
     10          7           0       -1.054170   -1.389970   -0.000060
     11          6           0       -1.930500   -0.312100    0.000000
     12         16           0       -3.570980   -0.506610    0.000030
     13          1           0        0.596860    2.043100   -0.000020
     14          1           0        0.831760   -2.288990   -0.000150
     15          1           0       -1.521480   -2.296390   -0.000090
     16         -1           0        2.108099   -1.672597   -0.000774
     17         -1           0        1.670112   -0.773616   -0.000368
     18          1           0        4.015254   -3.303917   -0.001496
     19         -1           0        3.116272   -3.741904   -0.001710
     20          8           0        4.434495   -4.164422   -0.001885
     21          1           0        5.372627   -3.974316   -0.001784
 ---------------------------------------------------------------------
                    Distance matrix (angstroms):
                    1          2          3          4          5
     1  F    0.000000
     2  C    1.337521   0.000000
     3  C    2.332777   1.366973   0.000000
     4  C    3.624194   2.400772   1.419744   0.000000
     5  C    4.849088   3.762214   2.516312   1.490413   0.000000
     6  F    5.964663   4.757581   3.670597   2.357337   1.352598
     7  F    5.142274   4.232525   2.954772   2.347541   1.352527
     8  F    5.142625   4.232719   2.955134   2.347566   1.352555
     9  C    4.087374   2.749857   2.404662   1.367227   2.488790
    10  N    3.563171   2.340244   2.723184   2.352104   3.730054
    11  C    2.366098   1.442215   2.482463   2.864656   4.355058
    12  S    3.020011   2.760701   4.027123   4.515201   6.005497
    13  H    2.566182   2.125247   1.086415   2.191890   2.748674
    14  H    5.167661   3.830492   3.417136   2.167485   2.767673
    15  H    4.373060   3.254406   3.742796   3.274225   4.547669
    16  X    5.523615   4.235446   3.365439   1.947311   1.682118
    17  X    4.608570   3.364038   2.386162   0.986546   1.060342
    18  H    8.032356   6.743753   5.834248   4.432337   3.654433
    19  X    7.710502   6.386128   5.647242   4.228545   3.788784
    20  O    8.925995   7.622145   6.760907   5.350120   4.611633
    21  H    9.499506   8.227059   7.259355   5.880719   4.939318
                    6          7          8          9         10
     6  F    0.000000
     7  F    2.183809   0.000000
     8  F    2.183834   2.172670   0.000000
     9  C    2.702654   3.416807   3.416477   0.000000
    10  N    4.064221   4.546034   4.545756   1.361573   0.000000
    11  C    5.023019   5.004620   5.004549   2.462517   1.389157
    12  S    6.618222   6.622926   6.622828   3.966382   2.667332
    13  H    4.068482   2.867355   2.868068   3.397019   3.809445
    14  H    2.417382   3.734964   3.734451   1.083334   2.089251
    15  H    4.651369   5.391592   5.391203   2.062399   1.019792
    16  X    1.000000   2.675039   2.675065   1.831733   3.174873
    17  X    1.414214   2.151712   2.151740   1.477095   2.793135
    18  H    2.301836   4.264231   4.264250   4.195912   5.418695
    19  X    2.509671   4.535469   4.535490   3.695482   4.787921
    20  O    3.259036   5.184746   5.184763   5.000896   6.150043
    21  H    3.619641   5.378030   5.378044   5.709379   6.926945
                   11         12         13         14         15
    11  C    0.000000
    12  S    1.651971   0.000000
    13  H    3.454637   4.885889   0.000000
    14  H    3.396789   4.749842   4.338454   0.000000
    15  H    2.026007   2.720986   4.828927   2.353252   0.000000
    16  X    4.261600   5.797539   4.011265   1.417385   3.682792
    17  X    3.630069   5.247889   3.014259   1.731818   3.536255
    18  H    6.656047   8.085535   6.346338   3.341364   5.627658
    19  X    6.101924   7.428760   6.309811   2.707390   4.857804
    20  O    7.439997   8.801546   7.297998   4.061643   6.242050
    21  H    8.169913   9.592345   7.682268   4.843531   7.095361
                   16         17         18         19         20
    16  X    0.000000
    17  X    1.000000   0.000000
    18  H    2.509671   3.449945   0.000000
    19  X    2.301836   3.301836   1.000000   0.000000
    20  O    3.409005   4.374858   0.957200   1.384280   0.000000
    21  H    3.994378   4.894190   1.513901   2.268292   0.957200
                   21
    21  H    0.000000
 Symmetry turned off by external request.
 Stoichiometry    C6H5F4NOS
 Framework group  C1[X(C6H5F4NOS)]
 Deg. of freedom    48
 Full point group                 C1      NOp   1
 Rotational constants (GHZ):      1.1049333      0.3182449      0.2584105

 **********************************************************************

            Population analysis using the SCF density.

 **********************************************************************

 Alpha  occ. eigenvalues --  -91.90595 -26.38340 -26.36581 -26.36578 -26.33581
 Alpha  occ. eigenvalues --  -20.56454 -15.68847 -11.55011 -11.37962 -11.37350
 Alpha  occ. eigenvalues --  -11.36389 -11.31414 -11.30625  -8.91682  -6.60010
 Alpha  occ. eigenvalues --   -6.59734  -6.59607  -1.75066  -1.66285  -1.65062
 Alpha  occ. eigenvalues --   -1.64831  -1.35690  -1.34658  -1.17421  -1.12242
 Alpha  occ. eigenvalues --   -1.03466  -0.97559  -0.93044  -0.88476  -0.85338
 Alpha  occ. eigenvalues --   -0.84752  -0.84166  -0.77293  -0.76252  -0.74106
 Alpha  occ. eigenvalues --   -0.73179  -0.72505  -0.71457  -0.71153  -0.70494
 Alpha  occ. eigenvalues --   -0.68470  -0.68415  -0.66875  -0.64273  -0.62669
 Alpha  occ. eigenvalues --   -0.61118  -0.59717  -0.57595  -0.52704  -0.50274
 Alpha  occ. eigenvalues --   -0.46795  -0.43413  -0.34217  -0.31128
 Alpha virt. eigenvalues --    0.04332   0.08522   0.17294   0.20261   0.24348
 Alpha virt. eigenvalues --    0.25155   0.26185   0.26308   0.29210   0.32793
 Alpha virt. eigenvalues --    0.33619   0.35142   0.40028   0.40052   0.42419
 Alpha virt. eigenvalues --    0.43174   0.46483   0.49375   0.53945   0.55548
 Alpha virt. eigenvalues --    0.56598   0.59582   0.61057   0.64249   0.66407
 Alpha virt. eigenvalues --    0.67258   0.71774   0.72816   0.73205   0.75179
 Alpha virt. eigenvalues --    0.76963   0.77703   0.82725   0.84285   0.87327
 Alpha virt. eigenvalues --    0.88818   0.89819   0.91959   0.95478   0.99649
 Alpha virt. eigenvalues --    0.99803   1.02425   1.04315   1.05107   1.07395
 Alpha virt. eigenvalues --    1.09094   1.09540   1.12005   1.14182   1.15081
 Alpha virt. eigenvalues --    1.15791   1.16241   1.17240   1.18018   1.24318
 Alpha virt. eigenvalues --    1.27846   1.30744   1.31107   1.32422   1.32710
 Alpha virt. eigenvalues --    1.34712   1.36984   1.40213   1.41503   1.41936
 Alpha virt. eigenvalues --    1.43586   1.47204   1.51863   1.59871   1.60041
 Alpha virt. eigenvalues --    1.60641   1.63067   1.63666   1.63852   1.64325
 Alpha virt. eigenvalues --    1.66214   1.67313   1.68685   1.69484   1.70856
 Alpha virt. eigenvalues --    1.72907   1.76061   1.77978   1.84066   1.87254
 Alpha virt. eigenvalues --    1.89233   1.91726   1.93765   1.99798   2.01577
 Alpha virt. eigenvalues --    2.02831   2.04088   2.05595   2.06261   2.08513
 Alpha virt. eigenvalues --    2.09858   2.11735   2.11962   2.17802   2.20040
 Alpha virt. eigenvalues --    2.22098   2.22114   2.24198   2.27881   2.29357
 Alpha virt. eigenvalues --    2.30142   2.31966   2.33492   2.34123   2.35477
 Alpha virt. eigenvalues --    2.37648   2.38981   2.43041   2.44691   2.45416
 Alpha virt. eigenvalues --    2.46560   2.51983   2.60335   2.61754   2.63070
 Alpha virt. eigenvalues --    2.65181   2.67876   2.74674   2.82600   2.84276
 Alpha virt. eigenvalues --    2.84402   2.90881   2.92593   2.93068   2.94364
 Alpha virt. eigenvalues --    3.00023   3.06576   3.09385   3.16838   3.21735
 Alpha virt. eigenvalues --    3.29342   3.36747   3.38931   3.42710   3.44579
 Alpha virt. eigenvalues --    3.49125   3.70974   4.02551   4.36282   4.39908
 Alpha virt. eigenvalues --    4.45377   4.48199   4.59913   4.64822   4.68088
 Alpha virt. eigenvalues --    4.82111   5.00986   5.19596   5.58076   6.04428
          Condensed to atoms (all electrons):
              1          2          3          4          5          6
     1  F    9.159431   0.267775  -0.033678   0.002216  -0.000015   0.000000
     2  C    0.267775   4.576095   0.569877  -0.026000   0.000867  -0.000019
     3  C   -0.033678   0.569877   5.065803   0.354327  -0.012943   0.002122
     4  C    0.002216  -0.026000   0.354327   5.202535   0.420914  -0.043875
     5  C   -0.000015   0.000867  -0.012943   0.420914   3.554612   0.277339
     6  F    0.000000  -0.000019   0.002122  -0.043875   0.277339   9.197812
     7  F    0.000000   0.000292   0.004967  -0.055554   0.285658  -0.030217
     8  F    0.000000   0.000291   0.004961  -0.055562   0.285665  -0.030218
     9  C    0.000134  -0.023232  -0.053116   0.590115  -0.021074   0.005451
    10  N    0.001382  -0.053134  -0.021365  -0.035225   0.001166   0.000229
    11  C   -0.040753   0.377379  -0.078888  -0.001270   0.000076   0.000002
    12  S    0.003490  -0.083551   0.001604  -0.000048   0.000006   0.000000
    13  H   -0.000275  -0.017102   0.368705  -0.030454  -0.000297   0.000035
    14  H    0.000000  -0.000120   0.001820  -0.023715  -0.000071   0.004567
    15  H   -0.000018   0.003834  -0.000571   0.002321  -0.000016   0.000001
    16  H    0.000000   0.000000  -0.000001   0.000008   0.000137   0.009163
    17  O    0.000000   0.000000   0.000000   0.000000   0.000009  -0.000885
    18  H    0.000000   0.000000   0.000000   0.000000   0.000000  -0.000021
              7          8          9         10         11         12
     1  F    0.000000   0.000000   0.000134   0.001382  -0.040753   0.003490
     2  C    0.000292   0.000291  -0.023232  -0.053134   0.377379  -0.083551
     3  C    0.004967   0.004961  -0.053116  -0.021365  -0.078888   0.001604
     4  C   -0.055554  -0.055562   0.590115  -0.035225  -0.001270  -0.000048
     5  C    0.285658   0.285665  -0.021074   0.001166   0.000076   0.000006
     6  F   -0.030217  -0.030218   0.005451   0.000229   0.000002   0.000000
     7  F    9.198375  -0.034031   0.000493  -0.000006  -0.000002   0.000000
     8  F   -0.034031   9.198395   0.000489  -0.000006  -0.000002   0.000000
     9  C    0.000493   0.000489   4.731765   0.269199  -0.038518   0.003325
    10  N   -0.000006  -0.000006   0.269199   7.232222   0.211934  -0.104243
    11  C   -0.000002  -0.000002  -0.038518   0.211934   4.955633   0.447307
    12  S    0.000000   0.000000   0.003325  -0.104243   0.447307  15.945124
    13  H    0.000887   0.000884   0.002412  -0.000265   0.002630  -0.000056
    14  H    0.000076   0.000076   0.379897  -0.031230   0.000968  -0.000132
    15  H    0.000000   0.000000  -0.021251   0.309642  -0.017809   0.013594
    16  H    0.000013   0.000013  -0.000001   0.000000   0.000000   0.000000
    17  O    0.000000   0.000000  -0.000013   0.000000   0.000000   0.000000
    18  H    0.000000   0.000000   0.000001   0.000000   0.000000   0.000000
             13         14         15         16         17         18
     1  F   -0.000275   0.000000  -0.000018   0.000000   0.000000   0.000000
     2  C   -0.017102  -0.000120   0.003834   0.000000   0.000000   0.000000
     3  C    0.368705   0.001820  -0.000571  -0.000001   0.000000   0.000000
     4  C   -0.030454  -0.023715   0.002321   0.000008   0.000000   0.000000
     5  C   -0.000297  -0.000071  -0.000016   0.000137   0.000009   0.000000
     6  F    0.000035   0.004567   0.000001   0.009163  -0.000885  -0.000021
     7  F    0.000887   0.000076   0.000000   0.000013   0.000000   0.000000
     8  F    0.000884   0.000076   0.000000   0.000013   0.000000   0.000000
     9  C    0.002412   0.379897  -0.021251  -0.000001  -0.000013   0.000001
    10  N   -0.000265  -0.031230   0.309642   0.000000   0.000000   0.000000
    11  C    0.002630   0.000968  -0.017809   0.000000   0.000000   0.000000
    12  S   -0.000056  -0.000132   0.013594   0.000000   0.000000   0.000000
    13  H    0.392665  -0.000061   0.000008   0.000000   0.000000   0.000000
    14  H   -0.000061   0.379949  -0.002094   0.000108   0.000064  -0.000004
    15  H    0.000008  -0.002094   0.268775   0.000000   0.000000   0.000000
    16  H    0.000000   0.000108   0.000000   0.310091   0.261644  -0.018450
    17  O    0.000000   0.000064   0.000000   0.261644   8.354689   0.266603
    18  H    0.000000  -0.000004   0.000000  -0.018450   0.266603   0.316605
 Mulliken atomic charges:
              1
     1  F   -0.359689
     2  C    0.406750
     3  C   -0.173624
     4  C   -0.300731
     5  C    1.207969
     6  F   -0.391485
     7  F   -0.370951
     8  F   -0.370955
     9  C    0.173927
    10  N   -0.780300
    11  C    0.181312
    12  S   -0.226421
    13  H    0.280282
    14  H    0.289902
    15  H    0.443584
    16  H    0.437275
    17  O   -0.882110
    18  H    0.435266
 Sum of Mulliken atomic charges =   0.00000
 Mulliken charges with hydrogens summed into heavy atoms:
              1
     1  F   -0.359689
     2  C    0.406750
     3  C    0.106658
     4  C   -0.300731
     5  C    1.207969
     6  F   -0.391485
     7  F   -0.370951
     8  F   -0.370955
     9  C    0.463829
    10  N   -0.336716
    11  C    0.181312
    12  S   -0.226421
    17  O   -0.009569
 Sum of Mulliken charges with hydrogens summed into heavy atoms =   0.00000
 Electronic spatial extent (au):  <R**2>=           3963.5894
 Charge=              0.0000 electrons
 Dipole moment (field-independent basis, Debye):
    X=              4.2386    Y=             -0.4787    Z=              0.0006  Tot=              4.2655
 Quadrupole moment (field-independent basis, Debye-Ang):
   XX=            -94.8137   YY=            -87.0111   ZZ=            -82.4630
   XY=              6.9838   XZ=              0.0022   YZ=             -0.0066
 Traceless Quadrupole moment (field-independent basis, Debye-Ang):
   XX=             -6.7178   YY=              1.0848   ZZ=              5.6330
   XY=              6.9838   XZ=              0.0022   YZ=             -0.0066
 Octapole moment (field-independent basis, Debye-Ang**2):
  XXX=            100.1779  YYY=            162.8792  ZZZ=              0.0393  XYY=            -56.1377
  XXY=             22.8574  XXZ=              0.0077  XZZ=            -15.5143  YZZ=             34.1787
  YYZ=              0.0514  XYZ=             -0.0217
 Hexadecapole moment (field-independent basis, Debye-Ang**3):
 XXXX=          -2837.5024 YYYY=          -1581.7200 ZZZZ=           -143.2375 XXXY=            112.3884
 XXXZ=              0.0781 YYYX=            667.0014 YYYZ=             -0.3504 ZZZX=              0.1811
 ZZZY=             -0.1726 XXYY=           -845.7031 XXZZ=           -588.4865 YYZZ=           -234.7605
 XXYZ=             -0.0914 YYXZ=              0.1927 ZZXY=            116.4563
 N-N= 9.032081587617D+02 E-N=-4.543848502897D+03  KE= 1.152540862292D+03
 1\1\GINC-B1\FOpt\RHF\6-31G(d)\C6H5F4N1O1S1\ANA\24-Sep-2021\1\\#HF/6-31
 G* Opt=Z-matrix NoSymm\\water interaction with atom F6\\0,1\F,-1,-1.96
 93,2.05368,0.00007\C,-1,-1.22225,0.94423,0.00003\C,-1,0.14003,1.0574,-
 0.00002\C,-1,0.92795,-0.12364,-0.00008\C,-1,2.41466,-0.01865,-0.00001\
 F,-1,3.00708,-1.23461,-0.00056\F,-1,2.85829,0.65448,-1.08602\F,-1,2.85
 827,0.6535,1.08665\C,-1,0.30654,-1.34149,-0.00009\N,-1,-1.05417,-1.389
 97,-0.00006\C,-1,-1.9305,-0.3121,0.\S,-1,-3.57098,-0.50661,0.00003\H,-
 1,0.59686,2.0431,-0.00002\H,-1,0.83176,-2.28899,-0.00015\H,-1,-1.52148
 ,-2.29639,-0.00009\X,6,RDUM,5,ADUM,4,DDUM,0\X,16,RDUM,6,ADUM,5,DDUM,0\
 H,6,RX,16,ADUM,17,DH1,0\X,18,RDUM,6,ADUM,16,DDUM,0\O,18,ROH,19,ADUM,6,
 DOH2,0\H,20,ROH,18,AHOH,16,DH2,0\\RX=2.30183574\RDUM=1.\ROH=0.9572\ADU
 M=90.\AHOH=104.52\DDUM=0.\DH1=180.\DOH2=180.\DH2=180.\\Version=EM64L-G
 09RevA.01\HF=-1154.6748373\RMSD=6.780e-09\RMSF=2.854e-03\Dipole=1.6675
 839,-0.1883489,0.0002395\Quadrupole=-4.9945085,0.8065406,4.1879679,5.1
 922843,0.0016396,-0.0049389\PG=C01 [X(C6H5F4N1O1S1)]\\@


 THE CHYMISTS ARE A STRANGE CLASS OF MORTALS IMPELLED
 BY AN ALMOST INSANE IMPULSE TO SEEK THEIR PLEASURE
 AMONG SMOKE AND VAPOR, SOOT AND FLAME, POISONS AND
 POVERTY; YET AMONG ALL THESE EVILS I SEEM TO LIVE
 SO SWEETLY, THAT I MAY DIE IF I WOULD CHANGE PLACES
 WITH THE PERSIAN KING.
   --  JOHANN JOACHIM BECHER, 1635-1682
 ACTA LABORATORII CHYMICA MONACENSIS, 1669
 Job cpu time:  0 days  0 hours  3 minutes 51.4 seconds.
 File lengths (MBytes):  RWF=     26 Int=      0 D2E=      0 Chk=      3 Scr=      1
 Normal termination of Gaussian 09 at Fri Sep 24 08:06:10 2021.
