 Entering Gaussian System, Link 0=g09
 Initial command:
 /home/ana/programs/g09/l1.exe /home/ana/programs/g09/scratch/Gau-700451.inp -scrdir=/home/ana/programs/g09/scratch/
 Entering Link 1 = /home/ana/programs/g09/l1.exe PID=    700453.
  
 Copyright (c) 1988,1990,1992,1993,1995,1998,2003,2009, Gaussian, Inc.
                  All Rights Reserved.
  
 This is part of the Gaussian(R) 09 program.  It is based on
 the Gaussian(R) 03 system (copyright 2003, Gaussian, Inc.),
 the Gaussian(R) 98 system (copyright 1998, Gaussian, Inc.),
 the Gaussian(R) 94 system (copyright 1995, Gaussian, Inc.),
 the Gaussian 92(TM) system (copyright 1992, Gaussian, Inc.),
 the Gaussian 90(TM) system (copyright 1990, Gaussian, Inc.),
 the Gaussian 88(TM) system (copyright 1988, Gaussian, Inc.),
 the Gaussian 86(TM) system (copyright 1986, Carnegie Mellon
 University), and the Gaussian 82(TM) system (copyright 1983,
 Carnegie Mellon University). Gaussian is a federally registered
 trademark of Gaussian, Inc.
  
 This software contains proprietary and confidential information,
 including trade secrets, belonging to Gaussian, Inc.
  
 This software is provided under written license and may be
 used, copied, transmitted, or stored only in accord with that
 written license.
  
 The following legend is applicable only to US Government
 contracts under FAR:
  
                    RESTRICTED RIGHTS LEGEND
  
 Use, reproduction and disclosure by the US Government is
 subject to restrictions as set forth in subparagraphs (a)
 and (c) of the Commercial Computer Software - Restricted
 Rights clause in FAR 52.227-19.
  
 Gaussian, Inc.
 340 Quinnipiac St., Bldg. 40, Wallingford CT 06492
  
  
 ---------------------------------------------------------------
 Warning -- This program may not be used in any manner that
 competes with the business of Gaussian, Inc. or will provide
 assistance to any competitor of Gaussian, Inc.  The licensee
 of this program is prohibited from giving any competitor of
 Gaussian, Inc. access to this program.  By using this program,
 the user acknowledges that Gaussian, Inc. is engaged in the
 business of creating and licensing software in the field of
 computational chemistry and represents and warrants to the
 licensee that it is not a competitor of Gaussian, Inc. and that
 it will not use this program in any manner prohibited above.
 ---------------------------------------------------------------
  

 Cite this work as:
 Gaussian 09, Revision A.01,
 M. J. Frisch, G. W. Trucks, H. B. Schlegel, G. E. Scuseria, 
 M. A. Robb, J. R. Cheeseman, G. Scalmani, V. Barone, B. Mennucci, 
 G. A. Petersson, H. Nakatsuji, M. Caricato, X. Li, H. P. Hratchian, 
 A. F. Izmaylov, J. Bloino, G. Zheng, J. L. Sonnenberg, M. Hada, 
 M. Ehara, K. Toyota, R. Fukuda, J. Hasegawa, M. Ishida, T. Nakajima, 
 Y. Honda, O. Kitao, H. Nakai, T. Vreven, J. A. Montgomery, Jr., 
 J. E. Peralta, F. Ogliaro, M. Bearpark, J. J. Heyd, E. Brothers, 
 K. N. Kudin, V. N. Staroverov, R. Kobayashi, J. Normand, 
 K. Raghavachari, A. Rendell, J. C. Burant, S. S. Iyengar, J. Tomasi, 
 M. Cossi, N. Rega, J. M. Millam, M. Klene, J. E. Knox, J. B. Cross, 
 V. Bakken, C. Adamo, J. Jaramillo, R. Gomperts, R. E. Stratmann, 
 O. Yazyev, A. J. Austin, R. Cammi, C. Pomelli, J. W. Ochterski, 
 R. L. Martin, K. Morokuma, V. G. Zakrzewski, G. A. Voth, 
 P. Salvador, J. J. Dannenberg, S. Dapprich, A. D. Daniels, 
 O. Farkas, J. B. Foresman, J. V. Ortiz, J. Cioslowski, 
 and D. J. Fox, Gaussian, Inc., Wallingford CT, 2009.
 
 ******************************************
 Gaussian 09:  EM64L-G09RevA.01  8-May-2009
                24-Sep-2021 
 ******************************************
 %NPROC=4
 Will use up to    4 processors via shared memory.
 %NoSave
 ------------------------------
 #HF/6-31G* Opt=Z-matrix NoSymm
 ------------------------------
 1/10=7,18=40,38=1/1,3;
 2/12=2,15=1,17=6,18=5,29=3,40=1/2;
 3/5=1,6=6,7=1,11=9,16=1,25=1,30=1,71=1/1,2,3;
 4//1;
 5/5=2,38=5/2;
 6/7=2,8=2,9=2,10=2,28=1/1;
 7/29=1,30=1/1,2,3,16;
 1/10=7,18=40/3(2);
 2/15=1,29=3/2;
 99//99;
 2/15=1,29=3/2;
 3/5=1,6=6,7=1,11=9,16=1,25=1,30=1,71=1/1,2,3;
 4/5=5,16=3/1;
 5/5=2,38=5/2;
 7/30=1/1,2,3,16;
 1/18=40/3(-5);
 2/15=1,29=3/2;
 6/7=2,8=2,9=2,10=2,19=2,28=1/1;
 99/9=1/99;
 ------------------------------
 water interaction with atom F6
 ------------------------------
 Symbolic Z-matrix:
 Charge =  0 Multiplicity = 1
 9                    -1   -1.9693    2.05368   0.00007 
 6                    -1   -1.22225   0.94423   0.00003 
 6                    -1    0.14003   1.0574   -0.00002 
 6                    -1    0.92795  -0.12364  -0.00008 
 6                    -1    2.41466  -0.01865  -0.00001 
 9                    -1    3.00708  -1.23461  -0.00056 
 9                    -1    2.85829   0.65448  -1.08602 
 9                    -1    2.85827   0.6535    1.08665 
 6                    -1    0.30654  -1.34149  -0.00009 
 7                    -1   -1.05417  -1.38997  -0.00006 
 6                    -1   -1.9305   -0.3121    0. 
 16                   -1   -3.57098  -0.50661   0.00003 
 1                    -1    0.59686   2.0431   -0.00002 
 1                    -1    0.83176  -2.28899  -0.00015 
 1                    -1   -1.52148  -2.29639  -0.00009 
 X                    6    RDUM     5    ADUM     4    DDUM     0
 X                    16   RDUM     6    ADUM     5    DDUM     0
 H1                   6    RX       16   ADUM     17   DH1      0
 X                    18   RDUM     6    ADUM     16   DDUM     0
 OH2                  18   ROH      19   ADUM     6    DOH2     0
 H2                   20   ROH      18   AHOH     16   DH2      0
       Variables:
  RX                    2.3018                   
       Constants:
  RDUM                  1.                       
  ROH                   0.9572                   
  ADUM                 90.                       
  AHOH                104.52                     
  DDUM                  0.                       
  DH1                 180.                       
  DOH2                180.                       
  DH2                 270.                       
 

 GradGradGradGradGradGradGradGradGradGradGradGradGradGradGradGradGradGrad
 Berny optimization.
 Initialization pass.
                       ----------------------------
                       !    Initial Parameters    !
                       ! (Angstroms and Degrees)  !
 ----------------------                            ----------------------
 !      Name          Value   Derivative information (Atomic Units)     !
 ------------------------------------------------------------------------
 !       RX          2.3018   estimate D2E/DX2                          !
 !      RDUM         1.0      Frozen                                    !
 !       ROH         0.9572   Frozen                                    !
 !      ADUM        90.0      Frozen                                    !
 !      AHOH       104.52     Frozen                                    !
 !      DDUM         0.0      Frozen                                    !
 !       DH1       180.0      Frozen                                    !
 !      DOH2       180.0      Frozen                                    !
 !       DH2       270.0      Frozen                                    !
 ------------------------------------------------------------------------
 Trust Radius=3.00D-01 FncErr=1.00D-07 GrdErr=1.00D-07
 Number of steps in this run=  20 maximum allowed number of steps= 100.
 GradGradGradGradGradGradGradGradGradGradGradGradGradGradGradGradGradGrad

 ---------------------------------------------------------------------------------------------------
                            Z-MATRIX (ANGSTROMS AND DEGREES)
   CD    Cent   Atom    N1       Length/X        N2       Alpha/Y        N3        Beta/Z          J
 ---------------------------------------------------------------------------------------------------
      1      1  F       -1  -1.969300          2.053680          0.000070
      2      2  C       -1  -1.222250          0.944230          0.000030
      3      3  C       -1   0.140030          1.057400         -0.000020
      4      4  C       -1   0.927950         -0.123640         -0.000080
      5      5  C       -1   2.414660         -0.018650         -0.000010
      6      6  F       -1   3.007080         -1.234610         -0.000560
      7      7  F       -1   2.858290          0.654480         -1.086020
      8      8  F       -1   2.858270          0.653500          1.086650
      9      9  C       -1   0.306540         -1.341490         -0.000090
     10     10  N       -1  -1.054170         -1.389970         -0.000060
     11     11  C       -1  -1.930500         -0.312100          0.000000
     12     12  S       -1  -3.570980         -0.506610          0.000030
     13     13  H       -1   0.596860          2.043100         -0.000020
     14     14  H       -1   0.831760         -2.288990         -0.000150
     15     15  H       -1  -1.521480         -2.296390         -0.000090
     16         X        6   1.000000(    15)      5   90.000(    34)      4    0.000(    52)      0
     17         X       16   1.000000(    16)      6   90.000(    35)      5    0.000(    53)      0
     18     16  H        6   2.301800(    17)     16   90.000(    36)     17  180.000(    54)      0
     19         X       18   1.000000(    18)      6   90.000(    37)     16    0.000(    55)      0
     20     17  O       18   0.957200(    19)     19   90.000(    38)      6  180.000(    56)      0
     21     18  H       20   0.957200(    20)     18  104.520(    39)     16  270.000(    57)      0
 ---------------------------------------------------------------------------------------------------
                         Z-Matrix orientation:                         
 ---------------------------------------------------------------------
 Center     Atomic      Atomic             Coordinates (Angstroms)
 Number     Number       Type             X           Y           Z
 ---------------------------------------------------------------------
      1          9           0       -1.969300    2.053680    0.000070
      2          6           0       -1.222250    0.944230    0.000030
      3          6           0        0.140030    1.057400   -0.000020
      4          6           0        0.927950   -0.123640   -0.000080
      5          6           0        2.414660   -0.018650   -0.000010
      6          9           0        3.007080   -1.234610   -0.000560
      7          9           0        2.858290    0.654480   -1.086020
      8          9           0        2.858270    0.653500    1.086650
      9          6           0        0.306540   -1.341490   -0.000090
     10          7           0       -1.054170   -1.389970   -0.000060
     11          6           0       -1.930500   -0.312100    0.000000
     12         16           0       -3.570980   -0.506610    0.000030
     13          1           0        0.596860    2.043100   -0.000020
     14          1           0        0.831760   -2.288990   -0.000150
     15          1           0       -1.521480   -2.296390   -0.000090
     16         -1           0        2.108099   -1.672597   -0.000774
     17         -1           0        1.670112   -0.773616   -0.000368
     18          1           0        4.015238   -3.303885   -0.001496
     19         -1           0        3.116257   -3.741872   -0.001710
     20          8           0        4.434479   -4.164390   -0.001885
     21          1           0        4.539577   -4.380560    0.924644
 ---------------------------------------------------------------------
                    Distance matrix (angstroms):
                    1          2          3          4          5
     1  F    0.000000
     2  C    1.337521   0.000000
     3  C    2.332777   1.366973   0.000000
     4  C    3.624194   2.400772   1.419744   0.000000
     5  C    4.849088   3.762214   2.516312   1.490413   0.000000
     6  F    5.964663   4.757581   3.670597   2.357337   1.352598
     7  F    5.142274   4.232525   2.954772   2.347541   1.352527
     8  F    5.142625   4.232719   2.955134   2.347566   1.352555
     9  C    4.087374   2.749857   2.404662   1.367227   2.488790
    10  N    3.563171   2.340244   2.723184   2.352104   3.730054
    11  C    2.366098   1.442215   2.482463   2.864656   4.355058
    12  S    3.020011   2.760701   4.027123   4.515201   6.005497
    13  H    2.566182   2.125247   1.086415   2.191890   2.748674
    14  H    5.167661   3.830492   3.417136   2.167485   2.767673
    15  H    4.373060   3.254406   3.742796   3.274225   4.547669
    16  X    5.523615   4.235446   3.365439   1.947311   1.682118
    17  X    4.608570   3.364038   2.386162   0.986546   1.060342
    18  H    8.032322   6.743721   5.834214   4.432303   3.654398
    19  X    7.710468   6.386094   5.647206   4.228509   3.788749
    20  O    8.925961   7.622112   6.760872   5.350085   4.611598
    21  H    9.198900   7.899807   7.055666   5.658651   4.939283
                    6          7          8          9         10
     6  F    0.000000
     7  F    2.183809   0.000000
     8  F    2.183834   2.172670   0.000000
     9  C    2.702654   3.416807   3.416477   0.000000
    10  N    4.064221   4.546034   4.545756   1.361573   0.000000
    11  C    5.023019   5.004620   5.004549   2.462517   1.389157
    12  S    6.618222   6.622926   6.622828   3.966382   2.667332
    13  H    4.068482   2.867355   2.868068   3.397019   3.809445
    14  H    2.417382   3.734964   3.734451   1.083334   2.089251
    15  H    4.651369   5.391592   5.391203   2.062399   1.019792
    16  X    1.000000   2.675039   2.675065   1.831733   3.174873
    17  X    1.414214   2.151712   2.151740   1.477095   2.793135
    18  H    2.301800   4.264197   4.264216   4.195884   5.418669
    19  X    2.509638   4.535437   4.535458   3.695449   4.787891
    20  O    3.259000   5.184711   5.184728   5.000865   6.150015
    21  H    3.619606   5.676365   5.309877   5.292417   6.410047
                   11         12         13         14         15
    11  C    0.000000
    12  S    1.651971   0.000000
    13  H    3.454637   4.885889   0.000000
    14  H    3.396789   4.749842   4.338454   0.000000
    15  H    2.026007   2.720986   4.828927   2.353252   0.000000
    16  X    4.261600   5.797539   4.011265   1.417385   3.682792
    17  X    3.630069   5.247889   3.014259   1.731818   3.536255
    18  H    6.656019   8.085509   6.346303   3.341339   5.627637
    19  X    6.101893   7.428732   6.309775   2.707359   4.857780
    20  O    7.439966   8.801519   7.297962   4.061615   6.242025
    21  H    7.698651   9.035681   7.593644   4.356353   6.475748
                   16         17         18         19         20
    16  X    0.000000
    17  X    1.000000   0.000000
    18  H    2.509638   3.449911   0.000000
    19  X    2.301800   3.301800   1.000000   0.000000
    20  O    3.408971   4.374824   0.957200   1.384280   0.000000
    21  H    3.755203   4.701013   1.513901   1.814358   0.957200
                   21
    21  H    0.000000
 Symmetry turned off by external request.
 Stoichiometry    C6H5F4NOS
 Framework group  C1[X(C6H5F4NOS)]
 Deg. of freedom    48
 Full point group                 C1      NOp   1
 Rotational constants (GHZ):      1.0956706      0.3195881      0.2590016
 Standard basis: 6-31G(d) (6D, 7F)
 Integral buffers will be    131072 words long.
 Raffenetti 1 integral format.
 Two-electron integral symmetry is turned off.
   209 basis functions,   408 primitive gaussians,   209 cartesian basis functions
    54 alpha electrons       54 beta electrons
       nuclear repulsion energy       903.4249904118 Hartrees.
 NAtoms=   18 NActive=   18 NUniq=   18 SFac= 7.50D-01 NAtFMM=   80 NAOKFM=F Big=F
 One-electron integrals computed using PRISM.
 NBasis=   209 RedAO= T  NBF=   209
 NBsUse=   209 1.00D-06 NBFU=   209
 Harris functional with IExCor=  205 diagonalized for initial guess.
 ExpMin= 1.17D-01 ExpMax= 2.19D+04 ExpMxC= 3.30D+03 IAcc=1 IRadAn=         1 AccDes= 0.00D+00
 HarFok:  IExCor=  205 AccDes= 0.00D+00 IRadAn=         1 IDoV= 1
 ScaDFX=  1.000000  1.000000  1.000000  1.000000
 FoFCou: FMM=F IPFlag=           0 FMFlag=      100000 FMFlg1=           0
         NFxFlg=           0 DoJE=T BraDBF=F KetDBF=T FulRan=T
         Omega=  0.000000  0.000000  1.000000  0.000000  0.000000 ICntrl=     500 IOpCl=  0
         NMat0=    1 NMatS0=    1 NMatT0=    0 NMatD0=    1 NMtDS0=    0 NMtDT0=    0
         I1Cent=           4 NGrid=           0.
 Symmetry not used in FoFCou.
 Requested convergence on RMS density matrix=1.00D-08 within 128 cycles.
 Requested convergence on MAX density matrix=1.00D-06.
 Requested convergence on             energy=1.00D-06.
 No special actions if energy rises.
 Integral accuracy reduced to 1.0D-05 until final iterations.
 Initial convergence to 1.0D-05 achieved.  Increase integral accuracy.
 SCF Done:  E(RHF) =  -1154.67403061     A.U. after   15 cycles
             Convg  =    0.5706D-08             -V/T =  2.0019

 **********************************************************************

            Population analysis using the SCF density.

 **********************************************************************

 Alpha  occ. eigenvalues --  -91.90718 -26.38353 -26.36624 -26.36520 -26.33683
 Alpha  occ. eigenvalues --  -20.56528 -15.68990 -11.55040 -11.38087 -11.37471
 Alpha  occ. eigenvalues --  -11.36538 -11.31515 -11.30757  -8.91805  -6.60132
 Alpha  occ. eigenvalues --   -6.59857  -6.59730  -1.75064  -1.66289  -1.65048
 Alpha  occ. eigenvalues --   -1.64931  -1.35834  -1.34729  -1.17532  -1.12370
 Alpha  occ. eigenvalues --   -1.03541  -0.97656  -0.93132  -0.88592  -0.85408
 Alpha  occ. eigenvalues --   -0.84769  -0.84164  -0.77399  -0.76342  -0.74215
 Alpha  occ. eigenvalues --   -0.73173  -0.72541  -0.71555  -0.71177  -0.70605
 Alpha  occ. eigenvalues --   -0.68492  -0.68412  -0.66865  -0.64354  -0.62812
 Alpha  occ. eigenvalues --   -0.61225  -0.59807  -0.57616  -0.52823  -0.50339
 Alpha  occ. eigenvalues --   -0.46907  -0.43542  -0.34338  -0.31249
 Alpha virt. eigenvalues --    0.04207   0.08387   0.17063   0.20069   0.24263
 Alpha virt. eigenvalues --    0.25066   0.26076   0.26200   0.29048   0.32627
 Alpha virt. eigenvalues --    0.33559   0.34997   0.39927   0.39996   0.42332
 Alpha virt. eigenvalues --    0.43160   0.46357   0.49243   0.53855   0.55431
 Alpha virt. eigenvalues --    0.56480   0.59491   0.60931   0.64143   0.66300
 Alpha virt. eigenvalues --    0.67286   0.71635   0.72723   0.73109   0.75077
 Alpha virt. eigenvalues --    0.76831   0.77598   0.82608   0.84173   0.87213
 Alpha virt. eigenvalues --    0.88722   0.89745   0.91844   0.95410   0.99508
 Alpha virt. eigenvalues --    1.00363   1.02222   1.03689   1.04376   1.07251
 Alpha virt. eigenvalues --    1.08972   1.09436   1.12041   1.14320   1.14955
 Alpha virt. eigenvalues --    1.15684   1.16332   1.17339   1.17902   1.24204
 Alpha virt. eigenvalues --    1.27743   1.30644   1.31122   1.32333   1.32675
 Alpha virt. eigenvalues --    1.34616   1.36941   1.39970   1.41476   1.41816
 Alpha virt. eigenvalues --    1.43494   1.47081   1.51761   1.59860   1.59985
 Alpha virt. eigenvalues --    1.60634   1.63044   1.63647   1.63822   1.64299
 Alpha virt. eigenvalues --    1.66113   1.67186   1.68650   1.69379   1.70751
 Alpha virt. eigenvalues --    1.72834   1.75935   1.77857   1.84008   1.87160
 Alpha virt. eigenvalues --    1.89198   1.91688   1.93646   1.99784   2.01558
 Alpha virt. eigenvalues --    2.02815   2.03985   2.05533   2.06215   2.08525
 Alpha virt. eigenvalues --    2.09764   2.11753   2.11928   2.17700   2.19927
 Alpha virt. eigenvalues --    2.22018   2.22060   2.24121   2.27883   2.29257
 Alpha virt. eigenvalues --    2.30092   2.31917   2.33385   2.34091   2.35468
 Alpha virt. eigenvalues --    2.37545   2.38885   2.42955   2.44649   2.45287
 Alpha virt. eigenvalues --    2.46489   2.51857   2.60270   2.61630   2.62978
 Alpha virt. eigenvalues --    2.65087   2.67854   2.74604   2.82485   2.84177
 Alpha virt. eigenvalues --    2.84274   2.90829   2.92483   2.92951   2.94267
 Alpha virt. eigenvalues --    2.99938   3.06545   3.09278   3.16771   3.21636
 Alpha virt. eigenvalues --    3.29252   3.36743   3.38913   3.42608   3.44560
 Alpha virt. eigenvalues --    3.49019   3.70851   4.02545   4.36142   4.39782
 Alpha virt. eigenvalues --    4.45266   4.48078   4.59779   4.64723   4.68099
 Alpha virt. eigenvalues --    4.82024   5.00917   5.19567   5.57993   6.04422
          Condensed to atoms (all electrons):
              1          2          3          4          5          6
     1  F    9.158969   0.267911  -0.033654   0.002215  -0.000015   0.000000
     2  C    0.267911   4.575995   0.569565  -0.025726   0.000879  -0.000019
     3  C   -0.033654   0.569565   5.066328   0.353969  -0.012954   0.002128
     4  C    0.002215  -0.025726   0.353969   5.202098   0.420776  -0.043969
     5  C   -0.000015   0.000879  -0.012954   0.420776   3.553834   0.277342
     6  F    0.000000  -0.000019   0.002128  -0.043969   0.277342   9.197475
     7  F    0.000000   0.000292   0.004945  -0.055360   0.286305  -0.030216
     8  F    0.000000   0.000290   0.004951  -0.055360   0.285257  -0.030221
     9  C    0.000134  -0.023448  -0.052950   0.589526  -0.021132   0.005570
    10  N    0.001382  -0.053049  -0.021413  -0.035023   0.001169   0.000231
    11  C   -0.040751   0.377057  -0.078864  -0.001385   0.000072   0.000002
    12  S    0.003501  -0.083500   0.001593  -0.000051   0.000006   0.000000
    13  H   -0.000277  -0.017124   0.368644  -0.030354  -0.000304   0.000036
    14  H    0.000000  -0.000134   0.001876  -0.024181  -0.000137   0.004658
    15  H   -0.000018   0.003850  -0.000577   0.002342  -0.000016   0.000001
    16  H    0.000000   0.000000  -0.000001   0.000013   0.000130   0.009152
    17  O    0.000000   0.000000   0.000000   0.000001   0.000007  -0.000887
    18  H    0.000000   0.000000   0.000000   0.000000   0.000000  -0.000022
              7          8          9         10         11         12
     1  F    0.000000   0.000000   0.000134   0.001382  -0.040751   0.003501
     2  C    0.000292   0.000290  -0.023448  -0.053049   0.377057  -0.083500
     3  C    0.004945   0.004951  -0.052950  -0.021413  -0.078864   0.001593
     4  C   -0.055360  -0.055360   0.589526  -0.035023  -0.001385  -0.000051
     5  C    0.286305   0.285257  -0.021132   0.001169   0.000072   0.000006
     6  F   -0.030216  -0.030221   0.005570   0.000231   0.000002   0.000000
     7  F    9.196177  -0.034028   0.000510  -0.000006  -0.000002   0.000000
     8  F   -0.034028   9.198963   0.000486  -0.000006  -0.000002   0.000000
     9  C    0.000510   0.000486   4.733932   0.268290  -0.038347   0.003340
    10  N   -0.000006  -0.000006   0.268290   7.233705   0.211484  -0.104394
    11  C   -0.000002  -0.000002  -0.038347   0.211484   4.956505   0.447362
    12  S    0.000000   0.000000   0.003340  -0.104394   0.447362  15.944517
    13  H    0.000893   0.000890   0.002420  -0.000265   0.002628  -0.000055
    14  H    0.000078   0.000077   0.379940  -0.031624   0.001000  -0.000133
    15  H    0.000000   0.000000  -0.021330   0.309686  -0.017799   0.013677
    16  H    0.000013   0.000013  -0.000021   0.000000   0.000000   0.000000
    17  O    0.000000   0.000000  -0.000028   0.000000   0.000000   0.000000
    18  H    0.000000   0.000000   0.000001   0.000000   0.000000   0.000000
             13         14         15         16         17         18
     1  F   -0.000277   0.000000  -0.000018   0.000000   0.000000   0.000000
     2  C   -0.017124  -0.000134   0.003850   0.000000   0.000000   0.000000
     3  C    0.368644   0.001876  -0.000577  -0.000001   0.000000   0.000000
     4  C   -0.030354  -0.024181   0.002342   0.000013   0.000001   0.000000
     5  C   -0.000304  -0.000137  -0.000016   0.000130   0.000007   0.000000
     6  F    0.000036   0.004658   0.000001   0.009152  -0.000887  -0.000022
     7  F    0.000893   0.000078   0.000000   0.000013   0.000000   0.000000
     8  F    0.000890   0.000077   0.000000   0.000013   0.000000   0.000000
     9  C    0.002420   0.379940  -0.021330  -0.000021  -0.000028   0.000001
    10  N   -0.000265  -0.031624   0.309686   0.000000   0.000000   0.000000
    11  C    0.002628   0.001000  -0.017799   0.000000   0.000000   0.000000
    12  S   -0.000055  -0.000133   0.013677   0.000000   0.000000   0.000000
    13  H    0.391742  -0.000061   0.000008   0.000000   0.000000   0.000000
    14  H   -0.000061   0.384549  -0.002148   0.000162   0.000147  -0.000001
    15  H    0.000008  -0.002148   0.269404   0.000000   0.000000   0.000000
    16  H    0.000000   0.000162   0.000000   0.309715   0.261620  -0.018452
    17  O    0.000000   0.000147   0.000000   0.261620   8.352579   0.265588
    18  H    0.000000  -0.000001   0.000000  -0.018452   0.265588   0.320917
 Mulliken atomic charges:
              1
     1  F   -0.359397
     2  C    0.407161
     3  C   -0.173586
     4  C   -0.299532
     5  C    1.208781
     6  F   -0.391261
     7  F   -0.369599
     8  F   -0.371311
     9  C    0.173109
    10  N   -0.780167
    11  C    0.181039
    12  S   -0.225864
    13  H    0.281179
    14  H    0.285932
    15  H    0.442919
    16  H    0.437656
    17  O   -0.879027
    18  H    0.431969
 Sum of Mulliken atomic charges =   0.00000
 Mulliken charges with hydrogens summed into heavy atoms:
              1
     1  F   -0.359397
     2  C    0.407161
     3  C    0.107594
     4  C   -0.299532
     5  C    1.208781
     6  F   -0.391261
     7  F   -0.369599
     8  F   -0.371311
     9  C    0.459041
    10  N   -0.337248
    11  C    0.181039
    12  S   -0.225864
    17  O   -0.009402
 Sum of Mulliken charges with hydrogens summed into heavy atoms =   0.00000
 Electronic spatial extent (au):  <R**2>=           3954.8962
 Charge=              0.0000 electrons
 Dipole moment (field-independent basis, Debye):
    X=              2.6711    Y=             -1.1919    Z=              1.7162  Tot=              3.3913
 Quadrupole moment (field-independent basis, Debye-Ang):
   XX=           -111.0880   YY=            -80.5728   ZZ=            -80.2042
   XY=              9.6911   XZ=              8.0238   YZ=             -7.8803
 Traceless Quadrupole moment (field-independent basis, Debye-Ang):
   XX=            -20.4663   YY=             10.0489   ZZ=             10.4175
   XY=              9.6911   XZ=              8.0238   YZ=             -7.8803
 Octapole moment (field-independent basis, Debye-Ang**2):
  XXX=            -25.1535  YYY=            122.5480  ZZZ=              0.4719  XYY=            -50.4499
  XXY=             71.6260  XXZ=             36.4904  XZZ=             -4.9844  YZZ=             24.6077
  YYZ=             34.9822  XYZ=            -36.2309
 Hexadecapole moment (field-independent basis, Debye-Ang**3):
 XXXX=          -3679.0860 YYYY=          -1358.9019 ZZZZ=           -142.9517 XXXY=            536.3472
 XXXZ=            165.0067 YYYX=            572.5196 YYYZ=           -153.5639 ZZZX=              2.4270
 ZZZY=             -2.5180 XXYY=           -961.9819 XXZZ=           -539.4709 YYZZ=           -194.0412
 XXYZ=           -164.6305 YYXZ=            160.5641 ZZXY=             71.7837
 N-N= 9.034249904118D+02 E-N=-4.544194145046D+03  KE= 1.152539987558D+03
 Calling FoFJK, ICntrl=      2127 FMM=F ISym2X=0 I1Cent= 0 IOpClX= 0 NMat=1 NMatS=1 NMatT=0.
 -------------------------------------------------------------------
 Center     Atomic                   Forces (Hartrees/Bohr)
 Number     Number              X              Y              Z
 -------------------------------------------------------------------
      1        9           0.000000000    0.000000000    0.000000000
      2        6           0.000000000    0.000000000    0.000000000
      3        6           0.000000000    0.000000000    0.000000000
      4        6           0.000000000    0.000000000    0.000000000
      5        6           0.000000000    0.000000000    0.000000000
      6        9           0.000000000    0.000000000    0.000000000
      7        9           0.000000000    0.000000000    0.000000000
      8        9           0.000000000    0.000000000    0.000000000
      9        6           0.000000000    0.000000000    0.000000000
     10        7           0.000000000    0.000000000    0.000000000
     11        6           0.000000000    0.000000000    0.000000000
     12       16           0.000000000    0.000000000    0.000000000
     13        1           0.000000000    0.000000000    0.000000000
     14        1           0.000000000    0.000000000    0.000000000
     15        1           0.000000000    0.000000000    0.000000000
     16        1           0.006530751   -0.009166005   -0.001410285
     17        8          -0.006146545    0.007947950    0.011975940
     18        1           0.000099830    0.001330331   -0.010510739
 -------------------------------------------------------------------
 Cartesian Forces:  Max     0.011975940 RMS     0.002997788
 -----------------------------------------------------------------------------------------------
                       Internal Coordinate Forces (Hartree/Bohr or radian)
  Cent   Atom   N1       Length/X         N2         Alpha/Y        N3         Beta/Z          J
 -----------------------------------------------------------------------------------------------
      1  F 
      2  C 
      3  C 
      4  C 
      5  C 
      6  F 
      7  F 
      8  F 
      9  C 
     10  N 
     11  C 
     12  S 
     13  H 
     14  H 
     15  H 
         X        6   0.000000(     1)      5  -0.000071(     7)      4  -0.001173(    13)     0
         X       16   0.000000(     2)      6   0.000000(     8)      5   0.000125(    14)     0
     16  H        6   0.000111(     3)     16  -0.000071(     9)     17  -0.000125(    15)     0
         X       18   0.000000(     4)      6  -0.002177(    10)     16   0.000000(    16)     0
     17  O       18  -0.010990(     5)     19  -0.002177(    11)      6  -0.002587(    17)     0
     18  H       20  -0.010463(     6)     18   0.002757(    12)     16  -0.001173(    18)     0
 -----------------------------------------------------------------------------------------------
 Internal  Forces:  Max     0.010989979 RMS     0.003777466

 GradGradGradGradGradGradGradGradGradGradGradGradGradGradGradGradGradGrad
 Berny optimization.
 Search for a local minimum.
 Step number   1 out of a maximum of   20
 All quantities printed in internal units (Hartrees-Bohrs-Radians)
 Second derivative matrix not updated -- first step.
 The second derivative matrix:
                          RX       RDUM       ROH      ADUM      AHOH
           RX           0.02714
           RDUM         0.00000   0.00000
           ROH          0.00000   0.00000   1.12160
           ADUM         0.00000   0.00000   0.00000   1.64000
           AHOH         0.00000   0.00000   0.00000   0.00000   0.16000
           DDUM         0.00000   0.00000   0.00000  -0.00006   0.00000
           DH1          0.00000   0.00000   0.00000   0.00006   0.00000
           DOH2         0.00000   0.00000   0.00000   0.00010   0.00000
           DH2          0.00000   0.00000   0.00000   0.00000   0.00000
                         DDUM       DH1      DOH2       DH2
           DDUM         0.19798
           DH1         -0.19798   0.19798
           DOH2         0.00000   0.00000   0.30934
           DH2          0.00000   0.00000   0.00000   0.00000
     Eigenvalues ---    0.027141000.000001000.000001000.000001000.00000
     Eigenvalues --- 1000.000001000.000001000.000001000.00000
 RFO step:  Lambda=-4.54357334D-07 EMin= 2.71390820D-02
 Linear search not attempted -- first point.
 Variable       Old X    -DE/DX   Delta X   Delta X   Delta X     New X
                                 (Linear)    (Quad)   (Total)
    RX        4.34977   0.00011   0.00000   0.00409   0.00409   4.35386
   RDUM       1.88973   0.00000   0.00000   0.00000   0.00000   1.88973
   ROH        1.80885  -0.02145   0.00000   0.00000   0.00000   1.80885
   ADUM       1.57080  -0.00450   0.00000   0.00000   0.00000   1.57080
   AHOH       1.82422   0.00276   0.00000   0.00000   0.00000   1.82422
   DDUM       0.00000  -0.00105   0.00000   0.00000   0.00000   0.00000
   DH1        3.14159  -0.00012   0.00000   0.00000   0.00000   3.14159
   DOH2       3.14159  -0.00259   0.00000   0.00000   0.00000   3.14159
   DH2        4.71239  -0.00117   0.00000   0.00000   0.00000   4.71239
         Item               Value     Threshold  Converged?
 Maximum Force            0.000111     0.000450     YES
 RMS     Force            0.000111     0.000300     YES
 Maximum Displacement     0.004092     0.001800     NO 
 RMS     Displacement     0.001364     0.001200     NO 
 Predicted change in Energy=-2.271787D-07
 GradGradGradGradGradGradGradGradGradGradGradGradGradGradGradGradGradGrad

 ---------------------------------------------------------------------------------------------------
                            Z-MATRIX (ANGSTROMS AND DEGREES)
   CD    Cent   Atom    N1       Length/X        N2       Alpha/Y        N3        Beta/Z          J
 ---------------------------------------------------------------------------------------------------
      1      1  F       -1  -1.969300          2.053680          0.000070
      2      2  C       -1  -1.222250          0.944230          0.000030
      3      3  C       -1   0.140030          1.057400         -0.000020
      4      4  C       -1   0.927950         -0.123640         -0.000080
      5      5  C       -1   2.414660         -0.018650         -0.000010
      6      6  F       -1   3.007080         -1.234610         -0.000560
      7      7  F       -1   2.858290          0.654480         -1.086020
      8      8  F       -1   2.858270          0.653500          1.086650
      9      9  C       -1   0.306540         -1.341490         -0.000090
     10     10  N       -1  -1.054170         -1.389970         -0.000060
     11     11  C       -1  -1.930500         -0.312100          0.000000
     12     12  S       -1  -3.570980         -0.506610          0.000030
     13     13  H       -1   0.596860          2.043100         -0.000020
     14     14  H       -1   0.831760         -2.288990         -0.000150
     15     15  H       -1  -1.521480         -2.296390         -0.000090
     16         X        6   1.000000(    15)      5   90.000(    34)      4    0.000(    52)      0
     17         X       16   1.000000(    16)      6   90.000(    35)      5    0.000(    53)      0
     18     16  H        6   2.303965(    17)     16   90.000(    36)     17  180.000(    54)      0
     19         X       18   1.000000(    18)      6   90.000(    37)     16    0.000(    55)      0
     20     17  O       18   0.957200(    19)     19   90.000(    38)      6  180.000(    56)      0
     21     18  H       20   0.957200(    20)     18  104.520(    39)     16  270.000(    57)      0
 ---------------------------------------------------------------------------------------------------
                         Z-Matrix orientation:                         
 ---------------------------------------------------------------------
 Center     Atomic      Atomic             Coordinates (Angstroms)
 Number     Number       Type             X           Y           Z
 ---------------------------------------------------------------------
      1          9           0       -1.969300    2.053680    0.000070
      2          6           0       -1.222250    0.944230    0.000030
      3          6           0        0.140030    1.057400   -0.000020
      4          6           0        0.927950   -0.123640   -0.000080
      5          6           0        2.414660   -0.018650   -0.000010
      6          9           0        3.007080   -1.234610   -0.000560
      7          9           0        2.858290    0.654480   -1.086020
      8          9           0        2.858270    0.653500    1.086650
      9          6           0        0.306540   -1.341490   -0.000090
     10          7           0       -1.054170   -1.389970   -0.000060
     11          6           0       -1.930500   -0.312100    0.000000
     12         16           0       -3.570980   -0.506610    0.000030
     13          1           0        0.596860    2.043100   -0.000020
     14          1           0        0.831760   -2.288990   -0.000150
     15          1           0       -1.521480   -2.296390   -0.000090
     16         -1           0        2.108099   -1.672597   -0.000774
     17         -1           0        1.670112   -0.773616   -0.000368
     18          1           0        4.016186   -3.305832   -0.001497
     19         -1           0        3.117205   -3.743818   -0.001711
     20          8           0        4.435427   -4.166336   -0.001886
     21          1           0        4.540525   -4.382506    0.924643
 ---------------------------------------------------------------------
                    Distance matrix (angstroms):
                    1          2          3          4          5
     1  F    0.000000
     2  C    1.337521   0.000000
     3  C    2.332777   1.366973   0.000000
     4  C    3.624194   2.400772   1.419744   0.000000
     5  C    4.849088   3.762214   2.516312   1.490413   0.000000
     6  F    5.964663   4.757581   3.670597   2.357337   1.352598
     7  F    5.142274   4.232525   2.954772   2.347541   1.352527
     8  F    5.142625   4.232719   2.955134   2.347566   1.352555
     9  C    4.087374   2.749857   2.404662   1.367227   2.488790
    10  N    3.563171   2.340244   2.723184   2.352104   3.730054
    11  C    2.366098   1.442215   2.482463   2.864656   4.355058
    12  S    3.020011   2.760701   4.027123   4.515201   6.005497
    13  H    2.566182   2.125247   1.086415   2.191890   2.748674
    14  H    5.167661   3.830492   3.417136   2.167485   2.767673
    15  H    4.373060   3.254406   3.742796   3.274225   4.547669
    16  X    5.523615   4.235446   3.365439   1.947311   1.682118
    17  X    4.608570   3.364038   2.386162   0.986546   1.060342
    18  H    8.034327   6.745683   5.836299   4.434360   3.656563
    19  X    7.712556   6.388166   5.649360   4.230666   3.790838
    20  O    8.927998   7.624120   6.762978   5.352177   4.613763
    21  H    9.200932   7.901810   7.057757   5.660720   4.941409
                    6          7          8          9         10
     6  F    0.000000
     7  F    2.183809   0.000000
     8  F    2.183834   2.172670   0.000000
     9  C    2.702654   3.416807   3.416477   0.000000
    10  N    4.064221   4.546034   4.545756   1.361573   0.000000
    11  C    5.023019   5.004620   5.004549   2.462517   1.389157
    12  S    6.618222   6.622926   6.622828   3.966382   2.667332
    13  H    4.068482   2.867355   2.868068   3.397019   3.809445
    14  H    2.417382   3.734964   3.734451   1.083334   2.089251
    15  H    4.651369   5.391592   5.391203   2.062399   1.019792
    16  X    1.000000   2.675039   2.675065   1.831733   3.174873
    17  X    1.414214   2.151712   2.151740   1.477095   2.793135
    18  H    2.303965   4.266261   4.266279   4.197632   5.420244
    19  X    2.511624   4.537377   4.537399   3.697435   4.789674
    20  O    3.261165   5.186808   5.186826   5.002747   6.151739
    21  H    3.621699   5.678372   5.312023   5.294293   6.411783
                   11         12         13         14         15
    11  C    0.000000
    12  S    1.651971   0.000000
    13  H    3.454637   4.885889   0.000000
    14  H    3.396789   4.749842   4.338454   0.000000
    15  H    2.026007   2.720986   4.828927   2.353252   0.000000
    16  X    4.261600   5.797539   4.011265   1.417385   3.682792
    17  X    3.630069   5.247889   3.014259   1.731818   3.536255
    18  H    6.657741   8.087072   6.348454   3.342834   5.628919
    19  X    6.103771   7.430433   6.311938   2.709204   4.859264
    20  O    7.441786   8.803190   7.300117   4.063355   6.243513
    21  H    7.700477   9.037367   7.595783   4.358095   6.477262
                   16         17         18         19         20
    16  X    0.000000
    17  X    1.000000   0.000000
    18  H    2.511624   3.451983   0.000000
    19  X    2.303965   3.303965   1.000000   0.000000
    20  O    3.411041   4.376931   0.957200   1.384280   0.000000
    21  H    3.757221   4.703085   1.513901   1.814358   0.957200
                   21
    21  H    0.000000
 Symmetry turned off by external request.
 Stoichiometry    C6H5F4NOS
 Framework group  C1[X(C6H5F4NOS)]
 Deg. of freedom    48
 Full point group                 C1      NOp   1
 Rotational constants (GHZ):      1.0953309      0.3195354      0.2589480
 Standard basis: 6-31G(d) (6D, 7F)
 Integral buffers will be    131072 words long.
 Raffenetti 1 integral format.
 Two-electron integral symmetry is turned off.
   209 basis functions,   408 primitive gaussians,   209 cartesian basis functions
    54 alpha electrons       54 beta electrons
       nuclear repulsion energy       903.3891968464 Hartrees.
 NAtoms=   18 NActive=   18 NUniq=   18 SFac= 7.50D-01 NAtFMM=   80 NAOKFM=F Big=F
 One-electron integrals computed using PRISM.
 NBasis=   209 RedAO= T  NBF=   209
 NBsUse=   209 1.00D-06 NBFU=   209
 Initial guess read from the read-write file.
 B after Tr=     0.000000    0.000000    0.000000
         Rot=    1.000000    0.000000    0.000000    0.000000 Ang=   0.00 deg.
 Requested convergence on RMS density matrix=1.00D-08 within 128 cycles.
 Requested convergence on MAX density matrix=1.00D-06.
 Requested convergence on             energy=1.00D-06.
 No special actions if energy rises.
 SCF Done:  E(RHF) =  -1154.67403105     A.U. after    5 cycles
             Convg  =    0.5323D-08             -V/T =  2.0019
 Calling FoFJK, ICntrl=      2127 FMM=F ISym2X=0 I1Cent= 0 IOpClX= 0 NMat=1 NMatS=1 NMatT=0.
 -------------------------------------------------------------------
 Center     Atomic                   Forces (Hartrees/Bohr)
 Number     Number              X              Y              Z
 -------------------------------------------------------------------
      1        9           0.000000000    0.000000000    0.000000000
      2        6           0.000000000    0.000000000    0.000000000
      3        6           0.000000000    0.000000000    0.000000000
      4        6           0.000000000    0.000000000    0.000000000
      5        6           0.000000000    0.000000000    0.000000000
      6        9           0.000000000    0.000000000    0.000000000
      7        9           0.000000000    0.000000000    0.000000000
      8        9           0.000000000    0.000000000    0.000000000
      9        6           0.000000000    0.000000000    0.000000000
     10        7           0.000000000    0.000000000    0.000000000
     11        6           0.000000000    0.000000000    0.000000000
     12       16           0.000000000    0.000000000    0.000000000
     13        1           0.000000000    0.000000000    0.000000000
     14        1           0.000000000    0.000000000    0.000000000
     15        1           0.000000000    0.000000000    0.000000000
     16        1           0.006523315   -0.009156915   -0.001409000
     17        8          -0.006142928    0.007947717    0.011973993
     18        1           0.000098767    0.001330843   -0.010510039
 -------------------------------------------------------------------
 Cartesian Forces:  Max     0.011973993 RMS     0.002996628
 -----------------------------------------------------------------------------------------------
                       Internal Coordinate Forces (Hartree/Bohr or radian)
  Cent   Atom   N1       Length/X         N2         Alpha/Y        N3         Beta/Z          J
 -----------------------------------------------------------------------------------------------
      1  F 
      2  C 
      3  C 
      4  C 
      5  C 
      6  F 
      7  F 
      8  F 
      9  C 
     10  N 
     11  C 
     12  S 
     13  H 
     14  H 
     15  H 
         X        6   0.000000(     1)      5  -0.000066(     7)      4  -0.001172(    13)     0
         X       16   0.000000(     2)      6   0.000000(     8)      5   0.000125(    14)     0
     16  H        6   0.000100(     3)     16  -0.000066(     9)     17  -0.000125(    15)     0
         X       18   0.000000(     4)      6  -0.002173(    10)     16   0.000000(    16)     0
     17  O       18  -0.010989(     5)     19  -0.002173(    11)      6  -0.002586(    17)     0
     18  H       20  -0.010463(     6)     18   0.002755(    12)     16  -0.001172(    18)     0
 -----------------------------------------------------------------------------------------------
 Internal  Forces:  Max     0.010989110 RMS     0.003776822

 GradGradGradGradGradGradGradGradGradGradGradGradGradGradGradGradGradGrad
 Berny optimization.
 Search for a local minimum.
 Step number   2 out of a maximum of   20
 All quantities printed in internal units (Hartrees-Bohrs-Radians)
 Update second derivatives using D2CorN and points    1    2
 DE= -4.33D-07 DEPred=-2.27D-07 R= 1.90D+00
 Trust test= 1.90D+00 RLast= 4.09D-03 DXMaxT set to 3.00D-01
 The second derivative matrix:
                          RX       RDUM       ROH      ADUM      AHOH
           RX           0.00258
           RDUM         0.00000   0.00000
           ROH         -0.00016   0.00000   1.12160
           ADUM        -0.00216   0.00000   0.00000   1.64000
           AHOH         0.00024   0.00000   0.00000   0.00000   0.16000
           DDUM        -0.00016   0.00000   0.00000  -0.00006   0.00000
           DH1          0.00001   0.00000   0.00000   0.00006   0.00000
           DOH2        -0.00009   0.00000   0.00000   0.00010   0.00000
           DH2         -0.00016   0.00000   0.00000   0.00000   0.00000
                         DDUM       DH1      DOH2       DH2
           DDUM         0.19798
           DH1         -0.19798   0.19798
           DOH2         0.00000   0.00000   0.30934
           DH2          0.00000   0.00000   0.00000   0.00000
     Eigenvalues ---    0.002581000.000001000.000001000.000001000.00000
     Eigenvalues --- 1000.000001000.000001000.000001000.00000
 RFO step:  Lambda= 0.00000000D+00 EMin= 2.58071598D-03
 Quartic linear search produced a step of  2.00000.
 Variable       Old X    -DE/DX   Delta X   Delta X   Delta X     New X
                                 (Linear)    (Quad)   (Total)
    RX        4.35386   0.00010   0.00818   0.00000   0.00818   4.36205
   RDUM       1.88973   0.00000   0.00000   0.00000   0.00000   1.88973
   ROH        1.80885  -0.02145   0.00000   0.00000   0.00000   1.80885
   ADUM       1.57080  -0.00448   0.00000   0.00000   0.00000   1.57080
   AHOH       1.82422   0.00275   0.00000   0.00000   0.00000   1.82422
   DDUM       0.00000  -0.00105   0.00000   0.00000   0.00000   0.00000
   DH1        3.14159  -0.00012   0.00000   0.00000   0.00000   3.14159
   DOH2       3.14159  -0.00259   0.00000   0.00000   0.00000   3.14159
   DH2        4.71239  -0.00117   0.00000   0.00000   0.00000   4.71239
         Item               Value     Threshold  Converged?
 Maximum Force            0.000100     0.000450     YES
 RMS     Force            0.000100     0.000300     YES
 Maximum Displacement     0.008183     0.001800     NO 
 RMS     Displacement     0.002728     0.001200     NO 
 Predicted change in Energy=-7.358818D-07
 GradGradGradGradGradGradGradGradGradGradGradGradGradGradGradGradGradGrad

 ---------------------------------------------------------------------------------------------------
                            Z-MATRIX (ANGSTROMS AND DEGREES)
   CD    Cent   Atom    N1       Length/X        N2       Alpha/Y        N3        Beta/Z          J
 ---------------------------------------------------------------------------------------------------
      1      1  F       -1  -1.969300          2.053680          0.000070
      2      2  C       -1  -1.222250          0.944230          0.000030
      3      3  C       -1   0.140030          1.057400         -0.000020
      4      4  C       -1   0.927950         -0.123640         -0.000080
      5      5  C       -1   2.414660         -0.018650         -0.000010
      6      6  F       -1   3.007080         -1.234610         -0.000560
      7      7  F       -1   2.858290          0.654480         -1.086020
      8      8  F       -1   2.858270          0.653500          1.086650
      9      9  C       -1   0.306540         -1.341490         -0.000090
     10     10  N       -1  -1.054170         -1.389970         -0.000060
     11     11  C       -1  -1.930500         -0.312100          0.000000
     12     12  S       -1  -3.570980         -0.506610          0.000030
     13     13  H       -1   0.596860          2.043100         -0.000020
     14     14  H       -1   0.831760         -2.288990         -0.000150
     15     15  H       -1  -1.521480         -2.296390         -0.000090
     16         X        6   1.000000(    15)      5   90.000(    34)      4    0.000(    52)      0
     17         X       16   1.000000(    16)      6   90.000(    35)      5    0.000(    53)      0
     18     16  H        6   2.308296(    17)     16   90.000(    36)     17  180.000(    54)      0
     19         X       18   1.000000(    18)      6   90.000(    37)     16    0.000(    55)      0
     20     17  O       18   0.957200(    19)     19   90.000(    38)      6  180.000(    56)      0
     21     18  H       20   0.957200(    20)     18  104.520(    39)     16  270.000(    57)      0
 ---------------------------------------------------------------------------------------------------
                         Z-Matrix orientation:                         
 ---------------------------------------------------------------------
 Center     Atomic      Atomic             Coordinates (Angstroms)
 Number     Number       Type             X           Y           Z
 ---------------------------------------------------------------------
      1          9           0       -1.969300    2.053680    0.000070
      2          6           0       -1.222250    0.944230    0.000030
      3          6           0        0.140030    1.057400   -0.000020
      4          6           0        0.927950   -0.123640   -0.000080
      5          6           0        2.414660   -0.018650   -0.000010
      6          9           0        3.007080   -1.234610   -0.000560
      7          9           0        2.858290    0.654480   -1.086020
      8          9           0        2.858270    0.653500    1.086650
      9          6           0        0.306540   -1.341490   -0.000090
     10          7           0       -1.054170   -1.389970   -0.000060
     11          6           0       -1.930500   -0.312100    0.000000
     12         16           0       -3.570980   -0.506610    0.000030
     13          1           0        0.596860    2.043100   -0.000020
     14          1           0        0.831760   -2.288990   -0.000150
     15          1           0       -1.521480   -2.296390   -0.000090
     16         -1           0        2.108099   -1.672597   -0.000774
     17         -1           0        1.670112   -0.773616   -0.000368
     18          1           0        4.018083   -3.309725   -0.001499
     19         -1           0        3.119102   -3.747711   -0.001713
     20          8           0        4.437324   -4.170229   -0.001888
     21          1           0        4.542422   -4.386399    0.924642
 ---------------------------------------------------------------------
                    Distance matrix (angstroms):
                    1          2          3          4          5
     1  F    0.000000
     2  C    1.337521   0.000000
     3  C    2.332777   1.366973   0.000000
     4  C    3.624194   2.400772   1.419744   0.000000
     5  C    4.849088   3.762214   2.516312   1.490413   0.000000
     6  F    5.964663   4.757581   3.670597   2.357337   1.352598
     7  F    5.142274   4.232525   2.954772   2.347541   1.352527
     8  F    5.142625   4.232719   2.955134   2.347566   1.352555
     9  C    4.087374   2.749857   2.404662   1.367227   2.488790
    10  N    3.563171   2.340244   2.723184   2.352104   3.730054
    11  C    2.366098   1.442215   2.482463   2.864656   4.355058
    12  S    3.020011   2.760701   4.027123   4.515201   6.005497
    13  H    2.566182   2.125247   1.086415   2.191890   2.748674
    14  H    5.167661   3.830492   3.417136   2.167485   2.767673
    15  H    4.373060   3.254406   3.742796   3.274225   4.547669
    16  X    5.523615   4.235446   3.365439   1.947311   1.682118
    17  X    4.608570   3.364038   2.386162   0.986546   1.060342
    18  H    8.038337   6.749609   5.840469   4.438475   3.660893
    19  X    7.716734   6.392312   5.653668   4.234978   3.795015
    20  O    8.932071   7.628137   6.767189   5.356360   4.618093
    21  H    9.204997   7.905818   7.061940   5.664859   4.945663
                    6          7          8          9         10
     6  F    0.000000
     7  F    2.183809   0.000000
     8  F    2.183834   2.172670   0.000000
     9  C    2.702654   3.416807   3.416477   0.000000
    10  N    4.064221   4.546034   4.545756   1.361573   0.000000
    11  C    5.023019   5.004620   5.004549   2.462517   1.389157
    12  S    6.618222   6.622926   6.622828   3.966382   2.667332
    13  H    4.068482   2.867355   2.868068   3.397019   3.809445
    14  H    2.417382   3.734964   3.734451   1.083334   2.089251
    15  H    4.651369   5.391592   5.391203   2.062399   1.019792
    16  X    1.000000   2.675039   2.675065   1.831733   3.174873
    17  X    1.414214   2.151712   2.151740   1.477095   2.793135
    18  H    2.308296   4.270389   4.270408   4.201131   5.423395
    19  X    2.515597   4.541259   4.541280   3.701406   4.793239
    20  O    3.265496   5.191003   5.191020   5.006510   6.155189
    21  H    3.625886   5.682387   5.316314   5.298046   6.415255
                   11         12         13         14         15
    11  C    0.000000
    12  S    1.651971   0.000000
    13  H    3.454637   4.885889   0.000000
    14  H    3.396789   4.749842   4.338454   0.000000
    15  H    2.026007   2.720986   4.828927   2.353252   0.000000
    16  X    4.261600   5.797539   4.011265   1.417385   3.682792
    17  X    3.630069   5.247889   3.014259   1.731818   3.536255
    18  H    6.661186   8.090200   6.352755   3.345827   5.631484
    19  X    6.107529   7.433837   6.316265   2.712896   4.862236
    20  O    7.445425   8.806534   7.304425   4.066836   6.246489
    21  H    7.704128   9.040739   7.600060   4.361580   6.480291
                   16         17         18         19         20
    16  X    0.000000
    17  X    1.000000   0.000000
    18  H    2.515597   3.456128   0.000000
    19  X    2.308296   3.308296   1.000000   0.000000
    20  O    3.415181   4.381147   0.957200   1.384280   0.000000
    21  H    3.761256   4.707230   1.513901   1.814358   0.957200
                   21
    21  H    0.000000
 Symmetry turned off by external request.
 Stoichiometry    C6H5F4NOS
 Framework group  C1[X(C6H5F4NOS)]
 Deg. of freedom    48
 Full point group                 C1      NOp   1
 Rotational constants (GHZ):      1.0946519      0.3194300      0.2588408
 Standard basis: 6-31G(d) (6D, 7F)
 Integral buffers will be    131072 words long.
 Raffenetti 1 integral format.
 Two-electron integral symmetry is turned off.
   209 basis functions,   408 primitive gaussians,   209 cartesian basis functions
    54 alpha electrons       54 beta electrons
       nuclear repulsion energy       903.3177043444 Hartrees.
 NAtoms=   18 NActive=   18 NUniq=   18 SFac= 7.50D-01 NAtFMM=   80 NAOKFM=F Big=F
 One-electron integrals computed using PRISM.
 NBasis=   209 RedAO= T  NBF=   209
 NBsUse=   209 1.00D-06 NBFU=   209
 Initial guess read from the read-write file.
 B after Tr=     0.000000    0.000000    0.000000
         Rot=    1.000000    0.000000    0.000000    0.000000 Ang=   0.00 deg.
 Requested convergence on RMS density matrix=1.00D-08 within 128 cycles.
 Requested convergence on MAX density matrix=1.00D-06.
 Requested convergence on             energy=1.00D-06.
 No special actions if energy rises.
 SCF Done:  E(RHF) =  -1154.67403178     A.U. after    6 cycles
             Convg  =    0.3735D-08             -V/T =  2.0019
 Calling FoFJK, ICntrl=      2127 FMM=F ISym2X=0 I1Cent= 0 IOpClX= 0 NMat=1 NMatS=1 NMatT=0.
 -------------------------------------------------------------------
 Center     Atomic                   Forces (Hartrees/Bohr)
 Number     Number              X              Y              Z
 -------------------------------------------------------------------
      1        9           0.000000000    0.000000000    0.000000000
      2        6           0.000000000    0.000000000    0.000000000
      3        6           0.000000000    0.000000000    0.000000000
      4        6           0.000000000    0.000000000    0.000000000
      5        6           0.000000000    0.000000000    0.000000000
      6        9           0.000000000    0.000000000    0.000000000
      7        9           0.000000000    0.000000000    0.000000000
      8        9           0.000000000    0.000000000    0.000000000
      9        6           0.000000000    0.000000000    0.000000000
     10        7           0.000000000    0.000000000    0.000000000
     11        6           0.000000000    0.000000000    0.000000000
     12       16           0.000000000    0.000000000    0.000000000
     13        1           0.000000000    0.000000000    0.000000000
     14        1           0.000000000    0.000000000    0.000000000
     15        1           0.000000000    0.000000000    0.000000000
     16        1           0.006508587   -0.009138940   -0.001406406
     17        8          -0.006135727    0.007947175    0.011970112
     18        1           0.000096671    0.001331848   -0.010508673
 -------------------------------------------------------------------
 Cartesian Forces:  Max     0.011970112 RMS     0.002994327
 -----------------------------------------------------------------------------------------------
                       Internal Coordinate Forces (Hartree/Bohr or radian)
  Cent   Atom   N1       Length/X         N2         Alpha/Y        N3         Beta/Z          J
 -----------------------------------------------------------------------------------------------
      1  F 
      2  C 
      3  C 
      4  C 
      5  C 
      6  F 
      7  F 
      8  F 
      9  C 
     10  N 
     11  C 
     12  S 
     13  H 
     14  H 
     15  H 
         X        6   0.000000(     1)      5  -0.000057(     7)      4  -0.001170(    13)     0
         X       16   0.000000(     2)      6   0.000000(     8)      5   0.000125(    14)     0
     16  H        6   0.000080(     3)     16  -0.000057(     9)     17  -0.000125(    15)     0
         X       18   0.000000(     4)      6  -0.002165(    10)     16   0.000000(    16)     0
     17  O       18  -0.010987(     5)     19  -0.002165(    11)      6  -0.002585(    17)     0
     18  H       20  -0.010462(     6)     18   0.002751(    12)     16  -0.001170(    18)     0
 -----------------------------------------------------------------------------------------------
 Internal  Forces:  Max     0.010987289 RMS     0.003775540

 GradGradGradGradGradGradGradGradGradGradGradGradGradGradGradGradGradGrad
 Berny optimization.
 Search for a local minimum.
 Step number   3 out of a maximum of   20
 All quantities printed in internal units (Hartrees-Bohrs-Radians)
 Update second derivatives using D2CorN and points    2    3
 DE= -7.37D-07 DEPred=-7.36D-07 R= 1.00D+00
 Trust test= 1.00D+00 RLast= 8.18D-03 DXMaxT set to 3.00D-01
 The second derivative matrix:
                          RX       RDUM       ROH      ADUM      AHOH
           RX           0.00254
           RDUM         0.00000   0.00000
           ROH         -0.00024   0.00000   1.12160
           ADUM        -0.00321   0.00000   0.00000   1.64000
           AHOH         0.00035   0.00000   0.00000   0.00000   0.16000
           DDUM        -0.00024   0.00000   0.00000  -0.00006   0.00000
           DH1          0.00000   0.00000   0.00000   0.00006   0.00000
           DOH2        -0.00014   0.00000   0.00000   0.00010   0.00000
           DH2         -0.00023   0.00000   0.00000   0.00000   0.00000
                         DDUM       DH1      DOH2       DH2
           DDUM         0.19798
           DH1         -0.19798   0.19798
           DOH2         0.00000   0.00000   0.30934
           DH2          0.00000   0.00000   0.00000   0.00000
     Eigenvalues ---    0.002541000.000001000.000001000.000001000.00000
     Eigenvalues --- 1000.000001000.000001000.000001000.00000
 RFO step:  Lambda= 0.00000000D+00 EMin= 2.54064803D-03
 Quartic linear search produced a step of  2.00000.
 Variable       Old X    -DE/DX   Delta X   Delta X   Delta X     New X
                                 (Linear)    (Quad)   (Total)
    RX        4.36205   0.00008   0.01637   0.00000   0.01637   4.37841
   RDUM       1.88973   0.00000   0.00000   0.00000   0.00000   1.88973
   ROH        1.80885  -0.02145   0.00000   0.00000   0.00000   1.80885
   ADUM       1.57080  -0.00444   0.00000   0.00000   0.00000   1.57080
   AHOH       1.82422   0.00275   0.00000   0.00000   0.00000   1.82422
   DDUM       0.00000  -0.00105   0.00000   0.00000   0.00000   0.00000
   DH1        3.14159  -0.00012   0.00000   0.00000   0.00000   3.14159
   DOH2       3.14159  -0.00258   0.00000   0.00000   0.00000   3.14159
   DH2        4.71239  -0.00117   0.00000   0.00000   0.00000   4.71239
         Item               Value     Threshold  Converged?
 Maximum Force            0.000080     0.000450     YES
 RMS     Force            0.000080     0.000300     YES
 Maximum Displacement     0.016366     0.001800     NO 
 RMS     Displacement     0.005455     0.001200     NO 
 Predicted change in Energy=-9.640433D-07
 GradGradGradGradGradGradGradGradGradGradGradGradGradGradGradGradGradGrad

 ---------------------------------------------------------------------------------------------------
                            Z-MATRIX (ANGSTROMS AND DEGREES)
   CD    Cent   Atom    N1       Length/X        N2       Alpha/Y        N3        Beta/Z          J
 ---------------------------------------------------------------------------------------------------
      1      1  F       -1  -1.969300          2.053680          0.000070
      2      2  C       -1  -1.222250          0.944230          0.000030
      3      3  C       -1   0.140030          1.057400         -0.000020
      4      4  C       -1   0.927950         -0.123640         -0.000080
      5      5  C       -1   2.414660         -0.018650         -0.000010
      6      6  F       -1   3.007080         -1.234610         -0.000560
      7      7  F       -1   2.858290          0.654480         -1.086020
      8      8  F       -1   2.858270          0.653500          1.086650
      9      9  C       -1   0.306540         -1.341490         -0.000090
     10     10  N       -1  -1.054170         -1.389970         -0.000060
     11     11  C       -1  -1.930500         -0.312100          0.000000
     12     12  S       -1  -3.570980         -0.506610          0.000030
     13     13  H       -1   0.596860          2.043100         -0.000020
     14     14  H       -1   0.831760         -2.288990         -0.000150
     15     15  H       -1  -1.521480         -2.296390         -0.000090
     16         X        6   1.000000(    15)      5   90.000(    34)      4    0.000(    52)      0
     17         X       16   1.000000(    16)      6   90.000(    35)      5    0.000(    53)      0
     18     16  H        6   2.316956(    17)     16   90.000(    36)     17  180.000(    54)      0
     19         X       18   1.000000(    18)      6   90.000(    37)     16    0.000(    55)      0
     20     17  O       18   0.957200(    19)     19   90.000(    38)      6  180.000(    56)      0
     21     18  H       20   0.957200(    20)     18  104.520(    39)     16  270.000(    57)      0
 ---------------------------------------------------------------------------------------------------
                         Z-Matrix orientation:                         
 ---------------------------------------------------------------------
 Center     Atomic      Atomic             Coordinates (Angstroms)
 Number     Number       Type             X           Y           Z
 ---------------------------------------------------------------------
      1          9           0       -1.969300    2.053680    0.000070
      2          6           0       -1.222250    0.944230    0.000030
      3          6           0        0.140030    1.057400   -0.000020
      4          6           0        0.927950   -0.123640   -0.000080
      5          6           0        2.414660   -0.018650   -0.000010
      6          9           0        3.007080   -1.234610   -0.000560
      7          9           0        2.858290    0.654480   -1.086020
      8          9           0        2.858270    0.653500    1.086650
      9          6           0        0.306540   -1.341490   -0.000090
     10          7           0       -1.054170   -1.389970   -0.000060
     11          6           0       -1.930500   -0.312100    0.000000
     12         16           0       -3.570980   -0.506610    0.000030
     13          1           0        0.596860    2.043100   -0.000020
     14          1           0        0.831760   -2.288990   -0.000150
     15          1           0       -1.521480   -2.296390   -0.000090
     16         -1           0        2.108099   -1.672597   -0.000774
     17         -1           0        1.670112   -0.773616   -0.000368
     18          1           0        4.021876   -3.317510   -0.001502
     19         -1           0        3.122895   -3.755497   -0.001717
     20          8           0        4.441117   -4.178015   -0.001891
     21          1           0        4.546215   -4.394185    0.924638
 ---------------------------------------------------------------------
                    Distance matrix (angstroms):
                    1          2          3          4          5
     1  F    0.000000
     2  C    1.337521   0.000000
     3  C    2.332777   1.366973   0.000000
     4  C    3.624194   2.400772   1.419744   0.000000
     5  C    4.849088   3.762214   2.516312   1.490413   0.000000
     6  F    5.964663   4.757581   3.670597   2.357337   1.352598
     7  F    5.142274   4.232525   2.954772   2.347541   1.352527
     8  F    5.142625   4.232719   2.955134   2.347566   1.352555
     9  C    4.087374   2.749857   2.404662   1.367227   2.488790
    10  N    3.563171   2.340244   2.723184   2.352104   3.730054
    11  C    2.366098   1.442215   2.482463   2.864656   4.355058
    12  S    3.020011   2.760701   4.027123   4.515201   6.005497
    13  H    2.566182   2.125247   1.086415   2.191890   2.748674
    14  H    5.167661   3.830492   3.417136   2.167485   2.767673
    15  H    4.373060   3.254406   3.742796   3.274225   4.547669
    16  X    5.523615   4.235446   3.365439   1.947311   1.682118
    17  X    4.608570   3.364038   2.386162   0.986546   1.060342
    18  H    8.046358   6.757462   5.848810   4.446706   3.669554
    19  X    7.725089   6.400603   5.662284   4.243604   3.803370
    20  O    8.940217   7.636172   6.775613   5.364728   4.626754
    21  H    9.213128   7.913834   7.070307   5.673138   4.954171
                    6          7          8          9         10
     6  F    0.000000
     7  F    2.183809   0.000000
     8  F    2.183834   2.172670   0.000000
     9  C    2.702654   3.416807   3.416477   0.000000
    10  N    4.064221   4.546034   4.545756   1.361573   0.000000
    11  C    5.023019   5.004620   5.004549   2.462517   1.389157
    12  S    6.618222   6.622926   6.622828   3.966382   2.667332
    13  H    4.068482   2.867355   2.868068   3.397019   3.809445
    14  H    2.417382   3.734964   3.734451   1.083334   2.089251
    15  H    4.651369   5.391592   5.391203   2.062399   1.019792
    16  X    1.000000   2.675039   2.675065   1.831733   3.174873
    17  X    1.414214   2.151712   2.151740   1.477095   2.793135
    18  H    2.316956   4.278647   4.278665   4.208133   5.429702
    19  X    2.523546   4.549025   4.549046   3.709352   4.800374
    20  O    3.274156   5.199393   5.199410   5.014041   6.162092
    21  H    3.634260   5.690418   5.324897   5.305555   6.422203
                   11         12         13         14         15
    11  C    0.000000
    12  S    1.651971   0.000000
    13  H    3.454637   4.885889   0.000000
    14  H    3.396789   4.749842   4.338454   0.000000
    15  H    2.026007   2.720986   4.828927   2.353252   0.000000
    16  X    4.261600   5.797539   4.011265   1.417385   3.682792
    17  X    3.630069   5.247889   3.014259   1.731818   3.536255
    18  H    6.668079   8.096458   6.361359   3.351820   5.636620
    19  X    6.115046   7.440647   6.324918   2.720284   4.868184
    20  O    7.452705   8.813224   7.313043   4.073804   6.252446
    21  H    7.711434   9.047486   7.608616   4.368553   6.486354
                   16         17         18         19         20
    16  X    0.000000
    17  X    1.000000   0.000000
    18  H    2.523546   3.464419   0.000000
    19  X    2.316956   3.316956   1.000000   0.000000
    20  O    3.423463   4.389580   0.957200   1.384280   0.000000
    21  H    3.769329   4.715520   1.513901   1.814358   0.957200
                   21
    21  H    0.000000
 Symmetry turned off by external request.
 Stoichiometry    C6H5F4NOS
 Framework group  C1[X(C6H5F4NOS)]
 Deg. of freedom    48
 Full point group                 C1      NOp   1
 Rotational constants (GHZ):      1.0932962      0.3192189      0.2586264
 Standard basis: 6-31G(d) (6D, 7F)
 Integral buffers will be    131072 words long.
 Raffenetti 1 integral format.
 Two-electron integral symmetry is turned off.
   209 basis functions,   408 primitive gaussians,   209 cartesian basis functions
    54 alpha electrons       54 beta electrons
       nuclear repulsion energy       903.1750964951 Hartrees.
 NAtoms=   18 NActive=   18 NUniq=   18 SFac= 7.50D-01 NAtFMM=   80 NAOKFM=F Big=F
 One-electron integrals computed using PRISM.
 NBasis=   209 RedAO= T  NBF=   209
 NBsUse=   209 1.00D-06 NBFU=   209
 Initial guess read from the read-write file.
 B after Tr=     0.000000    0.000000    0.000000
         Rot=    1.000000    0.000000    0.000000    0.000000 Ang=   0.00 deg.
 Requested convergence on RMS density matrix=1.00D-08 within 128 cycles.
 Requested convergence on MAX density matrix=1.00D-06.
 Requested convergence on             energy=1.00D-06.
 No special actions if energy rises.
 SCF Done:  E(RHF) =  -1154.67403276     A.U. after    6 cycles
             Convg  =    0.7431D-08             -V/T =  2.0019
 Calling FoFJK, ICntrl=      2127 FMM=F ISym2X=0 I1Cent= 0 IOpClX= 0 NMat=1 NMatS=1 NMatT=0.
 -------------------------------------------------------------------
 Center     Atomic                   Forces (Hartrees/Bohr)
 Number     Number              X              Y              Z
 -------------------------------------------------------------------
      1        9           0.000000000    0.000000000    0.000000000
      2        6           0.000000000    0.000000000    0.000000000
      3        6           0.000000000    0.000000000    0.000000000
      4        6           0.000000000    0.000000000    0.000000000
      5        6           0.000000000    0.000000000    0.000000000
      6        9           0.000000000    0.000000000    0.000000000
      7        9           0.000000000    0.000000000    0.000000000
      8        9           0.000000000    0.000000000    0.000000000
      9        6           0.000000000    0.000000000    0.000000000
     10        7           0.000000000    0.000000000    0.000000000
     11        6           0.000000000    0.000000000    0.000000000
     12       16           0.000000000    0.000000000    0.000000000
     13        1           0.000000000    0.000000000    0.000000000
     14        1           0.000000000    0.000000000    0.000000000
     15        1           0.000000000    0.000000000    0.000000000
     16        1           0.006479733   -0.009104132   -0.001401320
     17        8          -0.006121425    0.007946151    0.011962492
     18        1           0.000092514    0.001333786   -0.010505979
 -------------------------------------------------------------------
 Cartesian Forces:  Max     0.011962492 RMS     0.002989839
 -----------------------------------------------------------------------------------------------
                       Internal Coordinate Forces (Hartree/Bohr or radian)
  Cent   Atom   N1       Length/X         N2         Alpha/Y        N3         Beta/Z          J
 -----------------------------------------------------------------------------------------------
      1  F 
      2  C 
      3  C 
      4  C 
      5  C 
      6  F 
      7  F 
      8  F 
      9  C 
     10  N 
     11  C 
     12  S 
     13  H 
     14  H 
     15  H 
         X        6   0.000000(     1)      5  -0.000038(     7)      4  -0.001165(    13)     0
         X       16   0.000000(     2)      6   0.000000(     8)      5   0.000125(    14)     0
     16  H        6   0.000039(     3)     16  -0.000038(     9)     17  -0.000125(    15)     0
         X       18   0.000000(     4)      6  -0.002149(    10)     16   0.000000(    16)     0
     17  O       18  -0.010984(     5)     19  -0.002149(    11)      6  -0.002582(    17)     0
     18  H       20  -0.010460(     6)     18   0.002744(    12)     16  -0.001165(    18)     0
 -----------------------------------------------------------------------------------------------
 Internal  Forces:  Max     0.010983666 RMS     0.003773028

 GradGradGradGradGradGradGradGradGradGradGradGradGradGradGradGradGradGrad
 Berny optimization.
 Search for a local minimum.
 Step number   4 out of a maximum of   20
 All quantities printed in internal units (Hartrees-Bohrs-Radians)
 Update second derivatives using D2CorN and points    3    4
 DE= -9.72D-07 DEPred=-9.64D-07 R= 1.01D+00
 Trust test= 1.01D+00 RLast= 1.64D-02 DXMaxT set to 3.00D-01
 The second derivative matrix:
                          RX       RDUM       ROH      ADUM      AHOH
           RX           0.00246
           RDUM         0.00000   0.00000
           ROH         -0.00029   0.00000   1.12160
           ADUM        -0.00372   0.00000   0.00000   1.64000
           AHOH         0.00040   0.00000   0.00000   0.00000   0.16000
           DDUM        -0.00028   0.00000   0.00000  -0.00006   0.00000
           DH1          0.00000   0.00000   0.00000   0.00006   0.00000
           DOH2        -0.00016   0.00000   0.00000   0.00010   0.00000
           DH2         -0.00027   0.00000   0.00000   0.00000   0.00000
                         DDUM       DH1      DOH2       DH2
           DDUM         0.19798
           DH1         -0.19798   0.19798
           DOH2         0.00000   0.00000   0.30934
           DH2          0.00000   0.00000   0.00000   0.00000
     Eigenvalues ---    0.002461000.000001000.000001000.000001000.00000
     Eigenvalues --- 1000.000001000.000001000.000001000.00000
 RFO step:  Lambda= 0.00000000D+00 EMin= 2.46288180D-03
 Quartic linear search produced a step of  1.01923.
 Variable       Old X    -DE/DX   Delta X   Delta X   Delta X     New X
                                 (Linear)    (Quad)   (Total)
    RX        4.37841   0.00004   0.01668   0.00000   0.01668   4.39509
   RDUM       1.88973   0.00000   0.00000   0.00000   0.00000   1.88973
   ROH        1.80885  -0.02144   0.00000   0.00000   0.00000   1.80885
   ADUM       1.57080  -0.00437   0.00000   0.00000   0.00000   1.57080
   AHOH       1.82422   0.00274   0.00000   0.00000   0.00000   1.82422
   DDUM       0.00000  -0.00104   0.00000   0.00000   0.00000   0.00000
   DH1        3.14159  -0.00012   0.00000   0.00000   0.00000   3.14159
   DOH2       3.14159  -0.00258   0.00000   0.00000   0.00000   3.14159
   DH2        4.71239  -0.00116   0.00000   0.00000   0.00000   4.71239
         Item               Value     Threshold  Converged?
 Maximum Force            0.000039     0.000450     YES
 RMS     Force            0.000039     0.000300     YES
 Maximum Displacement     0.016681     0.001800     NO 
 RMS     Displacement     0.005560     0.001200     NO 
 Predicted change in Energy=-3.143387D-07
 GradGradGradGradGradGradGradGradGradGradGradGradGradGradGradGradGradGrad

 ---------------------------------------------------------------------------------------------------
                            Z-MATRIX (ANGSTROMS AND DEGREES)
   CD    Cent   Atom    N1       Length/X        N2       Alpha/Y        N3        Beta/Z          J
 ---------------------------------------------------------------------------------------------------
      1      1  F       -1  -1.969300          2.053680          0.000070
      2      2  C       -1  -1.222250          0.944230          0.000030
      3      3  C       -1   0.140030          1.057400         -0.000020
      4      4  C       -1   0.927950         -0.123640         -0.000080
      5      5  C       -1   2.414660         -0.018650         -0.000010
      6      6  F       -1   3.007080         -1.234610         -0.000560
      7      7  F       -1   2.858290          0.654480         -1.086020
      8      8  F       -1   2.858270          0.653500          1.086650
      9      9  C       -1   0.306540         -1.341490         -0.000090
     10     10  N       -1  -1.054170         -1.389970         -0.000060
     11     11  C       -1  -1.930500         -0.312100          0.000000
     12     12  S       -1  -3.570980         -0.506610          0.000030
     13     13  H       -1   0.596860          2.043100         -0.000020
     14     14  H       -1   0.831760         -2.288990         -0.000150
     15     15  H       -1  -1.521480         -2.296390         -0.000090
     16         X        6   1.000000(    15)      5   90.000(    34)      4    0.000(    52)      0
     17         X       16   1.000000(    16)      6   90.000(    35)      5    0.000(    53)      0
     18     16  H        6   2.325784(    17)     16   90.000(    36)     17  180.000(    54)      0
     19         X       18   1.000000(    18)      6   90.000(    37)     16    0.000(    55)      0
     20     17  O       18   0.957200(    19)     19   90.000(    38)      6  180.000(    56)      0
     21     18  H       20   0.957200(    20)     18  104.520(    39)     16  270.000(    57)      0
 ---------------------------------------------------------------------------------------------------
                         Z-Matrix orientation:                         
 ---------------------------------------------------------------------
 Center     Atomic      Atomic             Coordinates (Angstroms)
 Number     Number       Type             X           Y           Z
 ---------------------------------------------------------------------
      1          9           0       -1.969300    2.053680    0.000070
      2          6           0       -1.222250    0.944230    0.000030
      3          6           0        0.140030    1.057400   -0.000020
      4          6           0        0.927950   -0.123640   -0.000080
      5          6           0        2.414660   -0.018650   -0.000010
      6          9           0        3.007080   -1.234610   -0.000560
[...]
 !       DH1       180.0      -DE/DX =   -0.0001                        !
 !      DOH2       180.0      -DE/DX =   -0.0026                        !
 !       DH2       270.0      -DE/DX =   -0.0012                        !
 ------------------------------------------------------------------------
 GradGradGradGradGradGradGradGradGradGradGradGradGradGradGradGradGradGrad

 ---------------------------------------------------------------------------------------------------
                            Z-MATRIX (ANGSTROMS AND DEGREES)
   CD    Cent   Atom    N1       Length/X        N2       Alpha/Y        N3        Beta/Z          J
 ---------------------------------------------------------------------------------------------------
      1      1  F       -1  -1.969300          2.053680          0.000070
      2      2  C       -1  -1.222250          0.944230          0.000030
      3      3  C       -1   0.140030          1.057400         -0.000020
      4      4  C       -1   0.927950         -0.123640         -0.000080
      5      5  C       -1   2.414660         -0.018650         -0.000010
      6      6  F       -1   3.007080         -1.234610         -0.000560
      7      7  F       -1   2.858290          0.654480         -1.086020
      8      8  F       -1   2.858270          0.653500          1.086650
      9      9  C       -1   0.306540         -1.341490         -0.000090
     10     10  N       -1  -1.054170         -1.389970         -0.000060
     11     11  C       -1  -1.930500         -0.312100          0.000000
     12     12  S       -1  -3.570980         -0.506610          0.000030
     13     13  H       -1   0.596860          2.043100         -0.000020
     14     14  H       -1   0.831760         -2.288990         -0.000150
     15     15  H       -1  -1.521480         -2.296390         -0.000090
     16         X        6   1.000000(    15)      5   90.000(    34)      4    0.000(    52)      0
     17         X       16   1.000000(    16)      6   90.000(    35)      5    0.000(    53)      0
     18     16  H        6   2.325784(    17)     16   90.000(    36)     17  180.000(    54)      0
     19         X       18   1.000000(    18)      6   90.000(    37)     16    0.000(    55)      0
     20     17  O       18   0.957200(    19)     19   90.000(    38)      6  180.000(    56)      0
     21     18  H       20   0.957200(    20)     18  104.520(    39)     16  270.000(    57)      0
 ---------------------------------------------------------------------------------------------------
                         Z-Matrix orientation:                         
 ---------------------------------------------------------------------
 Center     Atomic      Atomic             Coordinates (Angstroms)
 Number     Number       Type             X           Y           Z
 ---------------------------------------------------------------------
      1          9           0       -1.969300    2.053680    0.000070
      2          6           0       -1.222250    0.944230    0.000030
      3          6           0        0.140030    1.057400   -0.000020
      4          6           0        0.927950   -0.123640   -0.000080
      5          6           0        2.414660   -0.018650   -0.000010
      6          9           0        3.007080   -1.234610   -0.000560
      7          9           0        2.858290    0.654480   -1.086020
      8          9           0        2.858270    0.653500    1.086650
      9          6           0        0.306540   -1.341490   -0.000090
     10          7           0       -1.054170   -1.389970   -0.000060
     11          6           0       -1.930500   -0.312100    0.000000
     12         16           0       -3.570980   -0.506610    0.000030
     13          1           0        0.596860    2.043100   -0.000020
     14          1           0        0.831760   -2.288990   -0.000150
     15          1           0       -1.521480   -2.296390   -0.000090
     16         -1           0        2.108099   -1.672597   -0.000774
     17         -1           0        1.670112   -0.773616   -0.000368
     18          1           0        4.025743   -3.325446   -0.001506
     19         -1           0        3.126761   -3.763433   -0.001720
     20          8           0        4.444984   -4.185951   -0.001895
     21          1           0        4.550081   -4.402121    0.924635
 ---------------------------------------------------------------------
                    Distance matrix (angstroms):
                    1          2          3          4          5
     1  F    0.000000
     2  C    1.337521   0.000000
     3  C    2.332777   1.366973   0.000000
     4  C    3.624194   2.400772   1.419744   0.000000
     5  C    4.849088   3.762214   2.516312   1.490413   0.000000
     6  F    5.964663   4.757581   3.670597   2.357337   1.352598
     7  F    5.142274   4.232525   2.954772   2.347541   1.352527
     8  F    5.142625   4.232719   2.955134   2.347566   1.352555
     9  C    4.087374   2.749857   2.404662   1.367227   2.488790
    10  N    3.563171   2.340244   2.723184   2.352104   3.730054
    11  C    2.366098   1.442215   2.482463   2.864656   4.355058
    12  S    3.020011   2.760701   4.027123   4.515201   6.005497
    13  H    2.566182   2.125247   1.086415   2.191890   2.748674
    14  H    5.167661   3.830492   3.417136   2.167485   2.767673
    15  H    4.373060   3.254406   3.742796   3.274225   4.547669
    16  X    5.523615   4.235446   3.365439   1.947311   1.682118
    17  X    4.608570   3.364038   2.386162   0.986546   1.060342
    18  H    8.054535   6.765468   5.857312   4.455096   3.678381
    19  X    7.733605   6.409055   5.671066   4.252395   3.811888
    20  O    8.948521   7.644364   6.784199   5.373258   4.635581
    21  H    9.221416   7.922005   7.078835   5.681578   4.962843
                    6          7          8          9         10
     6  F    0.000000
     7  F    2.183809   0.000000
     8  F    2.183834   2.172670   0.000000
     9  C    2.702654   3.416807   3.416477   0.000000
    10  N    4.064221   4.546034   4.545756   1.361573   0.000000
    11  C    5.023019   5.004620   5.004549   2.462517   1.389157
    12  S    6.618222   6.622926   6.622828   3.966382   2.667332
    13  H    4.068482   2.867355   2.868068   3.397019   3.809445
    14  H    2.417382   3.734964   3.734451   1.083334   2.089251
    15  H    4.651369   5.391592   5.391203   2.062399   1.019792
    16  X    1.000000   2.675039   2.675065   1.831733   3.174873
    17  X    1.414214   2.151712   2.151740   1.477095   2.793135
    18  H    2.325784   4.287065   4.287084   4.215276   5.436137
    19  X    2.531653   4.556944   4.556965   3.717453   4.807652
    20  O    3.282984   5.207945   5.207963   5.021720   6.169133
    21  H    3.642796   5.698605   5.333645   5.313212   6.429288
                   11         12         13         14         15
    11  C    0.000000
    12  S    1.651971   0.000000
    13  H    3.454637   4.885889   0.000000
    14  H    3.396789   4.749842   4.338454   0.000000
    15  H    2.026007   2.720986   4.828927   2.353252   0.000000
    16  X    4.261600   5.797539   4.011265   1.417385   3.682792
    17  X    3.630069   5.247889   3.014259   1.731818   3.536255
    18  H    6.675109   8.102841   6.370127   3.357941   5.641865
    19  X    6.122711   7.447593   6.333737   2.727822   4.874255
    20  O    7.460128   8.820047   7.321826   4.080913   6.258525
    21  H    7.718883   9.054365   7.617336   4.375667   6.492540
                   16         17         18         19         20
    16  X    0.000000
    17  X    1.000000   0.000000
    18  H    2.531653   3.472871   0.000000
    19  X    2.325784   3.325784   1.000000   0.000000
    20  O    3.431906   4.398176   0.957200   1.384280   0.000000
    21  H    3.777560   4.723971   1.513901   1.814358   0.957200
                   21
    21  H    0.000000
 Symmetry turned off by external request.
 Stoichiometry    C6H5F4NOS
 Framework group  C1[X(C6H5F4NOS)]
 Deg. of freedom    48
 Full point group                 C1      NOp   1
 Rotational constants (GHZ):      1.0919177      0.3190036      0.2584079

 **********************************************************************

            Population analysis using the SCF density.

 **********************************************************************

 Alpha  occ. eigenvalues --  -91.90714 -26.38323 -26.36611 -26.36509 -26.33680
 Alpha  occ. eigenvalues --  -20.56545 -15.68987 -11.55024 -11.38083 -11.37466
 Alpha  occ. eigenvalues --  -11.36533 -11.31510 -11.30751  -8.91801  -6.60129
 Alpha  occ. eigenvalues --   -6.59853  -6.59726  -1.75044  -1.66265  -1.65037
 Alpha  occ. eigenvalues --   -1.64928  -1.35830  -1.34742  -1.17525  -1.12365
 Alpha  occ. eigenvalues --   -1.03531  -0.97648  -0.93121  -0.88587  -0.85398
 Alpha  occ. eigenvalues --   -0.84744  -0.84148  -0.77392  -0.76333  -0.74208
 Alpha  occ. eigenvalues --   -0.73155  -0.72520  -0.71551  -0.71192  -0.70600
 Alpha  occ. eigenvalues --   -0.68477  -0.68394  -0.66852  -0.64349  -0.62808
 Alpha  occ. eigenvalues --   -0.61217  -0.59799  -0.57631  -0.52820  -0.50353
 Alpha  occ. eigenvalues --   -0.46902  -0.43539  -0.34335  -0.31245
 Alpha virt. eigenvalues --    0.04211   0.08392   0.17061   0.20038   0.24266
 Alpha virt. eigenvalues --    0.25050   0.26074   0.26206   0.29055   0.32549
 Alpha virt. eigenvalues --    0.33542   0.35002   0.39897   0.40008   0.42338
 Alpha virt. eigenvalues --    0.43110   0.46362   0.49245   0.53859   0.55426
 Alpha virt. eigenvalues --    0.56483   0.59493   0.60935   0.64145   0.66308
 Alpha virt. eigenvalues --    0.67297   0.71637   0.72729   0.73118   0.75082
 Alpha virt. eigenvalues --    0.76836   0.77602   0.82614   0.84178   0.87218
 Alpha virt. eigenvalues --    0.88729   0.89738   0.91850   0.95407   0.99512
 Alpha virt. eigenvalues --    1.00341   1.02215   1.03670   1.04379   1.07254
 Alpha virt. eigenvalues --    1.08975   1.09423   1.11998   1.14311   1.14959
 Alpha virt. eigenvalues --    1.15686   1.16308   1.17279   1.17895   1.24202
 Alpha virt. eigenvalues --    1.27690   1.30618   1.31132   1.32268   1.32687
 Alpha virt. eigenvalues --    1.34620   1.36910   1.39976   1.41466   1.41821
 Alpha virt. eigenvalues --    1.43486   1.47083   1.51765   1.59876   1.59985
 Alpha virt. eigenvalues --    1.60653   1.63044   1.63659   1.63831   1.64252
 Alpha virt. eigenvalues --    1.66120   1.67192   1.68546   1.69382   1.70671
 Alpha virt. eigenvalues --    1.72725   1.75939   1.77759   1.83762   1.87012
 Alpha virt. eigenvalues --    1.89210   1.91703   1.93626   1.99775   2.01536
 Alpha virt. eigenvalues --    2.02803   2.03987   2.05542   2.06203   2.08542
 Alpha virt. eigenvalues --    2.09768   2.11764   2.11940   2.17703   2.19932
 Alpha virt. eigenvalues --    2.22029   2.22071   2.24129   2.27892   2.29264
 Alpha virt. eigenvalues --    2.30096   2.31932   2.33390   2.34106   2.35478
 Alpha virt. eigenvalues --    2.37550   2.38886   2.42961   2.44657   2.45292
 Alpha virt. eigenvalues --    2.46501   2.51862   2.60279   2.61635   2.62836
 Alpha virt. eigenvalues --    2.65088   2.67846   2.74616   2.82489   2.84182
 Alpha virt. eigenvalues --    2.84279   2.90837   2.92490   2.92956   2.94229
 Alpha virt. eigenvalues --    2.99945   3.06562   3.09281   3.16781   3.21644
 Alpha virt. eigenvalues --    3.29256   3.36755   3.38891   3.42612   3.44546
 Alpha virt. eigenvalues --    3.49023   3.70856   4.02286   4.36145   4.39785
 Alpha virt. eigenvalues --    4.45255   4.48076   4.59782   4.64690   4.68109
 Alpha virt. eigenvalues --    4.82010   5.00927   5.19319   5.57947   6.04220
          Condensed to atoms (all electrons):
              1          2          3          4          5          6
     1  F    9.158987   0.267905  -0.033655   0.002215  -0.000015   0.000000
     2  C    0.267905   4.576003   0.569571  -0.025752   0.000877  -0.000019
     3  C   -0.033655   0.569571   5.066327   0.354014  -0.012928   0.002130
     4  C    0.002215  -0.025752   0.354014   5.202120   0.420676  -0.044022
     5  C   -0.000015   0.000877  -0.012928   0.420676   3.553730   0.277672
     6  F    0.000000  -0.000019   0.002130  -0.044022   0.277672   9.197437
     7  F    0.000000   0.000292   0.004946  -0.055361   0.286279  -0.030234
     8  F    0.000000   0.000290   0.004952  -0.055361   0.285243  -0.030238
     9  C    0.000134  -0.023426  -0.053034   0.589603  -0.021120   0.005566
    10  N    0.001382  -0.053062  -0.021400  -0.035054   0.001170   0.000231
    11  C   -0.040751   0.377089  -0.078869  -0.001378   0.000073   0.000002
    12  S    0.003501  -0.083500   0.001593  -0.000050   0.000006   0.000000
    13  H   -0.000277  -0.017130   0.368642  -0.030345  -0.000302   0.000036
    14  H    0.000000  -0.000133   0.001872  -0.024152  -0.000132   0.004674
    15  H   -0.000018   0.003850  -0.000576   0.002342  -0.000016   0.000001
    16  H    0.000000   0.000000  -0.000001   0.000011   0.000124   0.008773
    17  O    0.000000   0.000000   0.000000   0.000001   0.000006  -0.000813
    18  H    0.000000   0.000000   0.000000   0.000000   0.000000  -0.000022
              7          8          9         10         11         12
     1  F    0.000000   0.000000   0.000134   0.001382  -0.040751   0.003501
     2  C    0.000292   0.000290  -0.023426  -0.053062   0.377089  -0.083500
     3  C    0.004946   0.004952  -0.053034  -0.021400  -0.078869   0.001593
     4  C   -0.055361  -0.055361   0.589603  -0.035054  -0.001378  -0.000050
     5  C    0.286279   0.285243  -0.021120   0.001170   0.000073   0.000006
     6  F   -0.030234  -0.030238   0.005566   0.000231   0.000002   0.000000
     7  F    9.196287  -0.034028   0.000510  -0.000006  -0.000002   0.000000
     8  F   -0.034028   9.199042   0.000487  -0.000006  -0.000002   0.000000
     9  C    0.000510   0.000487   4.733892   0.268254  -0.038360   0.003340
    10  N   -0.000006  -0.000006   0.268254   7.233721   0.211520  -0.104396
    11  C   -0.000002  -0.000002  -0.038360   0.211520   4.956474   0.447334
    12  S    0.000000   0.000000   0.003340  -0.104396   0.447334  15.944629
    13  H    0.000893   0.000890   0.002419  -0.000264   0.002627  -0.000055
    14  H    0.000078   0.000077   0.380004  -0.031637   0.000998  -0.000133
    15  H    0.000000   0.000000  -0.021335   0.309690  -0.017800   0.013679
    16  H    0.000012   0.000012  -0.000020   0.000000   0.000000   0.000000
    17  O    0.000000   0.000000  -0.000025   0.000000   0.000000   0.000000
    18  H    0.000000   0.000000   0.000000   0.000000   0.000000   0.000000
             13         14         15         16         17         18
     1  F   -0.000277   0.000000  -0.000018   0.000000   0.000000   0.000000
     2  C   -0.017130  -0.000133   0.003850   0.000000   0.000000   0.000000
     3  C    0.368642   0.001872  -0.000576  -0.000001   0.000000   0.000000
     4  C   -0.030345  -0.024152   0.002342   0.000011   0.000001   0.000000
     5  C   -0.000302  -0.000132  -0.000016   0.000124   0.000006   0.000000
     6  F    0.000036   0.004674   0.000001   0.008773  -0.000813  -0.000022
     7  F    0.000893   0.000078   0.000000   0.000012   0.000000   0.000000
     8  F    0.000890   0.000077   0.000000   0.000012   0.000000   0.000000
     9  C    0.002419   0.380004  -0.021335  -0.000020  -0.000025   0.000000
    10  N   -0.000264  -0.031637   0.309690   0.000000   0.000000   0.000000
    11  C    0.002627   0.000998  -0.017800   0.000000   0.000000   0.000000
    12  S   -0.000055  -0.000133   0.013679   0.000000   0.000000   0.000000
    13  H    0.391750  -0.000062   0.000008   0.000000   0.000000   0.000000
    14  H   -0.000062   0.384569  -0.002148   0.000156   0.000134   0.000000
    15  H    0.000008  -0.002148   0.269428   0.000000   0.000000   0.000000
    16  H    0.000000   0.000156   0.000000   0.310624   0.261731  -0.018478
    17  O    0.000000   0.000134   0.000000   0.261731   8.351579   0.265583
    18  H    0.000000   0.000000   0.000000  -0.018478   0.265583   0.320832
 Mulliken atomic charges:
              1
     1  F   -0.359408
     2  C    0.407146
     3  C   -0.173586
     4  C   -0.299506
     5  C    1.208656
     6  F   -0.391177
     7  F   -0.369667
     8  F   -0.371360
     9  C    0.173110
    10  N   -0.780143
    11  C    0.181045
    12  S   -0.225948
    13  H    0.281169
    14  H    0.285833
    15  H    0.442893
    16  H    0.437053
    17  O   -0.878196
    18  H    0.432085
 Sum of Mulliken atomic charges =   0.00000
 Mulliken charges with hydrogens summed into heavy atoms:
              1
     1  F   -0.359408
     2  C    0.407146
     3  C    0.107584
     4  C   -0.299506
     5  C    1.208656
     6  F   -0.391177
     7  F   -0.369667
     8  F   -0.371360
     9  C    0.458943
    10  N   -0.337250
    11  C    0.181045
    12  S   -0.225948
    17  O   -0.009059
 Sum of Mulliken charges with hydrogens summed into heavy atoms =   0.00000
 Electronic spatial extent (au):  <R**2>=           3964.5564
 Charge=              0.0000 electrons
 Dipole moment (field-independent basis, Debye):
    X=              2.6767    Y=             -1.1975    Z=              1.7169  Tot=              3.3980
 Quadrupole moment (field-independent basis, Debye-Ang):
   XX=           -111.0871   YY=            -80.6032   ZZ=            -80.2055
   XY=              9.6888   XZ=              8.0442   YZ=             -7.9196
 Traceless Quadrupole moment (field-independent basis, Debye-Ang):
   XX=            -20.4552   YY=             10.0288   ZZ=             10.4264
   XY=              9.6888   XZ=              8.0442   YZ=             -7.9196
 Octapole moment (field-independent basis, Debye-Ang**2):
  XXX=            -25.4108  YYY=            123.4291  ZZZ=              0.4734  XYY=            -50.7928
  XXY=             71.9131  XXZ=             36.6685  XZZ=             -5.0359  YZZ=             24.7122
  YYZ=             35.3295  XYZ=            -36.4939
 Hexadecapole moment (field-independent basis, Debye-Ang**3):
 XXXX=          -3683.9359 YYYY=          -1369.5080 ZZZZ=           -142.9551 XXXY=            540.5298
 XXXZ=            166.1997 YYYX=            577.9101 YYYZ=           -155.8661 ZZZX=              2.4372
 ZZZY=             -2.5328 XXYY=           -965.7682 XXZZ=           -539.9346 YYZZ=           -194.9003
 XXYZ=           -166.2136 YYXZ=            162.5267 ZZXY=             72.4499
 N-N= 9.030302610934D+02 E-N=-4.543411931496D+03  KE= 1.152539914516D+03
 1\1\GINC-B1\FOpt\RHF\6-31G(d)\C6H5F4N1O1S1\ANA\24-Sep-2021\1\\#HF/6-31
 G* Opt=Z-matrix NoSymm\\water interaction with atom F6\\0,1\F,-1,-1.96
 93,2.05368,0.00007\C,-1,-1.22225,0.94423,0.00003\C,-1,0.14003,1.0574,-
 0.00002\C,-1,0.92795,-0.12364,-0.00008\C,-1,2.41466,-0.01865,-0.00001\
 F,-1,3.00708,-1.23461,-0.00056\F,-1,2.85829,0.65448,-1.08602\F,-1,2.85
 827,0.6535,1.08665\C,-1,0.30654,-1.34149,-0.00009\N,-1,-1.05417,-1.389
 97,-0.00006\C,-1,-1.9305,-0.3121,0.\S,-1,-3.57098,-0.50661,0.00003\H,-
 1,0.59686,2.0431,-0.00002\H,-1,0.83176,-2.28899,-0.00015\H,-1,-1.52148
 ,-2.29639,-0.00009\X,6,RDUM,5,ADUM,4,DDUM,0\X,16,RDUM,6,ADUM,5,DDUM,0\
 H,6,RX,16,ADUM,17,DH1,0\X,18,RDUM,6,ADUM,16,DDUM,0\O,18,ROH,19,ADUM,6,
 DOH2,0\H,20,ROH,18,AHOH,16,DH2,0\\RX=2.32578358\RDUM=1.\ROH=0.9572\ADU
 M=90.\AHOH=104.52\DDUM=0.\DH1=180.\DOH2=180.\DH2=270.\\Version=EM64L-G
 09RevA.01\HF=-1154.6740331\RMSD=7.596e-09\RMSF=2.985e-03\Dipole=1.0531
 001,-0.4711283,0.6754963\Quadrupole=-15.2079106,7.4561314,7.7517792,7.
 2033684,5.9806983,-5.8880403\PG=C01 [X(C6H5F4N1O1S1)]\\@


 THE MEEK SHALL INHERIT THE EARTH.
 (THE REST OF US WILL ESCAPE TO THE STARS)
 Job cpu time:  0 days  0 hours  3 minutes 41.9 seconds.
 File lengths (MBytes):  RWF=     26 Int=      0 D2E=      0 Chk=      3 Scr=      1
 Normal termination of Gaussian 09 at Fri Sep 24 08:07:06 2021.
