 Entering Gaussian System, Link 0=g09
 Initial command:
 /home/ana/programs/g09/l1.exe /home/ana/programs/g09/scratch/Gau-699480.inp -scrdir=/home/ana/programs/g09/scratch/
 Entering Link 1 = /home/ana/programs/g09/l1.exe PID=    699482.
  
 Copyright (c) 1988,1990,1992,1993,1995,1998,2003,2009, Gaussian, Inc.
                  All Rights Reserved.
  
 This is part of the Gaussian(R) 09 program.  It is based on
 the Gaussian(R) 03 system (copyright 2003, Gaussian, Inc.),
 the Gaussian(R) 98 system (copyright 1998, Gaussian, Inc.),
 the Gaussian(R) 94 system (copyright 1995, Gaussian, Inc.),
 the Gaussian 92(TM) system (copyright 1992, Gaussian, Inc.),
 the Gaussian 90(TM) system (copyright 1990, Gaussian, Inc.),
 the Gaussian 88(TM) system (copyright 1988, Gaussian, Inc.),
 the Gaussian 86(TM) system (copyright 1986, Carnegie Mellon
 University), and the Gaussian 82(TM) system (copyright 1983,
 Carnegie Mellon University). Gaussian is a federally registered
 trademark of Gaussian, Inc.
  
 This software contains proprietary and confidential information,
 including trade secrets, belonging to Gaussian, Inc.
  
 This software is provided under written license and may be
 used, copied, transmitted, or stored only in accord with that
 written license.
  
 The following legend is applicable only to US Government
 contracts under FAR:
  
                    RESTRICTED RIGHTS LEGEND
  
 Use, reproduction and disclosure by the US Government is
 subject to restrictions as set forth in subparagraphs (a)
 and (c) of the Commercial Computer Software - Restricted
 Rights clause in FAR 52.227-19.
  
 Gaussian, Inc.
 340 Quinnipiac St., Bldg. 40, Wallingford CT 06492
  
  
 ---------------------------------------------------------------
 Warning -- This program may not be used in any manner that
 competes with the business of Gaussian, Inc. or will provide
 assistance to any competitor of Gaussian, Inc.  The licensee
 of this program is prohibited from giving any competitor of
 Gaussian, Inc. access to this program.  By using this program,
 the user acknowledges that Gaussian, Inc. is engaged in the
 business of creating and licensing software in the field of
 computational chemistry and represents and warrants to the
 licensee that it is not a competitor of Gaussian, Inc. and that
 it will not use this program in any manner prohibited above.
 ---------------------------------------------------------------
  

 Cite this work as:
 Gaussian 09, Revision A.01,
 M. J. Frisch, G. W. Trucks, H. B. Schlegel, G. E. Scuseria, 
 M. A. Robb, J. R. Cheeseman, G. Scalmani, V. Barone, B. Mennucci, 
 G. A. Petersson, H. Nakatsuji, M. Caricato, X. Li, H. P. Hratchian, 
 A. F. Izmaylov, J. Bloino, G. Zheng, J. L. Sonnenberg, M. Hada, 
 M. Ehara, K. Toyota, R. Fukuda, J. Hasegawa, M. Ishida, T. Nakajima, 
 Y. Honda, O. Kitao, H. Nakai, T. Vreven, J. A. Montgomery, Jr., 
 J. E. Peralta, F. Ogliaro, M. Bearpark, J. J. Heyd, E. Brothers, 
 K. N. Kudin, V. N. Staroverov, R. Kobayashi, J. Normand, 
 K. Raghavachari, A. Rendell, J. C. Burant, S. S. Iyengar, J. Tomasi, 
 M. Cossi, N. Rega, J. M. Millam, M. Klene, J. E. Knox, J. B. Cross, 
 V. Bakken, C. Adamo, J. Jaramillo, R. Gomperts, R. E. Stratmann, 
 O. Yazyev, A. J. Austin, R. Cammi, C. Pomelli, J. W. Ochterski, 
 R. L. Martin, K. Morokuma, V. G. Zakrzewski, G. A. Voth, 
 P. Salvador, J. J. Dannenberg, S. Dapprich, A. D. Daniels, 
 O. Farkas, J. B. Foresman, J. V. Ortiz, J. Cioslowski, 
 and D. J. Fox, Gaussian, Inc., Wallingford CT, 2009.
 
 ******************************************
 Gaussian 09:  EM64L-G09RevA.01  8-May-2009
                24-Sep-2021 
 ******************************************
 %NPROC=4
 Will use up to    4 processors via shared memory.
 %NoSave
 ------------------------------
 #HF/6-31G* Opt=Z-matrix NoSymm
 ------------------------------
 1/10=7,18=40,38=1/1,3;
 2/12=2,15=1,17=6,18=5,29=3,40=1/2;
 3/5=1,6=6,7=1,11=9,16=1,25=1,30=1,71=1/1,2,3;
 4//1;
 5/5=2,38=5/2;
 6/7=2,8=2,9=2,10=2,28=1/1;
 7/29=1,30=1/1,2,3,16;
 1/10=7,18=40/3(2);
 2/15=1,29=3/2;
 99//99;
 2/15=1,29=3/2;
 3/5=1,6=6,7=1,11=9,16=1,25=1,30=1,71=1/1,2,3;
 4/5=5,16=3/1;
 5/5=2,38=5/2;
 7/30=1/1,2,3,16;
 1/18=40/3(-5);
 2/15=1,29=3/2;
 6/7=2,8=2,9=2,10=2,19=2,28=1/1;
 99/9=1/99;
 ------------------------------
 water interaction with atom F6
 ------------------------------
 Symbolic Z-matrix:
 Charge =  0 Multiplicity = 1
 9                    -1   -1.9693    2.05368   0.00007 
 6                    -1   -1.22225   0.94423   0.00003 
 6                    -1    0.14003   1.0574   -0.00002 
 6                    -1    0.92795  -0.12364  -0.00008 
 6                    -1    2.41466  -0.01865  -0.00001 
 9                    -1    3.00708  -1.23461  -0.00056 
 9                    -1    2.85829   0.65448  -1.08602 
 9                    -1    2.85827   0.6535    1.08665 
 6                    -1    0.30654  -1.34149  -0.00009 
 7                    -1   -1.05417  -1.38997  -0.00006 
 6                    -1   -1.9305   -0.3121    0. 
 16                   -1   -3.57098  -0.50661   0.00003 
 1                    -1    0.59686   2.0431   -0.00002 
 1                    -1    0.83176  -2.28899  -0.00015 
 1                    -1   -1.52148  -2.29639  -0.00009 
 X                    6    RDUM     5    ADUM     4    DDUM     0
 X                    16   RDUM     6    ADUM     5    DDUM     0
 H1                   6    RX       16   ADUM     17   DH1      0
 X                    18   RDUM     6    ADUM     16   DDUM     0
 OH2                  18   ROH      19   ADUM     6    DOH2     0
 H2                   20   ROH      18   AHOH     16   DH2      0
       Variables:
  RX                    2.4819                   
       Constants:
  RDUM                  1.                       
  ROH                   0.9572                   
  ADUM                 90.                       
  AHOH                104.52                     
  DDUM                  0.                       
  DH1                 180.                       
  DOH2                180.                       
  DH2                  90.                       
 

 GradGradGradGradGradGradGradGradGradGradGradGradGradGradGradGradGradGrad
 Berny optimization.
 Initialization pass.
                       ----------------------------
                       !    Initial Parameters    !
                       ! (Angstroms and Degrees)  !
 ----------------------                            ----------------------
 !      Name          Value   Derivative information (Atomic Units)     !
 ------------------------------------------------------------------------
 !       RX          2.4819   estimate D2E/DX2                          !
 !      RDUM         1.0      Frozen                                    !
 !       ROH         0.9572   Frozen                                    !
 !      ADUM        90.0      Frozen                                    !
 !      AHOH       104.52     Frozen                                    !
 !      DDUM         0.0      Frozen                                    !
 !       DH1       180.0      Frozen                                    !
 !      DOH2       180.0      Frozen                                    !
 !       DH2        90.0      Frozen                                    !
 ------------------------------------------------------------------------
 Trust Radius=3.00D-01 FncErr=1.00D-07 GrdErr=1.00D-07
 Number of steps in this run=  20 maximum allowed number of steps= 100.
 GradGradGradGradGradGradGradGradGradGradGradGradGradGradGradGradGradGrad

 ---------------------------------------------------------------------------------------------------
                            Z-MATRIX (ANGSTROMS AND DEGREES)
   CD    Cent   Atom    N1       Length/X        N2       Alpha/Y        N3        Beta/Z          J
 ---------------------------------------------------------------------------------------------------
      1      1  F       -1  -1.969300          2.053680          0.000070
      2      2  C       -1  -1.222250          0.944230          0.000030
      3      3  C       -1   0.140030          1.057400         -0.000020
      4      4  C       -1   0.927950         -0.123640         -0.000080
      5      5  C       -1   2.414660         -0.018650         -0.000010
      6      6  F       -1   3.007080         -1.234610         -0.000560
      7      7  F       -1   2.858290          0.654480         -1.086020
      8      8  F       -1   2.858270          0.653500          1.086650
      9      9  C       -1   0.306540         -1.341490         -0.000090
     10     10  N       -1  -1.054170         -1.389970         -0.000060
     11     11  C       -1  -1.930500         -0.312100          0.000000
     12     12  S       -1  -3.570980         -0.506610          0.000030
     13     13  H       -1   0.596860          2.043100         -0.000020
     14     14  H       -1   0.831760         -2.288990         -0.000150
     15     15  H       -1  -1.521480         -2.296390         -0.000090
     16         X        6   1.000000(    15)      5   90.000(    34)      4    0.000(    52)      0
     17         X       16   1.000000(    16)      6   90.000(    35)      5    0.000(    53)      0
     18     16  H        6   2.481900(    17)     16   90.000(    36)     17  180.000(    54)      0
     19         X       18   1.000000(    18)      6   90.000(    37)     16    0.000(    55)      0
     20     17  O       18   0.957200(    19)     19   90.000(    38)      6  180.000(    56)      0
     21     18  H       20   0.957200(    20)     18  104.520(    39)     16   90.000(    57)      0
 ---------------------------------------------------------------------------------------------------
                         Z-Matrix orientation:                         
 ---------------------------------------------------------------------
 Center     Atomic      Atomic             Coordinates (Angstroms)
 Number     Number       Type             X           Y           Z
 ---------------------------------------------------------------------
      1          9           0       -1.969300    2.053680    0.000070
      2          6           0       -1.222250    0.944230    0.000030
      3          6           0        0.140030    1.057400   -0.000020
      4          6           0        0.927950   -0.123640   -0.000080
      5          6           0        2.414660   -0.018650   -0.000010
      6          9           0        3.007080   -1.234610   -0.000560
      7          9           0        2.858290    0.654480   -1.086020
      8          9           0        2.858270    0.653500    1.086650
      9          6           0        0.306540   -1.341490   -0.000090
     10          7           0       -1.054170   -1.389970   -0.000060
     11          6           0       -1.930500   -0.312100    0.000000
     12         16           0       -3.570980   -0.506610    0.000030
     13          1           0        0.596860    2.043100   -0.000020
     14          1           0        0.831760   -2.288990   -0.000150
     15          1           0       -1.521480   -2.296390   -0.000090
     16         -1           0        2.108099   -1.672597   -0.000774
     17         -1           0        1.670112   -0.773616   -0.000368
     18          1           0        4.094120   -3.465792   -0.001569
     19         -1           0        3.195138   -3.903778   -0.001784
     20          8           0        4.513361   -4.326297   -0.001958
     21          1           0        4.618485   -4.541615   -0.928683
 ---------------------------------------------------------------------
                    Distance matrix (angstroms):
                    1          2          3          4          5
     1  F    0.000000
     2  C    1.337521   0.000000
     3  C    2.332777   1.366973   0.000000
     4  C    3.624194   2.400772   1.419744   0.000000
     5  C    4.849088   3.762214   2.516312   1.490413   0.000000
     6  F    5.964663   4.757581   3.670597   2.357337   1.352598
     7  F    5.142274   4.232525   2.954772   2.347541   1.352527
     8  F    5.142625   4.232719   2.955134   2.347566   1.352555
     9  C    4.087374   2.749857   2.404662   1.367227   2.488790
    10  N    3.563171   2.340244   2.723184   2.352104   3.730054
    11  C    2.366098   1.442215   2.482463   2.864656   4.355058
    12  S    3.020011   2.760701   4.027123   4.515201   6.005497
    13  H    2.566182   2.125247   1.086415   2.191890   2.748674
    14  H    5.167661   3.830492   3.417136   2.167485   2.767673
    15  H    4.373060   3.254406   3.742796   3.274225   4.547669
    16  X    5.523615   4.235446   3.365439   1.947311   1.682118
    17  X    4.608570   3.364038   2.386162   0.986546   1.060342
    18  H    8.199367   6.907393   6.007836   4.603760   3.834498
    19  X    7.884335   6.558697   5.826404   4.407901   3.962748
    20  O    9.095548   7.789460   6.936153   5.524264   4.791698
    21  H    9.367999   8.066672   7.229657   5.831025   5.116297
                    6          7          8          9         10
     6  F    0.000000
     7  F    2.183809   0.000000
     8  F    2.183834   2.172670   0.000000
     9  C    2.702654   3.416807   3.416477   0.000000
    10  N    4.064221   4.546034   4.545756   1.361573   0.000000
    11  C    5.023019   5.004620   5.004549   2.462517   1.389157
    12  S    6.618222   6.622926   6.622828   3.966382   2.667332
    13  H    4.068482   2.867355   2.868068   3.397019   3.809445
    14  H    2.417382   3.734964   3.734451   1.083334   2.089251
    15  H    4.651369   5.391592   5.391203   2.062399   1.019792
    16  X    1.000000   2.675039   2.675065   1.831733   3.174873
    17  X    1.414214   2.151712   2.151740   1.477095   2.793135
    18  H    2.481900   4.436209   4.436227   4.342628   5.551029
    19  X    2.675785   4.697527   4.697548   3.861259   4.937191
    20  O    3.439100   5.359345   5.359363   5.158140   6.294395
    21  H    3.793985   5.488392   5.843727   5.449400   6.555473
                   11         12         13         14         15
    11  C    0.000000
    12  S    1.651971   0.000000
    13  H    3.454637   4.885889   0.000000
    14  H    3.396789   4.749842   4.338454   0.000000
    15  H    2.026007   2.720986   4.828927   2.353252   0.000000
    16  X    4.261600   5.797539   4.011265   1.417385   3.682792
    17  X    3.630069   5.247889   3.014259   1.731818   3.536255
    18  H    6.800133   8.216478   6.525237   3.468120   5.736067
    19  X    6.258780   7.571071   6.489716   2.862359   4.982990
    20  O    7.591911   8.941285   7.477178   4.207708   6.367089
    21  H    7.851144   9.176661   7.771381   4.502864   6.603219
                   16         17         18         19         20
    16  X    0.000000
    17  X    1.000000   0.000000
    18  H    2.675785   3.622655   0.000000
    19  X    2.481900   3.481900   1.000000   0.000000
    20  O    3.581537   4.550342   0.957200   1.384280   0.000000
    21  H    3.923560   4.873653   1.513901   1.814358   0.957200
                   21
    21  H    0.000000
 Symmetry turned off by external request.
 Stoichiometry    C6H5F4NOS
 Framework group  C1[X(C6H5F4NOS)]
 Deg. of freedom    48
 Full point group                 C1      NOp   1
 Rotational constants (GHZ):      1.0680698      0.3151616      0.2545496
 Standard basis: 6-31G(d) (6D, 7F)
 Integral buffers will be    131072 words long.
 Raffenetti 1 integral format.
 Two-electron integral symmetry is turned off.
   209 basis functions,   408 primitive gaussians,   209 cartesian basis functions
    54 alpha electrons       54 beta electrons
       nuclear repulsion energy       900.5512124959 Hartrees.
 NAtoms=   18 NActive=   18 NUniq=   18 SFac= 7.50D-01 NAtFMM=   80 NAOKFM=F Big=F
 One-electron integrals computed using PRISM.
 NBasis=   209 RedAO= T  NBF=   209
 NBsUse=   209 1.00D-06 NBFU=   209
 Harris functional with IExCor=  205 diagonalized for initial guess.
 ExpMin= 1.17D-01 ExpMax= 2.19D+04 ExpMxC= 3.30D+03 IAcc=1 IRadAn=         1 AccDes= 0.00D+00
 HarFok:  IExCor=  205 AccDes= 0.00D+00 IRadAn=         1 IDoV= 1
 ScaDFX=  1.000000  1.000000  1.000000  1.000000
 FoFCou: FMM=F IPFlag=           0 FMFlag=      100000 FMFlg1=           0
         NFxFlg=           0 DoJE=T BraDBF=F KetDBF=T FulRan=T
         Omega=  0.000000  0.000000  1.000000  0.000000  0.000000 ICntrl=     500 IOpCl=  0
         NMat0=    1 NMatS0=    1 NMatT0=    0 NMatD0=    1 NMtDS0=    0 NMtDT0=    0
         I1Cent=           4 NGrid=           0.
 Symmetry not used in FoFCou.
 Requested convergence on RMS density matrix=1.00D-08 within 128 cycles.
 Requested convergence on MAX density matrix=1.00D-06.
 Requested convergence on             energy=1.00D-06.
 No special actions if energy rises.
 Integral accuracy reduced to 1.0D-05 until final iterations.
 Initial convergence to 1.0D-05 achieved.  Increase integral accuracy.
 SCF Done:  E(RHF) =  -1154.67395462     A.U. after   15 cycles
             Convg  =    0.5688D-08             -V/T =  2.0019

 **********************************************************************

            Population analysis using the SCF density.

 **********************************************************************

 Alpha  occ. eigenvalues --  -91.90692 -26.38142 -26.36539 -26.36441 -26.33658
 Alpha  occ. eigenvalues --  -20.56635 -15.68965 -11.54928 -11.38061 -11.37441
 Alpha  occ. eigenvalues --  -11.36501 -11.31483 -11.30712  -8.91779  -6.60106
 Alpha  occ. eigenvalues --   -6.59831  -6.59704  -1.74930  -1.66123  -1.64970
 Alpha  occ. eigenvalues --   -1.64907  -1.35806  -1.34810  -1.17486  -1.12338
 Alpha  occ. eigenvalues --   -1.03467  -0.97596  -0.93058  -0.88553  -0.85337
 Alpha  occ. eigenvalues --   -0.84602  -0.84054  -0.77351  -0.76281  -0.74170
 Alpha  occ. eigenvalues --   -0.73049  -0.72397  -0.71529  -0.71278  -0.70567
 Alpha  occ. eigenvalues --   -0.68379  -0.68292  -0.66771  -0.64314  -0.62784
 Alpha  occ. eigenvalues --   -0.61171  -0.59753  -0.57709  -0.52797  -0.50424
 Alpha  occ. eigenvalues --   -0.46869  -0.43515  -0.34315  -0.31221
 Alpha virt. eigenvalues --    0.04235   0.08423   0.17068   0.19881   0.24285
 Alpha virt. eigenvalues --    0.24954   0.26074   0.26240   0.29101   0.32029
 Alpha virt. eigenvalues --    0.33496   0.35029   0.39711   0.40081   0.42370
 Alpha virt. eigenvalues --    0.42865   0.46389   0.49259   0.53884   0.55398
 Alpha virt. eigenvalues --    0.56501   0.59511   0.60961   0.64157   0.66357
 Alpha virt. eigenvalues --    0.67367   0.71653   0.72769   0.73174   0.75114
 Alpha virt. eigenvalues --    0.76865   0.77628   0.82646   0.84207   0.87243
 Alpha virt. eigenvalues --    0.88769   0.89693   0.91886   0.95391   0.99534
 Alpha virt. eigenvalues --    1.00208   1.02190   1.03540   1.04401   1.07267
 Alpha virt. eigenvalues --    1.08996   1.09365   1.11789   1.14235   1.14981
 Alpha virt. eigenvalues --    1.15697   1.16185   1.16935   1.17866   1.24191
 Alpha virt. eigenvalues --    1.27453   1.30512   1.31193   1.32040   1.32764
 Alpha virt. eigenvalues --    1.34648   1.36792   1.39999   1.41430   1.41852
 Alpha virt. eigenvalues --    1.43464   1.47096   1.51790   1.59893   1.60004
 Alpha virt. eigenvalues --    1.60768   1.62882   1.63704   1.63737   1.63919
 Alpha virt. eigenvalues --    1.66162   1.67224   1.67302   1.69406   1.70162
 Alpha virt. eigenvalues --    1.72210   1.75962   1.77114   1.82314   1.86527
 Alpha virt. eigenvalues --    1.89281   1.91793   1.93534   1.99739   2.01429
 Alpha virt. eigenvalues --    2.02737   2.04008   2.05590   2.06139   2.08645
 Alpha virt. eigenvalues --    2.09791   2.11831   2.12008   2.17724   2.19961
 Alpha virt. eigenvalues --    2.22087   2.22136   2.24178   2.27925   2.29304
 Alpha virt. eigenvalues --    2.30114   2.32019   2.33422   2.34196   2.35540
 Alpha virt. eigenvalues --    2.37582   2.38889   2.42992   2.44708   2.45322
 Alpha virt. eigenvalues --    2.46572   2.51896   2.60342   2.61661   2.62187
 Alpha virt. eigenvalues --    2.65105   2.67838   2.74684   2.82518   2.84216
 Alpha virt. eigenvalues --    2.84307   2.90895   2.92533   2.92989   2.94107
 Alpha virt. eigenvalues --    2.99987   3.06660   3.09297   3.16836   3.21690
 Alpha virt. eigenvalues --    3.29273   3.36832   3.38727   3.42637   3.44443
 Alpha virt. eigenvalues --    3.49052   3.70886   4.00736   4.36161   4.39808
 Alpha virt. eigenvalues --    4.45185   4.48063   4.59803   4.64496   4.68172
 Alpha virt. eigenvalues --    4.81920   5.00985   5.17913   5.57699   6.03148
          Condensed to atoms (all electrons):
              1          2          3          4          5          6
     1  F    9.159092   0.267868  -0.033657   0.002214  -0.000015   0.000000
     2  C    0.267868   4.576062   0.569594  -0.025897   0.000867  -0.000019
     3  C   -0.033657   0.569594   5.066312   0.354285  -0.012776   0.002142
     4  C    0.002214  -0.025897   0.354285   5.202274   0.420095  -0.044324
     5  C   -0.000015   0.000867  -0.012776   0.420095   3.553050   0.279612
     6  F    0.000000  -0.000019   0.002142  -0.044324   0.279612   9.197475
     7  F    0.000000   0.000291   0.004965  -0.055360   0.285159  -0.030338
     8  F    0.000000   0.000291   0.004948  -0.055375   0.286136  -0.030337
     9  C    0.000134  -0.023308  -0.053509   0.590010  -0.021048   0.005538
    10  N    0.001382  -0.053136  -0.021323  -0.035217   0.001173   0.000233
    11  C   -0.040756   0.377275  -0.078897  -0.001344   0.000075   0.000002
    12  S    0.003503  -0.083502   0.001593  -0.000050   0.000006   0.000000
    13  H   -0.000276  -0.017165   0.368634  -0.030294  -0.000295   0.000035
    14  H    0.000000  -0.000126   0.001849  -0.023991  -0.000106   0.004775
    15  H   -0.000018   0.003850  -0.000575   0.002343  -0.000016   0.000001
    16  H    0.000000   0.000000  -0.000001   0.000004   0.000093   0.006480
    17  O    0.000000   0.000000   0.000000   0.000000   0.000003  -0.000455
    18  H    0.000000   0.000000   0.000000   0.000000   0.000000  -0.000019
              7          8          9         10         11         12
     1  F    0.000000   0.000000   0.000134   0.001382  -0.040756   0.003503
     2  C    0.000291   0.000291  -0.023308  -0.053136   0.377275  -0.083502
     3  C    0.004965   0.004948  -0.053509  -0.021323  -0.078897   0.001593
     4  C   -0.055360  -0.055375   0.590010  -0.035217  -0.001344  -0.000050
     5  C    0.285159   0.286136  -0.021048   0.001173   0.000075   0.000006
     6  F   -0.030338  -0.030337   0.005538   0.000233   0.000002   0.000000
     7  F    9.199486  -0.034025   0.000496  -0.000006  -0.000002   0.000000
     8  F   -0.034025   9.196959   0.000510  -0.000006  -0.000002   0.000000
     9  C    0.000496   0.000510   4.733768   0.268016  -0.038432   0.003339
    10  N   -0.000006  -0.000006   0.268016   7.233829   0.211731  -0.104411
    11  C   -0.000002  -0.000002  -0.038432   0.211731   4.956289   0.447166
    12  S    0.000000   0.000000   0.003339  -0.104411   0.447166  15.945314
    13  H    0.000894   0.000891   0.002415  -0.000263   0.002626  -0.000055
    14  H    0.000079   0.000080   0.380338  -0.031719   0.000989  -0.000134
    15  H    0.000000   0.000000  -0.021363   0.309714  -0.017805   0.013692
    16  H    0.000007   0.000007  -0.000013   0.000000   0.000000   0.000000
    17  O    0.000000   0.000000  -0.000013   0.000000   0.000000   0.000000
    18  H    0.000000   0.000000   0.000000   0.000000   0.000000   0.000000
             13         14         15         16         17         18
     1  F   -0.000276   0.000000  -0.000018   0.000000   0.000000   0.000000
     2  C   -0.017165  -0.000126   0.003850   0.000000   0.000000   0.000000
     3  C    0.368634   0.001849  -0.000575  -0.000001   0.000000   0.000000
     4  C   -0.030294  -0.023991   0.002343   0.000004   0.000000   0.000000
     5  C   -0.000295  -0.000106  -0.000016   0.000093   0.000003   0.000000
     6  F    0.000035   0.004775   0.000001   0.006480  -0.000455  -0.000019
     7  F    0.000894   0.000079   0.000000   0.000007   0.000000   0.000000
     8  F    0.000891   0.000080   0.000000   0.000007   0.000000   0.000000
     9  C    0.002415   0.380338  -0.021363  -0.000013  -0.000013   0.000000
    10  N   -0.000263  -0.031719   0.309714   0.000000   0.000000   0.000000
    11  C    0.002626   0.000989  -0.017805   0.000000   0.000000   0.000000
    12  S   -0.000055  -0.000134   0.013692   0.000000   0.000000   0.000000
    13  H    0.391800  -0.000062   0.000008   0.000000   0.000000   0.000000
    14  H   -0.000062   0.384722  -0.002148   0.000123   0.000072   0.000000
    15  H    0.000008  -0.002148   0.269578   0.000000   0.000000   0.000000
    16  H    0.000000   0.000123   0.000000   0.315366   0.262429  -0.018610
    17  O    0.000000   0.000072   0.000000   0.262429   8.346176   0.265549
    18  H    0.000000   0.000000   0.000000  -0.018610   0.265549   0.320371
 Mulliken atomic charges:
              1
     1  F   -0.359471
     2  C    0.407055
     3  C   -0.173585
     4  C   -0.299373
     5  C    1.207985
     6  F   -0.390799
     7  F   -0.371647
     8  F   -0.370077
     9  C    0.173122
    10  N   -0.779999
    11  C    0.181085
    12  S   -0.226461
    13  H    0.281106
    14  H    0.285261
    15  H    0.442739
    16  H    0.434113
    17  O   -0.873762
    18  H    0.432708
 Sum of Mulliken atomic charges =   0.00000
 Mulliken charges with hydrogens summed into heavy atoms:
              1
     1  F   -0.359471
     2  C    0.407055
     3  C    0.107522
     4  C   -0.299373
     5  C    1.207985
     6  F   -0.390799
     7  F   -0.371647
     8  F   -0.370077
     9  C    0.458383
    10  N   -0.337260
    11  C    0.181085
    12  S   -0.226461
    17  O   -0.006940
 Sum of Mulliken charges with hydrogens summed into heavy atoms =   0.00000
 Electronic spatial extent (au):  <R**2>=           4028.4652
 Charge=              0.0000 electrons
 Dipole moment (field-independent basis, Debye):
    X=              2.7100    Y=             -1.2283    Z=             -1.7207  Tot=              3.4371
 Quadrupole moment (field-independent basis, Debye-Ang):
   XX=           -111.0928   YY=            -80.8356   ZZ=            -80.1982
   XY=              9.7031   XZ=             -8.1692   YZ=              8.1647
 Traceless Quadrupole moment (field-independent basis, Debye-Ang):
   XX=            -20.3839   YY=              9.8732   ZZ=             10.5107
   XY=              9.7031   XZ=             -8.1692   YZ=              8.1647
 Octapole moment (field-independent basis, Debye-Ang**2):
  XXX=            -27.1815  YYY=            129.4448  ZZZ=             -0.4270  XYY=            -53.2321
  XXY=             73.9332  XXZ=            -37.7719  XZZ=             -5.3020  YZZ=             25.3266
  YYZ=            -37.5380  XYZ=             38.1724
 Hexadecapole moment (field-independent basis, Debye-Ang**3):
 XXXX=          -3716.2374 YYYY=          -1441.6595 ZZZZ=           -142.9665 XXXY=            568.8754
 XXXZ=           -173.5163 YYYX=            614.8753 YYYZ=            170.7201 ZZZX=             -2.2460
 ZZZY=              2.3748 XXYY=           -991.8208 XXZZ=           -542.6583 YYZZ=           -200.3084
 XXYZ=            176.3762 YYXZ=           -175.2436 ZZXY=             76.5361
 N-N= 9.005512124959D+02 E-N=-4.538498798982D+03  KE= 1.152540234429D+03
 Calling FoFJK, ICntrl=      2127 FMM=F ISym2X=0 I1Cent= 0 IOpClX= 0 NMat=1 NMatS=1 NMatT=0.
 -------------------------------------------------------------------
 Center     Atomic                   Forces (Hartrees/Bohr)
 Number     Number              X              Y              Z
 -------------------------------------------------------------------
      1        9           0.000000000    0.000000000    0.000000000
      2        6           0.000000000    0.000000000    0.000000000
      3        6           0.000000000    0.000000000    0.000000000
      4        6           0.000000000    0.000000000    0.000000000
      5        6           0.000000000    0.000000000    0.000000000
      6        9           0.000000000    0.000000000    0.000000000
      7        9           0.000000000    0.000000000    0.000000000
      8        9           0.000000000    0.000000000    0.000000000
      9        6           0.000000000    0.000000000    0.000000000
     10        7           0.000000000    0.000000000    0.000000000
     11        6           0.000000000    0.000000000    0.000000000
     12       16           0.000000000    0.000000000    0.000000000
     13        1           0.000000000    0.000000000    0.000000000
     14        1           0.000000000    0.000000000    0.000000000
     15        1           0.000000000    0.000000000    0.000000000
     16        1           0.006053488   -0.008664974    0.001312988
     17        8          -0.005875313    0.007945836   -0.011837770
     18        1           0.000022557    0.001346403    0.010466672
 -------------------------------------------------------------------
 Cartesian Forces:  Max     0.011837770 RMS     0.002926898
 -----------------------------------------------------------------------------------------------
                       Internal Coordinate Forces (Hartree/Bohr or radian)
  Cent   Atom   N1       Length/X         N2         Alpha/Y        N3         Beta/Z          J
 -----------------------------------------------------------------------------------------------
      1  F 
      2  C 
      3  C 
      4  C 
      5  C 
      6  F 
      7  F 
      8  F 
      9  C 
     10  N 
     11  C 
     12  S 
     13  H 
     14  H 
     15  H 
         X        6   0.000000(     1)      5   0.000256(     7)      4   0.001072(    13)     0
         X       16   0.000000(     2)      6   0.000000(     8)      5  -0.000125(    14)     0
     16  H        6  -0.000476(     3)     16   0.000256(     9)     17   0.000125(    15)     0
         X       18   0.000000(     4)      6  -0.001878(    10)     16   0.000000(    16)     0
     17  O       18  -0.010916(     5)     19  -0.001878(    11)      6   0.002512(    17)     0
     18  H       20  -0.010434(     6)     18   0.002637(    12)     16   0.001072(    18)     0
 -----------------------------------------------------------------------------------------------
 Internal  Forces:  Max     0.010916422 RMS     0.003734511

 GradGradGradGradGradGradGradGradGradGradGradGradGradGradGradGradGradGrad
 Berny optimization.
 Search for a local minimum.
 Step number   1 out of a maximum of   20
 All quantities printed in internal units (Hartrees-Bohrs-Radians)
 Second derivative matrix not updated -- first step.
 The second derivative matrix:
                          RX       RDUM       ROH      ADUM      AHOH
           RX           0.02124
           RDUM         0.00000   0.00000
           ROH          0.00000   0.00000   1.12160
           ADUM         0.00000   0.00000   0.00000   1.64000
           AHOH         0.00000   0.00000   0.00000   0.00000   0.16000
           DDUM         0.00000   0.00000   0.00000  -0.00006   0.00000
           DH1          0.00000   0.00000   0.00000   0.00006   0.00000
           DOH2         0.00000   0.00000   0.00000   0.00010   0.00000
           DH2          0.00000   0.00000   0.00000   0.00000   0.00000
                         DDUM       DH1      DOH2       DH2
           DDUM         0.19798
           DH1         -0.19798   0.19798
           DOH2         0.00000   0.00000   0.30934
           DH2          0.00000   0.00000   0.00000   0.00000
     Eigenvalues ---    0.021241000.000001000.000001000.000001000.00000
     Eigenvalues --- 1000.000001000.000001000.000001000.00000
 RFO step:  Lambda=-1.06657222D-05 EMin= 2.12396339D-02
 Linear search not attempted -- first point.
 Variable       Old X    -DE/DX   Delta X   Delta X   Delta X     New X
                                 (Linear)    (Quad)   (Total)
    RX        4.69011  -0.00048   0.00000  -0.02240  -0.02240   4.66771
   RDUM       1.88973   0.00000   0.00000   0.00000   0.00000   1.88973
   ROH        1.80885  -0.02135   0.00000   0.00000   0.00000   1.80885
   ADUM       1.57080  -0.00324   0.00000   0.00000   0.00000   1.57080
   AHOH       1.82422   0.00264   0.00000   0.00000   0.00000   1.82422
   DDUM       0.00000   0.00095   0.00000   0.00000   0.00000   0.00000
   DH1        3.14159   0.00012   0.00000   0.00000   0.00000   3.14159
   DOH2       3.14159   0.00251   0.00000   0.00000   0.00000   3.14159
   DH2        1.57080   0.00107   0.00000   0.00000   0.00000   1.57080
         Item               Value     Threshold  Converged?
 Maximum Force            0.000476     0.000450     NO 
 RMS     Force            0.000476     0.000300     NO 
 Maximum Displacement     0.022398     0.001800     NO 
 RMS     Displacement     0.007466     0.001200     NO 
 Predicted change in Energy=-5.332860D-06
 GradGradGradGradGradGradGradGradGradGradGradGradGradGradGradGradGradGrad

 ---------------------------------------------------------------------------------------------------
                            Z-MATRIX (ANGSTROMS AND DEGREES)
   CD    Cent   Atom    N1       Length/X        N2       Alpha/Y        N3        Beta/Z          J
 ---------------------------------------------------------------------------------------------------
      1      1  F       -1  -1.969300          2.053680          0.000070
      2      2  C       -1  -1.222250          0.944230          0.000030
      3      3  C       -1   0.140030          1.057400         -0.000020
      4      4  C       -1   0.927950         -0.123640         -0.000080
      5      5  C       -1   2.414660         -0.018650         -0.000010
      6      6  F       -1   3.007080         -1.234610         -0.000560
      7      7  F       -1   2.858290          0.654480         -1.086020
      8      8  F       -1   2.858270          0.653500          1.086650
      9      9  C       -1   0.306540         -1.341490         -0.000090
     10     10  N       -1  -1.054170         -1.389970         -0.000060
     11     11  C       -1  -1.930500         -0.312100          0.000000
     12     12  S       -1  -3.570980         -0.506610          0.000030
     13     13  H       -1   0.596860          2.043100         -0.000020
     14     14  H       -1   0.831760         -2.288990         -0.000150
     15     15  H       -1  -1.521480         -2.296390         -0.000090
     16         X        6   1.000000(    15)      5   90.000(    34)      4    0.000(    52)      0
     17         X       16   1.000000(    16)      6   90.000(    35)      5    0.000(    53)      0
     18     16  H        6   2.470048(    17)     16   90.000(    36)     17  180.000(    54)      0
     19         X       18   1.000000(    18)      6   90.000(    37)     16    0.000(    55)      0
     20     17  O       18   0.957200(    19)     19   90.000(    38)      6  180.000(    56)      0
     21     18  H       20   0.957200(    20)     18  104.520(    39)     16   90.000(    57)      0
 ---------------------------------------------------------------------------------------------------
                         Z-Matrix orientation:                         
 ---------------------------------------------------------------------
 Center     Atomic      Atomic             Coordinates (Angstroms)
 Number     Number       Type             X           Y           Z
 ---------------------------------------------------------------------
      1          9           0       -1.969300    2.053680    0.000070
      2          6           0       -1.222250    0.944230    0.000030
      3          6           0        0.140030    1.057400   -0.000020
      4          6           0        0.927950   -0.123640   -0.000080
      5          6           0        2.414660   -0.018650   -0.000010
      6          9           0        3.007080   -1.234610   -0.000560
      7          9           0        2.858290    0.654480   -1.086020
      8          9           0        2.858270    0.653500    1.086650
      9          6           0        0.306540   -1.341490   -0.000090
     10          7           0       -1.054170   -1.389970   -0.000060
     11          6           0       -1.930500   -0.312100    0.000000
     12         16           0       -3.570980   -0.506610    0.000030
     13          1           0        0.596860    2.043100   -0.000020
     14          1           0        0.831760   -2.288990   -0.000150
     15          1           0       -1.521480   -2.296390   -0.000090
     16         -1           0        2.108099   -1.672597   -0.000774
     17         -1           0        1.670112   -0.773616   -0.000368
     18          1           0        4.088928   -3.455137   -0.001564
     19         -1           0        3.189947   -3.893123   -0.001779
     20          8           0        4.508169   -4.315641   -0.001954
     21          1           0        4.613294   -4.530960   -0.928678
 ---------------------------------------------------------------------
                    Distance matrix (angstroms):
                    1          2          3          4          5
     1  F    0.000000
     2  C    1.337521   0.000000
     3  C    2.332777   1.366973   0.000000
     4  C    3.624194   2.400772   1.419744   0.000000
     5  C    4.849088   3.762214   2.516312   1.490413   0.000000
     6  F    5.964663   4.757581   3.670597   2.357337   1.352598
     7  F    5.142274   4.232525   2.954772   2.347541   1.352527
     8  F    5.142625   4.232719   2.955134   2.347566   1.352555
     9  C    4.087374   2.749857   2.404662   1.367227   2.488790
    10  N    3.563171   2.340244   2.723184   2.352104   3.730054
    11  C    2.366098   1.442215   2.482463   2.864656   4.355058
    12  S    3.020011   2.760701   4.027123   4.515201   6.005497
    13  H    2.566182   2.125247   1.086415   2.191890   2.748674
    14  H    5.167661   3.830492   3.417136   2.167485   2.767673
    15  H    4.373060   3.254406   3.742796   3.274225   4.547669
    16  X    5.523615   4.235446   3.365439   1.947311   1.682118
    17  X    4.608570   3.364038   2.386162   0.986546   1.060342
    18  H    8.188357   6.896597   5.996398   4.592456   3.822645
    19  X    7.872884   6.547326   5.814609   4.396094   3.951280
    20  O    9.084375   7.778429   6.924610   5.512790   4.779845
    21  H    9.356848   8.055667   7.218190   5.819667   5.104641
                    6          7          8          9         10
     6  F    0.000000
     7  F    2.183809   0.000000
     8  F    2.183834   2.172670   0.000000
     9  C    2.702654   3.416807   3.416477   0.000000
    10  N    4.064221   4.546034   4.545756   1.361573   0.000000
    11  C    5.023019   5.004620   5.004549   2.462517   1.389157
    12  S    6.618222   6.622926   6.622828   3.966382   2.667332
    13  H    4.068482   2.867355   2.868068   3.397019   3.809445
    14  H    2.417382   3.734964   3.734451   1.083334   2.089251
    15  H    4.651369   5.391592   5.391203   2.062399   1.019792
    16  X    1.000000   2.675039   2.675065   1.831733   3.174873
    17  X    1.414214   2.151712   2.151740   1.477095   2.793135
    18  H    2.470048   4.424869   4.424887   4.332894   5.542236
    19  X    2.664796   4.686819   4.686840   3.850308   4.927302
    20  O    3.427248   5.347842   5.347859   5.147744   6.284837
    21  H    3.782492   5.476640   5.832691   5.439037   6.545861
                   11         12         13         14         15
    11  C    0.000000
    12  S    1.651971   0.000000
    13  H    3.454637   4.885889   0.000000
    14  H    3.396789   4.749842   4.338454   0.000000
    15  H    2.026007   2.720986   4.828927   2.353252   0.000000
    16  X    4.261600   5.797539   4.011265   1.417385   3.682792
    17  X    3.630069   5.247889   3.014259   1.731818   3.536255
    18  H    6.790596   8.207802   6.513459   3.459631   5.728820
    19  X    6.248417   7.561654   6.477874   2.852068   4.974646
    20  O    7.581874   8.932042   7.465383   4.198012   6.358778
    21  H    7.841075   9.167346   7.759666   4.493172   6.594773
                   16         17         18         19         20
    16  X    0.000000
    17  X    1.000000   0.000000
    18  H    2.664796   3.611264   0.000000
    19  X    2.470048   3.470048   1.000000   0.000000
    20  O    3.570158   4.538780   0.957200   1.384280   0.000000
    21  H    3.912448   4.862275   1.513901   1.814358   0.957200
                   21
    21  H    0.000000
 Symmetry turned off by external request.
 Stoichiometry    C6H5F4NOS
 Framework group  C1[X(C6H5F4NOS)]
 Deg. of freedom    48
 Full point group                 C1      NOp   1
 Rotational constants (GHZ):      1.0698451      0.3154554      0.2548421
 Standard basis: 6-31G(d) (6D, 7F)
 Integral buffers will be    131072 words long.
 Raffenetti 1 integral format.
 Two-electron integral symmetry is turned off.
   209 basis functions,   408 primitive gaussians,   209 cartesian basis functions
    54 alpha electrons       54 beta electrons
       nuclear repulsion energy       900.7341299297 Hartrees.
 NAtoms=   18 NActive=   18 NUniq=   18 SFac= 7.50D-01 NAtFMM=   80 NAOKFM=F Big=F
 One-electron integrals computed using PRISM.
 NBasis=   209 RedAO= T  NBF=   209
 NBsUse=   209 1.00D-06 NBFU=   209
 Initial guess read from the read-write file.
 B after Tr=     0.000000    0.000000    0.000000
         Rot=    1.000000    0.000000    0.000000    0.000000 Ang=   0.00 deg.
 Harris functional with IExCor=  205 diagonalized for initial guess.
 ExpMin= 1.17D-01 ExpMax= 2.19D+04 ExpMxC= 3.30D+03 IAcc=1 IRadAn=         1 AccDes= 0.00D+00
 HarFok:  IExCor=  205 AccDes= 0.00D+00 IRadAn=         1 IDoV= 1
 ScaDFX=  1.000000  1.000000  1.000000  1.000000
 FoFCou: FMM=F IPFlag=           0 FMFlag=      100000 FMFlg1=           0
         NFxFlg=           0 DoJE=T BraDBF=F KetDBF=T FulRan=T
         Omega=  0.000000  0.000000  1.000000  0.000000  0.000000 ICntrl=     500 IOpCl=  0
         NMat0=    1 NMatS0=    1 NMatT0=    0 NMatD0=    1 NMtDS0=    0 NMtDT0=    0
         I1Cent=           4 NGrid=           0.
 Symmetry not used in FoFCou.
 Requested convergence on RMS density matrix=1.00D-08 within 128 cycles.
 Requested convergence on MAX density matrix=1.00D-06.
 Requested convergence on             energy=1.00D-06.
 No special actions if energy rises.
 Integral accuracy reduced to 1.0D-05 until final iterations.
 Initial convergence to 1.0D-05 achieved.  Increase integral accuracy.
 SCF Done:  E(RHF) =  -1154.67396501     A.U. after    6 cycles
             Convg  =    0.8670D-08             -V/T =  2.0019
 Calling FoFJK, ICntrl=      2127 FMM=F ISym2X=0 I1Cent= 0 IOpClX= 0 NMat=1 NMatS=1 NMatT=0.
 -------------------------------------------------------------------
 Center     Atomic                   Forces (Hartrees/Bohr)
 Number     Number              X              Y              Z
 -------------------------------------------------------------------
      1        9           0.000000000    0.000000000    0.000000000
      2        6           0.000000000    0.000000000    0.000000000
      3        6           0.000000000    0.000000000    0.000000000
      4        6           0.000000000    0.000000000    0.000000000
      5        6           0.000000000    0.000000000    0.000000000
      6        9           0.000000000    0.000000000    0.000000000
      7        9           0.000000000    0.000000000    0.000000000
      8        9           0.000000000    0.000000000    0.000000000
      9        6           0.000000000    0.000000000    0.000000000
     10        7           0.000000000    0.000000000    0.000000000
     11        6           0.000000000    0.000000000    0.000000000
     12       16           0.000000000    0.000000000    0.000000000
     13        1           0.000000000    0.000000000    0.000000000
     14        1           0.000000000    0.000000000    0.000000000
     15        1           0.000000000    0.000000000    0.000000000
     16        1           0.006077671   -0.008685182    0.001317614
     17        8          -0.005891287    0.007945846   -0.011844524
     18        1           0.000026994    0.001345614    0.010469007
 -------------------------------------------------------------------
 Cartesian Forces:  Max     0.011844524 RMS     0.002930221
 -----------------------------------------------------------------------------------------------
                       Internal Coordinate Forces (Hartree/Bohr or radian)
  Cent   Atom   N1       Length/X         N2         Alpha/Y        N3         Beta/Z          J
 -----------------------------------------------------------------------------------------------
      1  F 
      2  C 
      3  C 
      4  C 
      5  C 
      6  F 
      7  F 
      8  F 
      9  C 
     10  N 
     11  C 
     12  S 
     13  H 
     14  H 
     15  H 
         X        6   0.000000(     1)      5   0.000239(     7)      4   0.001078(    13)     0
         X       16   0.000000(     2)      6   0.000000(     8)      5  -0.000125(    14)     0
     16  H        6  -0.000452(     3)     16   0.000239(     9)     17   0.000125(    15)     0
         X       18   0.000000(     4)      6  -0.001896(    10)     16   0.000000(    16)     0
     17  O       18  -0.010921(     5)     19  -0.001896(    11)      6   0.002517(    17)     0
     18  H       20  -0.010435(     6)     18   0.002643(    12)     16   0.001078(    18)     0
 -----------------------------------------------------------------------------------------------
 Internal  Forces:  Max     0.010920773 RMS     0.003736788

 GradGradGradGradGradGradGradGradGradGradGradGradGradGradGradGradGradGrad
 Berny optimization.
 Search for a local minimum.
 Step number   2 out of a maximum of   20
 All quantities printed in internal units (Hartrees-Bohrs-Radians)
 Update second derivatives using D2CorN and points    1    2
 DE= -1.04D-05 DEPred=-5.33D-06 R= 1.95D+00
 SS=  1.41D+00  RLast= 2.24D-02 DXNew= 5.0454D-01 6.7193D-02
 Trust test= 1.95D+00 RLast= 2.24D-02 DXMaxT set to 3.00D-01
 The second derivative matrix:
                          RX       RDUM       ROH      ADUM      AHOH
           RX           0.00109
           RDUM         0.00000   0.00000
           ROH         -0.00013   0.00000   1.12160
           ADUM        -0.00158   0.00000   0.00000   1.64000
           AHOH         0.00013   0.00000   0.00000   0.00000   0.16000
           DDUM         0.00014   0.00000   0.00000  -0.00006   0.00000
           DH1          0.00000   0.00000   0.00000   0.00006   0.00000
           DOH2         0.00012   0.00000   0.00000   0.00010   0.00000
           DH2          0.00014   0.00000   0.00000   0.00000   0.00000
                         DDUM       DH1      DOH2       DH2
           DDUM         0.19798
           DH1         -0.19798   0.19798
           DOH2         0.00000   0.00000   0.30934
           DH2          0.00000   0.00000   0.00000   0.00000
     Eigenvalues ---    0.001091000.000001000.000001000.000001000.00000
     Eigenvalues --- 1000.000001000.000001000.000001000.00000
 RFO step:  Lambda= 0.00000000D+00 EMin= 1.08964263D-03
 Quartic linear search produced a step of  2.00000.
 Variable       Old X    -DE/DX   Delta X   Delta X   Delta X     New X
                                 (Linear)    (Quad)   (Total)
    RX        4.66771  -0.00045  -0.04480   0.00000  -0.04480   4.62292
   RDUM       1.88973   0.00000   0.00000   0.00000   0.00000   1.88973
   ROH        1.80885  -0.02136   0.00000   0.00000   0.00000   1.80885
   ADUM       1.57080  -0.00331   0.00000   0.00000   0.00000   1.57080
   AHOH       1.82422   0.00264   0.00000   0.00000   0.00000   1.82422
   DDUM       0.00000   0.00095   0.00000   0.00000   0.00000   0.00000
   DH1        3.14159   0.00012   0.00000   0.00000   0.00000   3.14159
   DOH2       3.14159   0.00252   0.00000   0.00000   0.00000   3.14159
   DH2        1.57080   0.00108   0.00000   0.00000   0.00000   1.57080
         Item               Value     Threshold  Converged?
 Maximum Force            0.000452     0.000450     NO 
 RMS     Force            0.000452     0.000300     NO 
 Maximum Displacement     0.044795     0.001800     NO 
 RMS     Displacement     0.014932     0.001200     NO 
 Predicted change in Energy=-1.913423D-05
 GradGradGradGradGradGradGradGradGradGradGradGradGradGradGradGradGradGrad

 ---------------------------------------------------------------------------------------------------
                            Z-MATRIX (ANGSTROMS AND DEGREES)
   CD    Cent   Atom    N1       Length/X        N2       Alpha/Y        N3        Beta/Z          J
 ---------------------------------------------------------------------------------------------------
      1      1  F       -1  -1.969300          2.053680          0.000070
      2      2  C       -1  -1.222250          0.944230          0.000030
      3      3  C       -1   0.140030          1.057400         -0.000020
      4      4  C       -1   0.927950         -0.123640         -0.000080
      5      5  C       -1   2.414660         -0.018650         -0.000010
      6      6  F       -1   3.007080         -1.234610         -0.000560
      7      7  F       -1   2.858290          0.654480         -1.086020
      8      8  F       -1   2.858270          0.653500          1.086650
      9      9  C       -1   0.306540         -1.341490         -0.000090
     10     10  N       -1  -1.054170         -1.389970         -0.000060
     11     11  C       -1  -1.930500         -0.312100          0.000000
     12     12  S       -1  -3.570980         -0.506610          0.000030
     13     13  H       -1   0.596860          2.043100         -0.000020
     14     14  H       -1   0.831760         -2.288990         -0.000150
     15     15  H       -1  -1.521480         -2.296390         -0.000090
     16         X        6   1.000000(    15)      5   90.000(    34)      4    0.000(    52)      0
     17         X       16   1.000000(    16)      6   90.000(    35)      5    0.000(    53)      0
     18     16  H        6   2.446343(    17)     16   90.000(    36)     17  180.000(    54)      0
     19         X       18   1.000000(    18)      6   90.000(    37)     16    0.000(    55)      0
     20     17  O       18   0.957200(    19)     19   90.000(    38)      6  180.000(    56)      0
     21     18  H       20   0.957200(    20)     18  104.520(    39)     16   90.000(    57)      0
 ---------------------------------------------------------------------------------------------------
                         Z-Matrix orientation:                         
 ---------------------------------------------------------------------
 Center     Atomic      Atomic             Coordinates (Angstroms)
 Number     Number       Type             X           Y           Z
 ---------------------------------------------------------------------
      1          9           0       -1.969300    2.053680    0.000070
      2          6           0       -1.222250    0.944230    0.000030
      3          6           0        0.140030    1.057400   -0.000020
      4          6           0        0.927950   -0.123640   -0.000080
      5          6           0        2.414660   -0.018650   -0.000010
      6          9           0        3.007080   -1.234610   -0.000560
      7          9           0        2.858290    0.654480   -1.086020
      8          9           0        2.858270    0.653500    1.086650
      9          6           0        0.306540   -1.341490   -0.000090
     10          7           0       -1.054170   -1.389970   -0.000060
     11          6           0       -1.930500   -0.312100    0.000000
     12         16           0       -3.570980   -0.506610    0.000030
     13          1           0        0.596860    2.043100   -0.000020
     14          1           0        0.831760   -2.288990   -0.000150
     15          1           0       -1.521480   -2.296390   -0.000090
     16         -1           0        2.108099   -1.672597   -0.000774
     17         -1           0        1.670112   -0.773616   -0.000368
     18          1           0        4.078546   -3.433827   -0.001555
     19         -1           0        3.179565   -3.871813   -0.001769
     20          8           0        4.497787   -4.294331   -0.001944
     21          1           0        4.602912   -4.509650   -0.928669
 ---------------------------------------------------------------------
                    Distance matrix (angstroms):
                    1          2          3          4          5
     1  F    0.000000
     2  C    1.337521   0.000000
     3  C    2.332777   1.366973   0.000000
     4  C    3.624194   2.400772   1.419744   0.000000
     5  C    4.849088   3.762214   2.516312   1.490413   0.000000
     6  F    5.964663   4.757581   3.670597   2.357337   1.352598
     7  F    5.142274   4.232525   2.954772   2.347541   1.352527
     8  F    5.142625   4.232719   2.955134   2.347566   1.352555
     9  C    4.087374   2.749857   2.404662   1.367227   2.488790
    10  N    3.563171   2.340244   2.723184   2.352104   3.730054
    11  C    2.366098   1.442215   2.482463   2.864656   4.355058
    12  S    3.020011   2.760701   4.027123   4.515201   6.005497
    13  H    2.566182   2.125247   1.086415   2.191890   2.748674
    14  H    5.167661   3.830492   3.417136   2.167485   2.767673
    15  H    4.373060   3.254406   3.742796   3.274225   4.547669
    16  X    5.523615   4.235446   3.365439   1.947311   1.682118
    17  X    4.608570   3.364038   2.386162   0.986546   1.060342
    18  H    8.166344   6.875014   5.973527   4.569857   3.798941
    19  X    7.849986   6.524588   5.791020   4.372479   3.928352
    20  O    9.062034   7.756375   6.901527   5.489846   4.756141
    21  H    9.334550   8.033666   7.195258   5.796956   5.081332
                    6          7          8          9         10
     6  F    0.000000
     7  F    2.183809   0.000000
     8  F    2.183834   2.172670   0.000000
     9  C    2.702654   3.416807   3.416477   0.000000
    10  N    4.064221   4.546034   4.545756   1.361573   0.000000
    11  C    5.023019   5.004620   5.004549   2.462517   1.389157
    12  S    6.618222   6.622926   6.622828   3.966382   2.667332
    13  H    4.068482   2.867355   2.868068   3.397019   3.809445
    14  H    2.417382   3.734964   3.734451   1.083334   2.089251
    15  H    4.651369   5.391592   5.391203   2.062399   1.019792
    16  X    1.000000   2.675039   2.675065   1.831733   3.174873
    17  X    1.414214   2.151712   2.151740   1.477095   2.793135
    18  H    2.446343   4.402197   4.402215   4.313456   5.524683
    19  X    2.642838   4.665421   4.665442   3.828421   4.907551
    20  O    3.403543   5.324839   5.324856   5.126971   6.265744
    21  H    3.759515   5.453137   5.810628   5.418330   6.526660
                   11         12         13         14         15
    11  C    0.000000
    12  S    1.651971   0.000000
    13  H    3.454637   4.885889   0.000000
    14  H    3.396789   4.749842   4.338454   0.000000
    15  H    2.026007   2.720986   4.828927   2.353252   0.000000
    16  X    4.261600   5.797539   4.011265   1.417385   3.682792
    17  X    3.630069   5.247889   3.014259   1.731818   3.536255
    18  H    6.771544   8.190473   6.489905   3.442713   5.714373
    19  X    6.227706   7.542841   6.454190   2.831522   4.958002
    20  O    7.561815   8.913576   7.441792   4.178654   6.342188
    21  H    7.820954   9.148733   7.736237   4.473820   6.577914
                   16         17         18         19         20
    16  X    0.000000
    17  X    1.000000   0.000000
    18  H    2.642838   3.588493   0.000000
    19  X    2.446343   3.446343   1.000000   0.000000
    20  O    3.547408   4.515661   0.957200   1.384280   0.000000
    21  H    3.890238   4.839526   1.513901   1.814358   0.957200
                   21
    21  H    0.000000
 Symmetry turned off by external request.
 Stoichiometry    C6H5F4NOS
 Framework group  C1[X(C6H5F4NOS)]
 Deg. of freedom    48
 Full point group                 C1      NOp   1
 Rotational constants (GHZ):      1.0734130      0.3160420      0.2554274
 Standard basis: 6-31G(d) (6D, 7F)
 Integral buffers will be    131072 words long.
 Raffenetti 1 integral format.
 Two-electron integral symmetry is turned off.
   209 basis functions,   408 primitive gaussians,   209 cartesian basis functions
    54 alpha electrons       54 beta electrons
       nuclear repulsion energy       901.1025009822 Hartrees.
 NAtoms=   18 NActive=   18 NUniq=   18 SFac= 7.50D-01 NAtFMM=   80 NAOKFM=F Big=F
 One-electron integrals computed using PRISM.
 NBasis=   209 RedAO= T  NBF=   209
 NBsUse=   209 1.00D-06 NBFU=   209
 Initial guess read from the read-write file.
 B after Tr=     0.000000    0.000000    0.000000
         Rot=    1.000000    0.000000    0.000000    0.000000 Ang=   0.00 deg.
 Harris functional with IExCor=  205 diagonalized for initial guess.
 ExpMin= 1.17D-01 ExpMax= 2.19D+04 ExpMxC= 3.30D+03 IAcc=1 IRadAn=         1 AccDes= 0.00D+00
 HarFok:  IExCor=  205 AccDes= 0.00D+00 IRadAn=         1 IDoV= 1
 ScaDFX=  1.000000  1.000000  1.000000  1.000000
 FoFCou: FMM=F IPFlag=           0 FMFlag=      100000 FMFlg1=           0
         NFxFlg=           0 DoJE=T BraDBF=F KetDBF=T FulRan=T
         Omega=  0.000000  0.000000  1.000000  0.000000  0.000000 ICntrl=     500 IOpCl=  0
         NMat0=    1 NMatS0=    1 NMatT0=    0 NMatD0=    1 NMtDS0=    0 NMtDT0=    0
         I1Cent=           4 NGrid=           0.
 Symmetry not used in FoFCou.
 Requested convergence on RMS density matrix=1.00D-08 within 128 cycles.
 Requested convergence on MAX density matrix=1.00D-06.
 Requested convergence on             energy=1.00D-06.
 No special actions if energy rises.
 Integral accuracy reduced to 1.0D-05 until final iterations.
 Initial convergence to 1.0D-05 achieved.  Increase integral accuracy.
 SCF Done:  E(RHF) =  -1154.67398406     A.U. after    8 cycles
             Convg  =    0.5878D-08             -V/T =  2.0019
 Calling FoFJK, ICntrl=      2127 FMM=F ISym2X=0 I1Cent= 0 IOpClX= 0 NMat=1 NMatS=1 NMatT=0.
 -------------------------------------------------------------------
 Center     Atomic                   Forces (Hartrees/Bohr)
 Number     Number              X              Y              Z
 -------------------------------------------------------------------
      1        9           0.000000000    0.000000000    0.000000000
      2        6           0.000000000    0.000000000    0.000000000
      3        6           0.000000000    0.000000000    0.000000000
      4        6           0.000000000    0.000000000    0.000000000
      5        6           0.000000000    0.000000000    0.000000000
      6        9           0.000000000    0.000000000    0.000000000
      7        9           0.000000000    0.000000000    0.000000000
      8        9           0.000000000    0.000000000    0.000000000
      9        6           0.000000000    0.000000000    0.000000000
     10        7           0.000000000    0.000000000    0.000000000
     11        6           0.000000000    0.000000000    0.000000000
     12       16           0.000000000    0.000000000    0.000000000
     13        1           0.000000000    0.000000000    0.000000000
     14        1           0.000000000    0.000000000    0.000000000
     15        1           0.000000000    0.000000000    0.000000000
     16        1           0.006128573   -0.008730134    0.001327391
     17        8          -0.005923940    0.007946373   -0.011858744
     18        1           0.000036057    0.001343709    0.010473872
 -------------------------------------------------------------------
 Cartesian Forces:  Max     0.011858744 RMS     0.002937349
 -----------------------------------------------------------------------------------------------
                       Internal Coordinate Forces (Hartree/Bohr or radian)
  Cent   Atom   N1       Length/X         N2         Alpha/Y        N3         Beta/Z          J
 -----------------------------------------------------------------------------------------------
      1  F 
      2  C 
      3  C 
      4  C 
      5  C 
      6  F 
      7  F 
      8  F 
      9  C 
     10  N 
     11  C 
     12  S 
     13  H 
     14  H 
     15  H 
         X        6   0.000000(     1)      5   0.000202(     7)      4   0.001091(    13)     0
         X       16   0.000000(     2)      6   0.000000(     8)      5  -0.000125(    14)     0
     16  H        6  -0.000398(     3)     16   0.000202(     9)     17   0.000125(    15)     0
         X       18   0.000000(     4)      6  -0.001932(    10)     16   0.000000(    16)     0
     17  O       18  -0.010930(     5)     19  -0.001932(    11)      6   0.002527(    17)     0
     18  H       20  -0.010439(     6)     18   0.002655(    12)     16   0.001091(    18)     0
 -----------------------------------------------------------------------------------------------
 Internal  Forces:  Max     0.010929862 RMS     0.003741535

 GradGradGradGradGradGradGradGradGradGradGradGradGradGradGradGradGradGrad
 Berny optimization.
 Search for a local minimum.
 Step number   3 out of a maximum of   20
 All quantities printed in internal units (Hartrees-Bohrs-Radians)
 Update second derivatives using D2CorN and points    2    3
 DE= -1.91D-05 DEPred=-1.91D-05 R= 9.96D-01
 SS=  1.41D+00  RLast= 4.48D-02 DXNew= 5.0454D-01 1.3439D-01
 Trust test= 9.96D-01 RLast= 4.48D-02 DXMaxT set to 3.00D-01
 The second derivative matrix:
                          RX       RDUM       ROH      ADUM      AHOH
           RX           0.00120
           RDUM         0.00000   0.00000
           ROH         -0.00020   0.00000   1.12160
           ADUM        -0.00242   0.00000   0.00000   1.64000
           AHOH         0.00020   0.00000   0.00000   0.00000   0.16000
           DDUM         0.00021   0.00000   0.00000  -0.00006   0.00000
           DH1          0.00000   0.00000   0.00000   0.00006   0.00000
           DOH2         0.00018   0.00000   0.00000   0.00010   0.00000
           DH2          0.00021   0.00000   0.00000   0.00000   0.00000
                         DDUM       DH1      DOH2       DH2
           DDUM         0.19798
           DH1         -0.19798   0.19798
           DOH2         0.00000   0.00000   0.30934
           DH2          0.00000   0.00000   0.00000   0.00000
     Eigenvalues ---    0.001201000.000001000.000001000.000001000.00000
     Eigenvalues --- 1000.000001000.000001000.000001000.00000
 RFO step:  Lambda= 0.00000000D+00 EMin= 1.19680829D-03
 Quartic linear search produced a step of  2.00000.
 Variable       Old X    -DE/DX   Delta X   Delta X   Delta X     New X
                                 (Linear)    (Quad)   (Total)
    RX        4.62292  -0.00040  -0.08959   0.00000  -0.08959   4.53333
   RDUM       1.88973   0.00000   0.00000   0.00000   0.00000   1.88973
   ROH        1.80885  -0.02137   0.00000   0.00000   0.00000   1.80885
   ADUM       1.57080  -0.00346   0.00000   0.00000   0.00000   1.57080
   AHOH       1.82422   0.00265   0.00000   0.00000   0.00000   1.82422
   DDUM       0.00000   0.00097   0.00000   0.00000   0.00000   0.00000
   DH1        3.14159   0.00012   0.00000   0.00000   0.00000   3.14159
   DOH2       3.14159   0.00253   0.00000   0.00000   0.00000   3.14159
   DH2        1.57080   0.00109   0.00000   0.00000   0.00000   1.57080
         Item               Value     Threshold  Converged?
 Maximum Force            0.000398     0.000450     YES
 RMS     Force            0.000398     0.000300     NO 
 Maximum Displacement     0.089591     0.001800     NO 
 RMS     Displacement     0.029864     0.001200     NO 
 Predicted change in Energy=-3.084876D-05
 GradGradGradGradGradGradGradGradGradGradGradGradGradGradGradGradGradGrad

 ---------------------------------------------------------------------------------------------------
                            Z-MATRIX (ANGSTROMS AND DEGREES)
   CD    Cent   Atom    N1       Length/X        N2       Alpha/Y        N3        Beta/Z          J
 ---------------------------------------------------------------------------------------------------
      1      1  F       -1  -1.969300          2.053680          0.000070
      2      2  C       -1  -1.222250          0.944230          0.000030
      3      3  C       -1   0.140030          1.057400         -0.000020
      4      4  C       -1   0.927950         -0.123640         -0.000080
      5      5  C       -1   2.414660         -0.018650         -0.000010
      6      6  F       -1   3.007080         -1.234610         -0.000560
      7      7  F       -1   2.858290          0.654480         -1.086020
      8      8  F       -1   2.858270          0.653500          1.086650
      9      9  C       -1   0.306540         -1.341490         -0.000090
     10     10  N       -1  -1.054170         -1.389970         -0.000060
     11     11  C       -1  -1.930500         -0.312100          0.000000
     12     12  S       -1  -3.570980         -0.506610          0.000030
     13     13  H       -1   0.596860          2.043100         -0.000020
     14     14  H       -1   0.831760         -2.288990         -0.000150
     15     15  H       -1  -1.521480         -2.296390         -0.000090
     16         X        6   1.000000(    15)      5   90.000(    34)      4    0.000(    52)      0
     17         X       16   1.000000(    16)      6   90.000(    35)      5    0.000(    53)      0
     18     16  H        6   2.398934(    17)     16   90.000(    36)     17  180.000(    54)      0
     19         X       18   1.000000(    18)      6   90.000(    37)     16    0.000(    55)      0
     20     17  O       18   0.957200(    19)     19   90.000(    38)      6  180.000(    56)      0
     21     18  H       20   0.957200(    20)     18  104.520(    39)     16   90.000(    57)      0
 ---------------------------------------------------------------------------------------------------
                         Z-Matrix orientation:                         
 ---------------------------------------------------------------------
 Center     Atomic      Atomic             Coordinates (Angstroms)
 Number     Number       Type             X           Y           Z
 ---------------------------------------------------------------------
      1          9           0       -1.969300    2.053680    0.000070
      2          6           0       -1.222250    0.944230    0.000030
      3          6           0        0.140030    1.057400   -0.000020
      4          6           0        0.927950   -0.123640   -0.000080
      5          6           0        2.414660   -0.018650   -0.000010
      6          9           0        3.007080   -1.234610   -0.000560
      7          9           0        2.858290    0.654480   -1.086020
      8          9           0        2.858270    0.653500    1.086650
      9          6           0        0.306540   -1.341490   -0.000090
     10          7           0       -1.054170   -1.389970   -0.000060
     11          6           0       -1.930500   -0.312100    0.000000
     12         16           0       -3.570980   -0.506610    0.000030
     13          1           0        0.596860    2.043100   -0.000020
     14          1           0        0.831760   -2.288990   -0.000150
     15          1           0       -1.521480   -2.296390   -0.000090
     16         -1           0        2.108099   -1.672597   -0.000774
     17         -1           0        1.670112   -0.773616   -0.000368
     18          1           0        4.057781   -3.391206   -0.001535
     19         -1           0        3.158800   -3.829193   -0.001750
     20          8           0        4.477022   -4.251711   -0.001925
     21          1           0        4.582147   -4.467029   -0.928649
 ---------------------------------------------------------------------
                    Distance matrix (angstroms):
                    1          2          3          4          5
     1  F    0.000000
     2  C    1.337521   0.000000
     3  C    2.332777   1.366973   0.000000
     4  C    3.624194   2.400772   1.419744   0.000000
     5  C    4.849088   3.762214   2.516312   1.490413   0.000000
     6  F    5.964663   4.757581   3.670597   2.357337   1.352598
     7  F    5.142274   4.232525   2.954772   2.347541   1.352527
     8  F    5.142625   4.232719   2.955134   2.347566   1.352555
     9  C    4.087374   2.749857   2.404662   1.367227   2.488790
    10  N    3.563171   2.340244   2.723184   2.352104   3.730054
    11  C    2.366098   1.442215   2.482463   2.864656   4.355058
    12  S    3.020011   2.760701   4.027123   4.515201   6.005497
    13  H    2.566182   2.125247   1.086415   2.191890   2.748674
    14  H    5.167661   3.830492   3.417136   2.167485   2.767673
    15  H    4.373060   3.254406   3.742796   3.274225   4.547669
    16  X    5.523615   4.235446   3.365439   1.947311   1.682118
    17  X    4.608570   3.364038   2.386162   0.986546   1.060342
    18  H    8.122346   6.831891   5.927805   4.524692   3.751531
    19  X    7.804205   6.479133   5.743846   4.325254   3.882523
    20  O    9.017374   7.712296   6.855375   5.443977   4.708731
    21  H    9.289975   7.989693   7.149411   5.751559   5.034725
                    6          7          8          9         10
     6  F    0.000000
     7  F    2.183809   0.000000
     8  F    2.183834   2.172670   0.000000
     9  C    2.702654   3.416807   3.416477   0.000000
    10  N    4.064221   4.546034   4.545756   1.361573   0.000000
    11  C    5.023019   5.004620   5.004549   2.462517   1.389157
    12  S    6.618222   6.622926   6.622828   3.966382   2.667332
    13  H    4.068482   2.867355   2.868068   3.397019   3.809445
    14  H    2.417382   3.734964   3.734451   1.083334   2.089251
    15  H    4.651369   5.391592   5.391203   2.062399   1.019792
    16  X    1.000000   2.675039   2.675065   1.831733   3.174873
    17  X    1.414214   2.151712   2.151740   1.477095   2.793135
    18  H    2.398934   4.356887   4.356905   4.274711   5.489717
    19  X    2.599016   4.622691   4.622712   3.784714   4.868154
    20  O    3.356134   5.278851   5.278868   5.085500   6.227652
    21  H    3.713586   5.406136   5.766542   5.376991   6.488347
                   11         12         13         14         15
    11  C    0.000000
    12  S    1.651971   0.000000
    13  H    3.454637   4.885889   0.000000
    14  H    3.396789   4.749842   4.338454   0.000000
    15  H    2.026007   2.720986   4.828927   2.353252   0.000000
    16  X    4.261600   5.797539   4.011265   1.417385   3.682792
    17  X    3.630069   5.247889   3.014259   1.731818   3.536255
    18  H    6.733529   8.155912   6.442799   3.409120   5.685665
    19  X    6.186350   7.505298   6.406822   2.790581   4.924887
    20  O    7.521761   8.876718   7.394614   4.140074   6.309145
    21  H    7.780771   9.111578   7.689386   4.435242   6.544323
                   16         17         18         19         20
    16  X    0.000000
    17  X    1.000000   0.000000
    18  H    2.599016   3.542986   0.000000
    19  X    2.398934   3.398934   1.000000   0.000000
    20  O    3.501947   4.469441   0.957200   1.384280   0.000000
    21  H    3.845871   4.794055   1.513901   1.814358   0.957200
                   21
    21  H    0.000000
 Symmetry turned off by external request.
 Stoichiometry    C6H5F4NOS
 Framework group  C1[X(C6H5F4NOS)]
 Deg. of freedom    48
 Full point group                 C1      NOp   1
 Rotational constants (GHZ):      1.0806182      0.3172110      0.2565988
 Standard basis: 6-31G(d) (6D, 7F)
 Integral buffers will be    131072 words long.
 Raffenetti 1 integral format.
 Two-electron integral symmetry is turned off.
   209 basis functions,   408 primitive gaussians,   209 cartesian basis functions
    54 alpha electrons       54 beta electrons
       nuclear repulsion energy       901.8495792714 Hartrees.
 NAtoms=   18 NActive=   18 NUniq=   18 SFac= 7.50D-01 NAtFMM=   80 NAOKFM=F Big=F
 One-electron integrals computed using PRISM.
 NBasis=   209 RedAO= T  NBF=   209
 NBsUse=   209 1.00D-06 NBFU=   209
 Initial guess read from the read-write file.
 B after Tr=     0.000000    0.000000    0.000000
         Rot=    1.000000    0.000000    0.000000    0.000000 Ang=   0.00 deg.
 Harris functional with IExCor=  205 diagonalized for initial guess.
 ExpMin= 1.17D-01 ExpMax= 2.19D+04 ExpMxC= 3.30D+03 IAcc=1 IRadAn=         1 AccDes= 0.00D+00
 HarFok:  IExCor=  205 AccDes= 0.00D+00 IRadAn=         1 IDoV= 1
 ScaDFX=  1.000000  1.000000  1.000000  1.000000
 FoFCou: FMM=F IPFlag=           0 FMFlag=      100000 FMFlg1=           0
         NFxFlg=           0 DoJE=T BraDBF=F KetDBF=T FulRan=T
         Omega=  0.000000  0.000000  1.000000  0.000000  0.000000 ICntrl=     500 IOpCl=  0
         NMat0=    1 NMatS0=    1 NMatT0=    0 NMatD0=    1 NMtDS0=    0 NMtDT0=    0
         I1Cent=           4 NGrid=           0.
 Symmetry not used in FoFCou.
 Requested convergence on RMS density matrix=1.00D-08 within 128 cycles.
 Requested convergence on MAX density matrix=1.00D-06.
 Requested convergence on             energy=1.00D-06.
 No special actions if energy rises.
 Integral accuracy reduced to 1.0D-05 until final iterations.
 Initial convergence to 1.0D-05 achieved.  Increase integral accuracy.
 SCF Done:  E(RHF) =  -1154.67401417     A.U. after    9 cycles
             Convg  =    0.6060D-08             -V/T =  2.0019
 Calling FoFJK, ICntrl=      2127 FMM=F ISym2X=0 I1Cent= 0 IOpClX= 0 NMat=1 NMatS=1 NMatT=0.
 -------------------------------------------------------------------
 Center     Atomic                   Forces (Hartrees/Bohr)
 Number     Number              X              Y              Z
 -------------------------------------------------------------------
      1        9           0.000000000    0.000000000    0.000000000
      2        6           0.000000000    0.000000000    0.000000000
      3        6           0.000000000    0.000000000    0.000000000
      4        6           0.000000000    0.000000000    0.000000000
      5        6           0.000000000    0.000000000    0.000000000
      6        9           0.000000000    0.000000000    0.000000000
      7        9           0.000000000    0.000000000    0.000000000
      8        9           0.000000000    0.000000000    0.000000000
      9        6           0.000000000    0.000000000    0.000000000
     10        7           0.000000000    0.000000000    0.000000000
     11        6           0.000000000    0.000000000    0.000000000
     12       16           0.000000000    0.000000000    0.000000000
     13        1           0.000000000    0.000000000    0.000000000
     14        1           0.000000000    0.000000000    0.000000000
     15        1           0.000000000    0.000000000    0.000000000
     16        1           0.006241667   -0.008839715    0.001348766
     17        8          -0.005992444    0.007948887   -0.011890043
     18        1           0.000055190    0.001338483    0.010484661
 -------------------------------------------------------------------
 Cartesian Forces:  Max     0.011890043 RMS     0.002953680
 -----------------------------------------------------------------------------------------------
                       Internal Coordinate Forces (Hartree/Bohr or radian)
  Cent   Atom   N1       Length/X         N2         Alpha/Y        N3         Beta/Z          J
 -----------------------------------------------------------------------------------------------
      1  F 
      2  C 
      3  C 
      4  C 
      5  C 
      6  F 
      7  F 
      8  F 
      9  C 
     10  N 
     11  C 
     12  S 
     13  H 
     14  H 
     15  H 
         X        6   0.000000(     1)      5   0.000121(     7)      4   0.001117(    13)     0
         X       16   0.000000(     2)      6   0.000000(     8)      5  -0.000125(    14)     0
     16  H        6  -0.000269(     3)     16   0.000121(     9)     17   0.000125(    15)     0
         X       18   0.000000(     4)      6  -0.002008(    10)     16   0.000000(    16)     0
     17  O       18  -0.010949(     5)     19  -0.002008(    11)      6   0.002548(    17)     0
     18  H       20  -0.010446(     6)     18   0.002682(    12)     16   0.001117(    18)     0
 -----------------------------------------------------------------------------------------------
 Internal  Forces:  Max     0.010949040 RMS     0.003751871

 GradGradGradGradGradGradGradGradGradGradGradGradGradGradGradGradGradGrad
 Berny optimization.
 Search for a local minimum.
 Step number   4 out of a maximum of   20
 All quantities printed in internal units (Hartrees-Bohrs-Radians)
 Update second derivatives using D2CorN and points    3    4
 DE= -3.01D-05 DEPred=-3.08D-05 R= 9.76D-01
 SS=  1.41D+00  RLast= 8.96D-02 DXNew= 5.0454D-01 2.6877D-01
 Trust test= 9.76D-01 RLast= 8.96D-02 DXMaxT set to 3.00D-01
 The second derivative matrix:
                          RX       RDUM       ROH      ADUM      AHOH
           RX           0.00144
           RDUM         0.00000   0.00000
           ROH         -0.00025   0.00000   1.12160
           ADUM        -0.00295   0.00000   0.00000   1.64000
           AHOH         0.00025   0.00000   0.00000   0.00000   0.16000
           DDUM         0.00025   0.00000   0.00000  -0.00006   0.00000
           DH1          0.00000   0.00000   0.00000   0.00006   0.00000
           DOH2         0.00020   0.00000   0.00000   0.00010   0.00000
           DH2          0.00025   0.00000   0.00000   0.00000   0.00000
                         DDUM       DH1      DOH2       DH2
           DDUM         0.19798
           DH1         -0.19798   0.19798
           DOH2         0.00000   0.00000   0.30934
           DH2          0.00000   0.00000   0.00000   0.00000
     Eigenvalues ---    0.001441000.000001000.000001000.000001000.00000
     Eigenvalues --- 1000.000001000.000001000.000001000.00000
 RFO step:  Lambda= 0.00000000D+00 EMin= 1.43831122D-03
 Quartic linear search produced a step of  1.56703.
 Variable       Old X    -DE/DX   Delta X   Delta X   Delta X     New X
                                 (Linear)    (Quad)   (Total)
    RX        4.53333  -0.00027  -0.14039   0.00000  -0.14039   4.39294
   RDUM       1.88973   0.00000   0.00000   0.00000   0.00000   1.88973
   ROH        1.80885  -0.02139   0.00000   0.00000   0.00000   1.80885
   ADUM       1.57080  -0.00377   0.00000   0.00000   0.00000   1.57080
   AHOH       1.82422   0.00268   0.00000   0.00000   0.00000   1.82422
   DDUM       0.00000   0.00099   0.00000   0.00000   0.00000   0.00000
   DH1        3.14159   0.00012   0.00000   0.00000   0.00000   3.14159
   DOH2       3.14159   0.00255   0.00000   0.00000   0.00000   3.14159
   DH2        1.57080   0.00112   0.00000   0.00000   0.00000   1.57080
         Item               Value     Threshold  Converged?
 Maximum Force            0.000269     0.000450     YES
 RMS     Force            0.000269     0.000300     YES
 Maximum Displacement     0.140391     0.001800     NO 
 RMS     Displacement     0.046797     0.001200     NO 
 Predicted change in Energy=-2.360235D-05
 GradGradGradGradGradGradGradGradGradGradGradGradGradGradGradGradGradGrad

 ---------------------------------------------------------------------------------------------------
                            Z-MATRIX (ANGSTROMS AND DEGREES)
   CD    Cent   Atom    N1       Length/X        N2       Alpha/Y        N3        Beta/Z          J
 ---------------------------------------------------------------------------------------------------
[...]
      5      5  C       -1   2.414660         -0.018650         -0.000010
      6      6  F       -1   3.007080         -1.234610         -0.000560
      7      7  F       -1   2.858290          0.654480         -1.086020
      8      8  F       -1   2.858270          0.653500          1.086650
      9      9  C       -1   0.306540         -1.341490         -0.000090
     10     10  N       -1  -1.054170         -1.389970         -0.000060
     11     11  C       -1  -1.930500         -0.312100          0.000000
     12     12  S       -1  -3.570980         -0.506610          0.000030
     13     13  H       -1   0.596860          2.043100         -0.000020
     14     14  H       -1   0.831760         -2.288990         -0.000150
     15     15  H       -1  -1.521480         -2.296390         -0.000090
     16         X        6   1.000000(    15)      5   90.000(    34)      4    0.000(    52)      0
     17         X       16   1.000000(    16)      6   90.000(    35)      5    0.000(    53)      0
     18     16  H        6   2.325741(    17)     16   90.000(    36)     17  180.000(    54)      0
     19         X       18   1.000000(    18)      6   90.000(    37)     16    0.000(    55)      0
     20     17  O       18   0.957200(    19)     19   90.000(    38)      6  180.000(    56)      0
     21     18  H       20   0.957200(    20)     18  104.520(    39)     16   90.000(    57)      0
 ---------------------------------------------------------------------------------------------------
                         Z-Matrix orientation:                         
 ---------------------------------------------------------------------
 Center     Atomic      Atomic             Coordinates (Angstroms)
 Number     Number       Type             X           Y           Z
 ---------------------------------------------------------------------
      1          9           0       -1.969300    2.053680    0.000070
      2          6           0       -1.222250    0.944230    0.000030
      3          6           0        0.140030    1.057400   -0.000020
      4          6           0        0.927950   -0.123640   -0.000080
      5          6           0        2.414660   -0.018650   -0.000010
      6          9           0        3.007080   -1.234610   -0.000560
      7          9           0        2.858290    0.654480   -1.086020
      8          9           0        2.858270    0.653500    1.086650
      9          6           0        0.306540   -1.341490   -0.000090
     10          7           0       -1.054170   -1.389970   -0.000060
     11          6           0       -1.930500   -0.312100    0.000000
     12         16           0       -3.570980   -0.506610    0.000030
     13          1           0        0.596860    2.043100   -0.000020
     14          1           0        0.831760   -2.288990   -0.000150
     15          1           0       -1.521480   -2.296390   -0.000090
     16         -1           0        2.108099   -1.672597   -0.000774
     17         -1           0        1.670112   -0.773616   -0.000368
     18          1           0        4.025724   -3.325407   -0.001506
     19         -1           0        3.126742   -3.763394   -0.001720
     20          8           0        4.444965   -4.185912   -0.001895
     21          1           0        4.550090   -4.401230   -0.928620
 ---------------------------------------------------------------------
                    Distance matrix (angstroms):
                    1          2          3          4          5
     1  F    0.000000
     2  C    1.337521   0.000000
     3  C    2.332777   1.366973   0.000000
     4  C    3.624194   2.400772   1.419744   0.000000
     5  C    4.849088   3.762214   2.516312   1.490413   0.000000
     6  F    5.964663   4.757581   3.670597   2.357337   1.352598
     7  F    5.142274   4.232525   2.954772   2.347541   1.352527
     8  F    5.142625   4.232719   2.955134   2.347566   1.352555
     9  C    4.087374   2.749857   2.404662   1.367227   2.488790
    10  N    3.563171   2.340244   2.723184   2.352104   3.730054
    11  C    2.366098   1.442215   2.482463   2.864656   4.355058
    12  S    3.020011   2.760701   4.027123   4.515201   6.005497
    13  H    2.566182   2.125247   1.086415   2.191890   2.748674
    14  H    5.167661   3.830492   3.417136   2.167485   2.767673
    15  H    4.373060   3.254406   3.742796   3.274225   4.547669
    16  X    5.523615   4.235446   3.365439   1.947311   1.682118
    17  X    4.608570   3.364038   2.386162   0.986546   1.060342
    18  H    8.054495   6.765429   5.857271   4.455055   3.678338
    19  X    7.733563   6.409014   5.671024   4.252352   3.811846
    20  O    8.948481   7.644324   6.784157   5.373216   4.635538
    21  H    9.221213   7.921884   7.078670   5.681537   4.962800
                    6          7          8          9         10
     6  F    0.000000
     7  F    2.183809   0.000000
     8  F    2.183834   2.172670   0.000000
     9  C    2.702654   3.416807   3.416477   0.000000
    10  N    4.064221   4.546034   4.545756   1.361573   0.000000
    11  C    5.023019   5.004620   5.004549   2.462517   1.389157
    12  S    6.618222   6.622926   6.622828   3.966382   2.667332
    13  H    4.068482   2.867355   2.868068   3.397019   3.809445
    14  H    2.417382   3.734964   3.734451   1.083334   2.089251
    15  H    4.651369   5.391592   5.391203   2.062399   1.019792
    16  X    1.000000   2.675039   2.675065   1.831733   3.174873
    17  X    1.414214   2.151712   2.151740   1.477095   2.793135
    18  H    2.325741   4.287024   4.287043   4.215241   5.436105
    19  X    2.531614   4.556905   4.556927   3.717414   4.807616
    20  O    3.282941   5.207904   5.207921   5.021683   6.169099
    21  H    3.642754   5.333589   5.698584   5.313369   6.429435
                   11         12         13         14         15
    11  C    0.000000
    12  S    1.651971   0.000000
    13  H    3.454637   4.885889   0.000000
    14  H    3.396789   4.749842   4.338454   0.000000
    15  H    2.026007   2.720986   4.828927   2.353252   0.000000
    16  X    4.261600   5.797539   4.011265   1.417385   3.682792
    17  X    3.630069   5.247889   3.014259   1.731818   3.536255
    18  H    6.675075   8.102810   6.370085   3.357911   5.641839
    19  X    6.122674   7.447559   6.333694   2.727786   4.874226
    20  O    7.460092   8.820014   7.321783   4.080878   6.258495
    21  H    7.718897   9.054404   7.617067   4.376025   6.492802
                   16         17         18         19         20
    16  X    0.000000
    17  X    1.000000   0.000000
    18  H    2.531614   3.472830   0.000000
    19  X    2.325741   3.325741   1.000000   0.000000
    20  O    3.431865   4.398134   0.957200   1.384280   0.000000
    21  H    3.777520   4.723930   1.513901   1.814358   0.957200
                   21
    21  H    0.000000
 Symmetry turned off by external request.
 Stoichiometry    C6H5F4NOS
 Framework group  C1[X(C6H5F4NOS)]
 Deg. of freedom    48
 Full point group                 C1      NOp   1
 Rotational constants (GHZ):      1.0919242      0.3190042      0.2584092

 **********************************************************************

            Population analysis using the SCF density.

 **********************************************************************

 Alpha  occ. eigenvalues --  -91.90714 -26.38323 -26.36613 -26.36508 -26.33680
 Alpha  occ. eigenvalues --  -20.56545 -15.68987 -11.55024 -11.38083 -11.37466
 Alpha  occ. eigenvalues --  -11.36533 -11.31510 -11.30751  -8.91801  -6.60129
 Alpha  occ. eigenvalues --   -6.59853  -6.59726  -1.75044  -1.66265  -1.65037
 Alpha  occ. eigenvalues --   -1.64928  -1.35830  -1.34742  -1.17525  -1.12365
 Alpha  occ. eigenvalues --   -1.03531  -0.97648  -0.93121  -0.88586  -0.85398
 Alpha  occ. eigenvalues --   -0.84744  -0.84148  -0.77392  -0.76333  -0.74208
 Alpha  occ. eigenvalues --   -0.73155  -0.72520  -0.71551  -0.71192  -0.70600
 Alpha  occ. eigenvalues --   -0.68477  -0.68394  -0.66852  -0.64349  -0.62808
 Alpha  occ. eigenvalues --   -0.61217  -0.59799  -0.57631  -0.52819  -0.50352
 Alpha  occ. eigenvalues --   -0.46902  -0.43539  -0.34335  -0.31245
 Alpha virt. eigenvalues --    0.04211   0.08392   0.17061   0.20038   0.24266
 Alpha virt. eigenvalues --    0.25050   0.26074   0.26206   0.29055   0.32549
 Alpha virt. eigenvalues --    0.33542   0.35002   0.39897   0.40007   0.42338
 Alpha virt. eigenvalues --    0.43110   0.46362   0.49245   0.53859   0.55426
 Alpha virt. eigenvalues --    0.56483   0.59493   0.60935   0.64145   0.66308
 Alpha virt. eigenvalues --    0.67297   0.71637   0.72729   0.73118   0.75083
 Alpha virt. eigenvalues --    0.76836   0.77602   0.82614   0.84178   0.87218
 Alpha virt. eigenvalues --    0.88729   0.89738   0.91850   0.95407   0.99512
 Alpha virt. eigenvalues --    1.00341   1.02215   1.03671   1.04380   1.07254
 Alpha virt. eigenvalues --    1.08975   1.09423   1.11998   1.14311   1.14959
 Alpha virt. eigenvalues --    1.15686   1.16308   1.17279   1.17896   1.24202
 Alpha virt. eigenvalues --    1.27691   1.30618   1.31132   1.32268   1.32687
 Alpha virt. eigenvalues --    1.34620   1.36910   1.39976   1.41466   1.41821
 Alpha virt. eigenvalues --    1.43487   1.47083   1.51765   1.59876   1.59985
 Alpha virt. eigenvalues --    1.60653   1.63044   1.63659   1.63831   1.64252
 Alpha virt. eigenvalues --    1.66120   1.67192   1.68546   1.69382   1.70671
 Alpha virt. eigenvalues --    1.72725   1.75939   1.77760   1.83763   1.87012
 Alpha virt. eigenvalues --    1.89210   1.91703   1.93626   1.99775   2.01536
 Alpha virt. eigenvalues --    2.02803   2.03987   2.05542   2.06203   2.08542
 Alpha virt. eigenvalues --    2.09768   2.11764   2.11940   2.17703   2.19932
 Alpha virt. eigenvalues --    2.22029   2.22071   2.24129   2.27892   2.29264
 Alpha virt. eigenvalues --    2.30096   2.31932   2.33390   2.34106   2.35479
 Alpha virt. eigenvalues --    2.37550   2.38886   2.42961   2.44657   2.45292
 Alpha virt. eigenvalues --    2.46501   2.51862   2.60279   2.61635   2.62837
 Alpha virt. eigenvalues --    2.65088   2.67846   2.74616   2.82489   2.84182
 Alpha virt. eigenvalues --    2.84279   2.90837   2.92490   2.92956   2.94229
 Alpha virt. eigenvalues --    2.99945   3.06562   3.09281   3.16781   3.21644
 Alpha virt. eigenvalues --    3.29256   3.36755   3.38891   3.42612   3.44546
 Alpha virt. eigenvalues --    3.49023   3.70856   4.02286   4.36145   4.39785
 Alpha virt. eigenvalues --    4.45256   4.48076   4.59782   4.64691   4.68109
 Alpha virt. eigenvalues --    4.82010   5.00927   5.19319   5.57947   6.04220
          Condensed to atoms (all electrons):
              1          2          3          4          5          6
     1  F    9.158987   0.267905  -0.033655   0.002215  -0.000015   0.000000
     2  C    0.267905   4.576004   0.569571  -0.025752   0.000877  -0.000019
     3  C   -0.033655   0.569571   5.066327   0.354014  -0.012928   0.002130
     4  C    0.002215  -0.025752   0.354014   5.202122   0.420677  -0.044022
     5  C   -0.000015   0.000877  -0.012928   0.420677   3.553729   0.277672
     6  F    0.000000  -0.000019   0.002130  -0.044022   0.277672   9.197438
     7  F    0.000000   0.000291   0.004958  -0.055354   0.285236  -0.030237
     8  F    0.000000   0.000291   0.004940  -0.055369   0.286286  -0.030235
     9  C    0.000134  -0.023426  -0.053034   0.589603  -0.021120   0.005566
    10  N    0.001382  -0.053062  -0.021400  -0.035054   0.001170   0.000231
    11  C   -0.040751   0.377089  -0.078869  -0.001378   0.000073   0.000002
    12  S    0.003501  -0.083500   0.001593  -0.000050   0.000006   0.000000
    13  H   -0.000277  -0.017130   0.368642  -0.030345  -0.000302   0.000036
    14  H    0.000000  -0.000133   0.001872  -0.024151  -0.000132   0.004674
    15  H   -0.000018   0.003850  -0.000576   0.002342  -0.000016   0.000001
    16  H    0.000000   0.000000  -0.000001   0.000011   0.000124   0.008774
    17  O    0.000000   0.000000   0.000000   0.000001   0.000006  -0.000813
    18  H    0.000000   0.000000   0.000000   0.000000   0.000000  -0.000022
              7          8          9         10         11         12
     1  F    0.000000   0.000000   0.000134   0.001382  -0.040751   0.003501
     2  C    0.000291   0.000291  -0.023426  -0.053062   0.377089  -0.083500
     3  C    0.004958   0.004940  -0.053034  -0.021400  -0.078869   0.001593
     4  C   -0.055354  -0.055369   0.589603  -0.035054  -0.001378  -0.000050
     5  C    0.285236   0.286286  -0.021120   0.001170   0.000073   0.000006
     6  F   -0.030237  -0.030235   0.005566   0.000231   0.000002   0.000000
     7  F    9.199023  -0.034028   0.000491  -0.000006  -0.000002   0.000000
     8  F   -0.034028   9.196306   0.000506  -0.000006  -0.000002   0.000000
     9  C    0.000491   0.000506   4.733896   0.268254  -0.038360   0.003340
    10  N   -0.000006  -0.000006   0.268254   7.233721   0.211520  -0.104396
    11  C   -0.000002  -0.000002  -0.038360   0.211520   4.956474   0.447334
    12  S    0.000000   0.000000   0.003340  -0.104396   0.447334  15.944630
    13  H    0.000893   0.000890   0.002419  -0.000264   0.002627  -0.000055
    14  H    0.000077   0.000078   0.380004  -0.031637   0.000998  -0.000133
    15  H    0.000000   0.000000  -0.021335   0.309690  -0.017800   0.013679
    16  H    0.000012   0.000012  -0.000020   0.000000   0.000000   0.000000
    17  O    0.000000   0.000000  -0.000025   0.000000   0.000000   0.000000
    18  H    0.000000   0.000000   0.000000   0.000000   0.000000   0.000000
             13         14         15         16         17         18
     1  F   -0.000277   0.000000  -0.000018   0.000000   0.000000   0.000000
     2  C   -0.017130  -0.000133   0.003850   0.000000   0.000000   0.000000
     3  C    0.368642   0.001872  -0.000576  -0.000001   0.000000   0.000000
     4  C   -0.030345  -0.024151   0.002342   0.000011   0.000001   0.000000
     5  C   -0.000302  -0.000132  -0.000016   0.000124   0.000006   0.000000
     6  F    0.000036   0.004674   0.000001   0.008774  -0.000813  -0.000022
     7  F    0.000893   0.000077   0.000000   0.000012   0.000000   0.000000
     8  F    0.000890   0.000078   0.000000   0.000012   0.000000   0.000000
     9  C    0.002419   0.380004  -0.021335  -0.000020  -0.000025   0.000000
    10  N   -0.000264  -0.031637   0.309690   0.000000   0.000000   0.000000
    11  C    0.002627   0.000998  -0.017800   0.000000   0.000000   0.000000
    12  S   -0.000055  -0.000133   0.013679   0.000000   0.000000   0.000000
    13  H    0.391751  -0.000062   0.000008   0.000000   0.000000   0.000000
    14  H   -0.000062   0.384561  -0.002148   0.000156   0.000134   0.000000
    15  H    0.000008  -0.002148   0.269427   0.000000   0.000000   0.000000
    16  H    0.000000   0.000156   0.000000   0.310623   0.261731  -0.018478
    17  O    0.000000   0.000134   0.000000   0.261731   8.351583   0.265584
    18  H    0.000000   0.000000   0.000000  -0.018478   0.265584   0.320828
 Mulliken atomic charges:
              1
     1  F   -0.359408
     2  C    0.407146
     3  C   -0.173586
     4  C   -0.299509
     5  C    1.208657
     6  F   -0.391178
     7  F   -0.371355
     8  F   -0.369671
     9  C    0.173107
    10  N   -0.780143
    11  C    0.181045
    12  S   -0.225949
    13  H    0.281169
    14  H    0.285841
    15  H    0.442894
    16  H    0.437054
    17  O   -0.878201
    18  H    0.432087
 Sum of Mulliken atomic charges =   0.00000
 Mulliken charges with hydrogens summed into heavy atoms:
              1
     1  F   -0.359408
     2  C    0.407146
     3  C    0.107583
     4  C   -0.299509
     5  C    1.208657
     6  F   -0.391178
     7  F   -0.371355
     8  F   -0.369671
     9  C    0.458948
    10  N   -0.337249
    11  C    0.181045
    12  S   -0.225949
    17  O   -0.009059
 Sum of Mulliken charges with hydrogens summed into heavy atoms =   0.00000
 Electronic spatial extent (au):  <R**2>=           3964.5393
 Charge=              0.0000 electrons
 Dipole moment (field-independent basis, Debye):
    X=              2.6768    Y=             -1.1959    Z=             -1.7165  Tot=              3.3973
 Quadrupole moment (field-independent basis, Debye-Ang):
   XX=           -111.0867   YY=            -80.6176   ZZ=            -80.1911
   XY=              9.6959   XZ=             -8.0378   YZ=              7.9103
 Traceless Quadrupole moment (field-independent basis, Debye-Ang):
   XX=            -20.4549   YY=             10.0142   ZZ=             10.4406
   XY=              9.6959   XZ=             -8.0378   YZ=              7.9103
 Octapole moment (field-independent basis, Debye-Ang**2):
  XXX=            -25.4070  YYY=            123.5244  ZZZ=             -0.4206  XYY=            -50.8581
  XXY=             71.9441  XXZ=            -36.6109  XZZ=             -4.9697  YZZ=             24.6484
  YYZ=            -35.2454  XYZ=             36.4469
 Hexadecapole moment (field-independent basis, Debye-Ang**3):
 XXXX=          -3683.9088 YYYY=          -1370.0596 ZZZZ=           -142.9463 XXXY=            540.6600
 XXXZ=           -165.6687 YYYX=            578.3429 YYYZ=            155.2472 ZZZX=             -2.1947
 ZZZY=              2.2961 XXYY=           -966.0568 XXZZ=           -539.6326 YYZZ=           -194.6214
 XXYZ=            165.8851 YYXZ=           -162.1442 ZZXY=             72.1566
 N-N= 9.030309249038D+02 E-N=-4.543413276747D+03  KE= 1.152539913937D+03
 1\1\GINC-B1\FOpt\RHF\6-31G(d)\C6H5F4N1O1S1\ANA\24-Sep-2021\1\\#HF/6-31
 G* Opt=Z-matrix NoSymm\\water interaction with atom F6\\0,1\F,-1,-1.96
 93,2.05368,0.00007\C,-1,-1.22225,0.94423,0.00003\C,-1,0.14003,1.0574,-
 0.00002\C,-1,0.92795,-0.12364,-0.00008\C,-1,2.41466,-0.01865,-0.00001\
 F,-1,3.00708,-1.23461,-0.00056\F,-1,2.85829,0.65448,-1.08602\F,-1,2.85
 827,0.6535,1.08665\C,-1,0.30654,-1.34149,-0.00009\N,-1,-1.05417,-1.389
 97,-0.00006\C,-1,-1.9305,-0.3121,0.\S,-1,-3.57098,-0.50661,0.00003\H,-
 1,0.59686,2.0431,-0.00002\H,-1,0.83176,-2.28899,-0.00015\H,-1,-1.52148
 ,-2.29639,-0.00009\X,6,RDUM,5,ADUM,4,DDUM,0\X,16,RDUM,6,ADUM,5,DDUM,0\
 H,6,RX,16,ADUM,17,DH1,0\X,18,RDUM,6,ADUM,16,DDUM,0\O,18,ROH,19,ADUM,6,
 DOH2,0\H,20,ROH,18,AHOH,16,DH2,0\\RX=2.3257406\RDUM=1.\ROH=0.9572\ADUM
 =90.\AHOH=104.52\DDUM=0.\DH1=180.\DOH2=180.\DH2=90.\\Version=EM64L-G09
 RevA.01\HF=-1154.6740339\RMSD=9.747e-09\RMSF=2.985e-03\Dipole=1.053120
 7,-0.4705195,-0.6753097\Quadrupole=-15.2076946,7.4453294,7.7623651,7.2
 08674,-5.9758986,5.8811009\PG=C01 [X(C6H5F4N1O1S1)]\\@


 A ROPE OVER THE TOP OF A FENCE HAS THE SAME LENGTH ON EACH SIDE.
 WEIGHS 1/3 POUND PER FOOT.  ON ONE END HANGS A MONKEY HOLDING A
 BANANA, AND ON THE OTHER END A WEIGHT EQUAL TO THE WEIGHT
 OF THE MONKEY.  THE BANANA WEIGHS TWO OUNCES PER INCH.
 THE ROPE IS AS LONG AS THE AGE OF THE MONKEY, 
 AND THE WEIGHT OF THE MONKEY (IN OUNCES) IS AS MUCH
 AS THE AGE OF THE MONKEY'S MOTHER.  THE COMBINED AGES OF MONKEY
 AND MOTHER ARE THIRTY YEARS.  HALF THE WEIGHT OF THE MONKEY,
  PLUS THE WEIGHT OF THE BANANA, IS ONE FOURTH AS MUCH AS THE WEIGHT
 OF THE WEIGHT AND THE ROPE.
 THE MONKEY'S MOTHER IS HALF AS OLD AS THE MONKEY WILL BE
 WHEN IT IS 3 TIMES AS OLD AS ITS MOTHER WAS WHEN
 SHE WAS HALF AS OLD AS THE MONKEY WILL BE WHEN IT IS
 AS OLD AS ITS MOTHER WILL BE WHEN SHE IS 4 TIMES AS
 OLD AS THE MONKEY WAS WHEN IT WAS TWICE AS OLD AS 
 ITS MOTHER WAS WHEN SHE WAS ONE THIRD AS OLD AS THE
 MONKEY WAS WHEN IT WAS AS OLD AS ITS MOTHER WAS WHEN 
 SHE WAS 3 TIMES AS OLD AS THE MONKEY WAS WHEN IT WAS AS OLD AS ITS
 MOTHER WAS WHEN SHE WAS 3 TIMES AS OLD AS THE MONKEY 
 WAS WHEN IT WAS ONE FOURTH WAS OLD AS IT IS NOW.

 HOW LONG IS THE BANANA?
 Job cpu time:  0 days  0 hours  5 minutes  1.1 seconds.
 File lengths (MBytes):  RWF=     33 Int=      0 D2E=      0 Chk=      3 Scr=      1
 Normal termination of Gaussian 09 at Fri Sep 24 08:05:12 2021.
