 Entering Gaussian System, Link 0=g16
 Initial command:
 /home/alexey/programs//g16/l1.exe "/home/alexey/tmp/Gau-1327408.inp" -scrdir="/home/alexey/tmp/"
 Entering Link 1 = /home/alexey/programs//g16/l1.exe PID=   1327410.
  
 Copyright (c) 1988-2021, Gaussian, Inc.  All Rights Reserved.
  
 This is part of the Gaussian(R) 16 program.  It is based on
 the Gaussian(R) 09 system (copyright 2009, Gaussian, Inc.),
 the Gaussian(R) 03 system (copyright 2003, Gaussian, Inc.),
 the Gaussian(R) 98 system (copyright 1998, Gaussian, Inc.),
 the Gaussian(R) 94 system (copyright 1995, Gaussian, Inc.),
 the Gaussian 92(TM) system (copyright 1992, Gaussian, Inc.),
 the Gaussian 90(TM) system (copyright 1990, Gaussian, Inc.),
 the Gaussian 88(TM) system (copyright 1988, Gaussian, Inc.),
 the Gaussian 86(TM) system (copyright 1986, Carnegie Mellon
 University), and the Gaussian 82(TM) system (copyright 1983,
 Carnegie Mellon University). Gaussian is a federally registered
 trademark of Gaussian, Inc.
  
 This software contains proprietary and confidential information,
 including trade secrets, belonging to Gaussian, Inc.
  
 This software is provided under written license and may be
 used, copied, transmitted, or stored only in accord with that
 written license.
  
 The following legend is applicable only to US Government
 contracts under FAR:
  
                    RESTRICTED RIGHTS LEGEND
  
 Use, reproduction and disclosure by the US Government is
 subject to restrictions as set forth in subparagraphs (a)
 and (c) of the Commercial Computer Software - Restricted
 Rights clause in FAR 52.227-19.
  
 Gaussian, Inc.
 340 Quinnipiac St., Bldg. 40, Wallingford CT 06492
  
  
 ---------------------------------------------------------------
 Warning -- This program may not be used in any manner that
 competes with the business of Gaussian, Inc. or will provide
 assistance to any competitor of Gaussian, Inc.  The licensee
 of this program is prohibited from giving any competitor of
 Gaussian, Inc. access to this program.  By using this program,
 the user acknowledges that Gaussian, Inc. is engaged in the
 business of creating and licensing software in the field of
 computational chemistry and represents and warrants to the
 licensee that it is not a competitor of Gaussian, Inc. and that
 it will not use this program in any manner prohibited above.
 ---------------------------------------------------------------
  

 Cite this work as:
 Gaussian 16, Revision C.02,
 M. J. Frisch, G. W. Trucks, H. B. Schlegel, G. E. Scuseria, 
 M. A. Robb, J. R. Cheeseman, G. Scalmani, V. Barone, 
 G. A. Petersson, H. Nakatsuji, X. Li, M. Caricato, A. V. Marenich, 
 J. Bloino, B. G. Janesko, R. Gomperts, B. Mennucci, H. P. Hratchian, 
 J. V. Ortiz, A. F. Izmaylov, J. L. Sonnenberg, D. Williams-Young, 
 F. Ding, F. Lipparini, F. Egidi, J. Goings, B. Peng, A. Petrone, 
 T. Henderson, D. Ranasinghe, V. G. Zakrzewski, J. Gao, N. Rega, 
 G. Zheng, W. Liang, M. Hada, M. Ehara, K. Toyota, R. Fukuda, 
 J. Hasegawa, M. Ishida, T. Nakajima, Y. Honda, O. Kitao, H. Nakai, 
 T. Vreven, K. Throssell, J. A. Montgomery, Jr., J. E. Peralta, 
 F. Ogliaro, M. J. Bearpark, J. J. Heyd, E. N. Brothers, K. N. Kudin, 
 V. N. Staroverov, T. A. Keith, R. Kobayashi, J. Normand, 
 K. Raghavachari, A. P. Rendell, J. C. Burant, S. S. Iyengar, 
 J. Tomasi, M. Cossi, J. M. Millam, M. Klene, C. Adamo, R. Cammi, 
 J. W. Ochterski, R. L. Martin, K. Morokuma, O. Farkas, 
 J. B. Foresman, and D. J. Fox, Gaussian, Inc., Wallingford CT, 2019.
 
 ******************************************
 Gaussian 16:  ES64L-G16RevC.02  7-Dec-2021
                 1-Jul-2023 
 ******************************************
 %mem=8GB
 %NPROCS=4
 Will use up to    4 processors via shared memory.
 %NoSave
 ---------------------------------------------------------
 #MP2/6-31G* SCF=Tight Opt=(ModRedun, MaxCycle=20 ) NoSymm
 ---------------------------------------------------------
 1/6=20,18=120,19=15,38=1/1,3;
 2/9=110,12=2,15=1,17=6,18=5,40=1/2;
 3/5=1,6=6,7=1,11=9,25=1,30=1,71=1/1,2,3;
 4//1;
 5/5=2,32=2,38=5/2;
 8/6=4,10=2/1;
 9/15=2,16=-3/6;
 10/5=1,31=1/2;
 6/7=2,8=2,9=2,10=2/1;
 7/12=2,30=1/1,2,3,16;
 1/6=20,18=20,19=15/3(2);
 2/9=110,15=1/2;
 99//99;
 2/9=110,15=1/2;
 3/5=1,6=6,7=1,11=9,25=1,30=1,71=1/1,2,3;
 4/5=5,16=3,69=1/1;
 5/5=2,32=2,38=5/2;
 8/6=4,10=2/1;
 9/15=2,16=-3/6;
 10/5=1,31=1/2;
 7/12=2,30=1/1,2,3,16;
 1/6=20,18=20,19=15/3(-8);
 2/9=110,15=1/2;
 6/7=2,8=2,9=2,10=2/1;
 99/9=10/99;
 --------
 MolName:
 --------
 Symbolic Z-matrix:
 Charge =  0 Multiplicity = 1
 8                    0    -3.57151  -1.43854  -0.179 
 7                    0    -3.27045  -0.25759  -0.01119 
 8                    0    -4.06544   0.66698   0.15987 
 6                    0    -1.76098   0.00266  -0.04432 
 6                    0    -1.37219   1.30896   0.27158 
 7                    0    -0.08401   1.76557   0.38049 
 6                    0     1.19557   0.99354   0.35669 
 1                    0     1.85534   1.49078   1.11444 
 6                    0     1.96699   1.04697  -0.98562 
 6                    0     3.3781    0.46042  -0.78992 
 6                    0     3.31324  -0.95651  -0.19821 
 6                    0     2.4583   -0.99237   1.08696 
 6                    0     1.02261  -0.45595   0.83431 
 1                    0     0.46941  -0.49655   1.80188 
 7                    0     0.37138  -1.32323  -0.14997 
 6                    0    -0.86862  -1.11864  -0.45248 
 1                    0    -2.15889   2.04705   0.50044 
 1                    0     0.14701   2.7473    0.2099 
 1                    0     1.42164   0.47158  -1.76369 
 1                    0     2.05505   2.09755  -1.33517 
 1                    0     3.91783   0.43811  -1.76191 
 1                    0     3.95153   1.11317  -0.0944 
 1                    0     2.86983  -1.64456  -0.95303 
 1                    0     4.34008  -1.32073   0.02349 
 1                    0     2.39789  -2.03935   1.45699 
 1                    0     2.94855  -0.38276   1.87471 
 1                    0    -1.36625  -1.86187  -1.09384 
 
 The following ModRedundant input section has been read:
 A       1       2       4 F                                                   
 D       1       2       4      16 F                                           
 D       7      13      15      16 F                                           
 D       7       9      10      11 F                                           
 D       9      10      11      12 F                                           
 D       6       7      13      15 F                                           
 

 GradGradGradGradGradGradGradGradGradGradGradGradGradGradGradGradGradGrad
 Berny optimization.
 Initialization pass.
                           ----------------------------
                           !    Initial Parameters    !
                           ! (Angstroms and Degrees)  !
 --------------------------                            --------------------------
 ! Name  Definition              Value          Derivative Info.                !
 --------------------------------------------------------------------------------
 ! R1    R(1,2)                  1.2302         estimate D2E/DX2                !
 ! R2    R(2,3)                  1.2313         estimate D2E/DX2                !
 ! R3    R(2,4)                  1.5321         estimate D2E/DX2                !
 ! R4    R(4,5)                  1.3991         estimate D2E/DX2                !
 ! R5    R(4,16)                 1.49           estimate D2E/DX2                !
 ! R6    R(5,6)                  1.371          estimate D2E/DX2                !
 ! R7    R(5,17)                 1.1027         estimate D2E/DX2                !
 ! R8    R(6,7)                  1.4946         estimate D2E/DX2                !
 ! R9    R(6,18)                 1.0229         estimate D2E/DX2                !
 ! R10   R(7,8)                  1.121          estimate D2E/DX2                !
 ! R11   R(7,9)                  1.5491         estimate D2E/DX2                !
 ! R12   R(7,13)                 1.5359         estimate D2E/DX2                !
 ! R13   R(9,10)                 1.5406         estimate D2E/DX2                !
 ! R14   R(9,19)                 1.1108         estimate D2E/DX2                !
 ! R15   R(9,20)                 1.1107         estimate D2E/DX2                !
 ! R16   R(10,11)                1.5369         estimate D2E/DX2                !
 ! R17   R(10,21)                1.112          estimate D2E/DX2                !
 ! R18   R(10,22)                1.1129         estimate D2E/DX2                !
 ! R19   R(11,12)                1.544          estimate D2E/DX2                !
 ! R20   R(11,23)                1.1135         estimate D2E/DX2                !
 ! R21   R(11,24)                1.1118         estimate D2E/DX2                !
 ! R22   R(12,13)                1.5533         estimate D2E/DX2                !
 ! R23   R(12,25)                1.1121         estimate D2E/DX2                !
 ! R24   R(12,26)                1.1102         estimate D2E/DX2                !
 ! R25   R(13,14)                1.1153         estimate D2E/DX2                !
 ! R26   R(13,15)                1.4646         estimate D2E/DX2                !
 ! R27   R(15,16)                1.2927         estimate D2E/DX2                !
 ! R28   R(16,27)                1.1006         estimate D2E/DX2                !
 ! A1    A(1,2,3)              125.5746         estimate D2E/DX2                !
 ! A2    A(1,2,4)              113.6544         Frozen                          !
 ! A3    A(3,2,4)              120.7684         estimate D2E/DX2                !
 ! A4    A(2,4,5)              115.3096         estimate D2E/DX2                !
 ! A5    A(2,4,16)             117.9132         estimate D2E/DX2                !
 ! A6    A(5,4,16)             126.7312         estimate D2E/DX2                !
 ! A7    A(4,5,6)              126.1564         estimate D2E/DX2                !
 ! A8    A(4,5,17)             118.2652         estimate D2E/DX2                !
 ! A9    A(6,5,17)             115.524          estimate D2E/DX2                !
 ! A10   A(5,6,7)              129.1302         estimate D2E/DX2                !
 ! A11   A(5,6,18)             121.2383         estimate D2E/DX2                !
 ! A12   A(7,6,18)             107.4424         estimate D2E/DX2                !
 ! A13   A(6,7,8)              105.3064         estimate D2E/DX2                !
 ! A14   A(6,7,9)              114.9804         estimate D2E/DX2                !
 ! A15   A(6,7,13)             112.7126         estimate D2E/DX2                !
 ! A16   A(8,7,9)              106.1007         estimate D2E/DX2                !
 ! A17   A(8,7,13)             105.9426         estimate D2E/DX2                !
 ! A18   A(9,7,13)             110.9824         estimate D2E/DX2                !
 ! A19   A(7,9,10)             109.4455         estimate D2E/DX2                !
 ! A20   A(7,9,19)             110.1575         estimate D2E/DX2                !
 ! A21   A(7,9,20)             110.1698         estimate D2E/DX2                !
 ! A22   A(10,9,19)            109.9647         estimate D2E/DX2                !
 ! A23   A(10,9,20)            109.1152         estimate D2E/DX2                !
 ! A24   A(19,9,20)            107.9652         estimate D2E/DX2                !
 ! A25   A(9,10,11)            111.1772         estimate D2E/DX2                !
 ! A26   A(9,10,21)            109.9478         estimate D2E/DX2                !
 ! A27   A(9,10,22)            109.1478         estimate D2E/DX2                !
 ! A28   A(11,10,21)           109.7863         estimate D2E/DX2                !
 ! A29   A(11,10,22)           108.776          estimate D2E/DX2                !
 ! A30   A(21,10,22)           107.9348         estimate D2E/DX2                !
 ! A31   A(10,11,12)           111.423          estimate D2E/DX2                !
 ! A32   A(10,11,23)           108.997          estimate D2E/DX2                !
 ! A33   A(10,11,24)           109.8651         estimate D2E/DX2                !
 ! A34   A(12,11,23)           109.2331         estimate D2E/DX2                !
 ! A35   A(12,11,24)           109.7433         estimate D2E/DX2                !
 ! A36   A(23,11,24)           107.4894         estimate D2E/DX2                !
 ! A37   A(11,12,13)           111.6161         estimate D2E/DX2                !
 ! A38   A(11,12,25)           109.2023         estimate D2E/DX2                !
 ! A39   A(11,12,26)           109.4722         estimate D2E/DX2                !
 ! A40   A(13,12,25)           109.2101         estimate D2E/DX2                !
 ! A41   A(13,12,26)           109.5079         estimate D2E/DX2                !
 ! A42   A(25,12,26)           107.7491         estimate D2E/DX2                !
 ! A43   A(7,13,12)            105.8073         estimate D2E/DX2                !
 ! A44   A(7,13,14)            111.0996         estimate D2E/DX2                !
 ! A45   A(7,13,15)            113.5734         estimate D2E/DX2                !
 ! A46   A(12,13,14)           107.7446         estimate D2E/DX2                !
 ! A47   A(12,13,15)           108.4084         estimate D2E/DX2                !
 ! A48   A(14,13,15)           109.9332         estimate D2E/DX2                !
 ! A49   A(13,15,16)           119.3459         estimate D2E/DX2                !
 ! A50   A(4,16,15)            129.0122         estimate D2E/DX2                !
 ! A51   A(4,16,27)            113.3918         estimate D2E/DX2                !
 ! A52   A(15,16,27)           117.5944         estimate D2E/DX2                !
 ! D1    D(1,2,4,5)           -174.0422         estimate D2E/DX2                !
 ! D2    D(1,2,4,16)             8.2582         Frozen                          !
 ! D3    D(3,2,4,5)              6.5134         estimate D2E/DX2                !
 ! D4    D(3,2,4,16)          -171.1862         estimate D2E/DX2                !
 ! D5    D(2,4,5,6)            176.2104         estimate D2E/DX2                !
 ! D6    D(2,4,5,17)            -0.9763         estimate D2E/DX2                !
 ! D7    D(16,4,5,6)            -6.3261         estimate D2E/DX2                !
 ! D8    D(16,4,5,17)          176.4872         estimate D2E/DX2                !
 ! D9    D(2,4,16,15)         -154.2567         estimate D2E/DX2                !
 ! D10   D(2,4,16,27)           25.2701         estimate D2E/DX2                !
 ! D11   D(5,4,16,15)           28.3383         estimate D2E/DX2                !
 ! D12   D(5,4,16,27)         -152.1349         estimate D2E/DX2                !
 ! D13   D(4,5,6,7)             -7.9444         estimate D2E/DX2                !
 ! D14   D(4,5,6,18)           153.0321         estimate D2E/DX2                !
 ! D15   D(17,5,6,7)           169.3098         estimate D2E/DX2                !
 ! D16   D(17,5,6,18)          -29.7137         estimate D2E/DX2                !
 ! D17   D(5,6,7,8)           -141.7761         estimate D2E/DX2                !
 ! D18   D(5,6,7,9)            101.8193         estimate D2E/DX2                !
 ! D19   D(5,6,7,13)           -26.7347         estimate D2E/DX2                !
 ! D20   D(18,6,7,8)            55.2095         estimate D2E/DX2                !
 ! D21   D(18,6,7,9)           -61.1952         estimate D2E/DX2                !
 ! D22   D(18,6,7,13)          170.2508         estimate D2E/DX2                !
 ! D23   D(6,7,9,10)           168.7011         estimate D2E/DX2                !
 ! D24   D(6,7,9,19)           -70.28           estimate D2E/DX2                !
 ! D25   D(6,7,9,20)            48.7241         estimate D2E/DX2                !
 ! D26   D(8,7,9,10)            52.7508         estimate D2E/DX2                !
 ! D27   D(8,7,9,19)           173.7697         estimate D2E/DX2                !
 ! D28   D(8,7,9,20)           -67.2262         estimate D2E/DX2                !
 ! D29   D(13,7,9,10)          -61.8877         estimate D2E/DX2                !
 ! D30   D(13,7,9,19)           59.1312         estimate D2E/DX2                !
 ! D31   D(13,7,9,20)          178.1354         estimate D2E/DX2                !
 ! D32   D(6,7,13,12)         -166.1872         estimate D2E/DX2                !
 ! D33   D(6,7,13,14)          -49.5234         estimate D2E/DX2                !
 ! D34   D(6,7,13,15)           75.0221         Frozen                          !
 ! D35   D(8,7,13,12)          -51.53           estimate D2E/DX2                !
 ! D36   D(8,7,13,14)           65.1338         estimate D2E/DX2                !
 ! D37   D(8,7,13,15)         -170.3207         estimate D2E/DX2                !
 ! D38   D(9,7,13,12)           63.2072         estimate D2E/DX2                !
 ! D39   D(9,7,13,14)          179.871          estimate D2E/DX2                !
 ! D40   D(9,7,13,15)          -55.5835         estimate D2E/DX2                !
 ! D41   D(7,9,10,11)           54.8124         Frozen                          !
 ! D42   D(7,9,10,21)          176.6025         estimate D2E/DX2                !
 ! D43   D(7,9,10,22)          -65.1818         estimate D2E/DX2                !
 ! D44   D(19,9,10,11)         -66.3233         estimate D2E/DX2                !
 ! D45   D(19,9,10,21)          55.4668         estimate D2E/DX2                !
 ! D46   D(19,9,10,22)         173.6825         estimate D2E/DX2                !
 ! D47   D(20,9,10,11)         175.4335         estimate D2E/DX2                !
 ! D48   D(20,9,10,21)         -62.7763         estimate D2E/DX2                !
 ! D49   D(20,9,10,22)          55.4394         estimate D2E/DX2                !
 ! D50   D(9,10,11,12)         -52.8227         Frozen                          !
 ! D51   D(9,10,11,23)          67.796          estimate D2E/DX2                !
 ! D52   D(9,10,11,24)        -174.6661         estimate D2E/DX2                !
 ! D53   D(21,10,11,12)       -174.7068         estimate D2E/DX2                !
 ! D54   D(21,10,11,23)        -54.0881         estimate D2E/DX2                !
 ! D55   D(21,10,11,24)         63.4498         estimate D2E/DX2                !
 ! D56   D(22,10,11,12)         67.3918         estimate D2E/DX2                !
 ! D57   D(22,10,11,23)       -171.9895         estimate D2E/DX2                !
 ! D58   D(22,10,11,24)        -54.4516         estimate D2E/DX2                !
 ! D59   D(10,11,12,13)         56.5885         estimate D2E/DX2                !
 ! D60   D(10,11,12,25)        177.4379         estimate D2E/DX2                !
 ! D61   D(10,11,12,26)        -64.8172         estimate D2E/DX2                !
 ! D62   D(23,11,12,13)        -63.8915         estimate D2E/DX2                !
 ! D63   D(23,11,12,25)         56.9579         estimate D2E/DX2                !
 ! D64   D(23,11,12,26)        174.7028         estimate D2E/DX2                !
 ! D65   D(24,11,12,13)        178.5024         estimate D2E/DX2                !
 ! D66   D(24,11,12,25)        -60.6482         estimate D2E/DX2                !
 ! D67   D(24,11,12,26)         57.0967         estimate D2E/DX2                !
 ! D68   D(11,12,13,7)         -60.2802         estimate D2E/DX2                !
 ! D69   D(11,12,13,14)       -179.1893         estimate D2E/DX2                !
 ! D70   D(11,12,13,15)         61.8794         estimate D2E/DX2                !
 ! D71   D(25,12,13,7)         178.8749         estimate D2E/DX2                !
 ! D72   D(25,12,13,14)         59.9658         estimate D2E/DX2                !
 ! D73   D(25,12,13,15)        -58.9654         estimate D2E/DX2                !
 ! D74   D(26,12,13,7)          61.1048         estimate D2E/DX2                !
 ! D75   D(26,12,13,14)        -57.8043         estimate D2E/DX2                !
 ! D76   D(26,12,13,15)       -176.7356         estimate D2E/DX2                !
 ! D77   D(7,13,15,16)         -67.1603         Frozen                          !
 ! D78   D(12,13,15,16)        175.5524         estimate D2E/DX2                !
 ! D79   D(14,13,15,16)         58.0118         estimate D2E/DX2                !
 ! D80   D(13,15,16,4)           7.2314         estimate D2E/DX2                !
 ! D81   D(13,15,16,27)       -172.2786         estimate D2E/DX2                !
 --------------------------------------------------------------------------------
 Trust Radius=3.00D-01 FncErr=1.00D-07 GrdErr=1.00D-07 EigMax=2.50D+02 EigMin=1.00D-04
 Number of steps in this run=     20 maximum allowed number of steps=    162.
 GradGradGradGradGradGradGradGradGradGradGradGradGradGradGradGradGradGrad

                          Input orientation:                          
 ---------------------------------------------------------------------
 Center     Atomic      Atomic             Coordinates (Angstroms)
 Number     Number       Type             X           Y           Z
 ---------------------------------------------------------------------
      1          8           0       -3.571510   -1.438540   -0.179000
      2          7           0       -3.270450   -0.257590   -0.011190
      3          8           0       -4.065440    0.666980    0.159870
      4          6           0       -1.760980    0.002660   -0.044320
      5          6           0       -1.372190    1.308960    0.271580
      6          7           0       -0.084010    1.765570    0.380490
      7          6           0        1.195570    0.993540    0.356690
      8          1           0        1.855340    1.490780    1.114440
      9          6           0        1.966990    1.046970   -0.985620
     10          6           0        3.378100    0.460420   -0.789920
     11          6           0        3.313240   -0.956510   -0.198210
     12          6           0        2.458300   -0.992370    1.086960
     13          6           0        1.022610   -0.455950    0.834310
     14          1           0        0.469410   -0.496550    1.801880
     15          7           0        0.371380   -1.323230   -0.149970
     16          6           0       -0.868620   -1.118640   -0.452480
     17          1           0       -2.158890    2.047050    0.500440
     18          1           0        0.147010    2.747300    0.209900
     19          1           0        1.421640    0.471580   -1.763690
     20          1           0        2.055050    2.097550   -1.335170
     21          1           0        3.917830    0.438110   -1.761910
     22          1           0        3.951530    1.113170   -0.094400
     23          1           0        2.869830   -1.644560   -0.953030
     24          1           0        4.340080   -1.320730    0.023490
     25          1           0        2.397890   -2.039350    1.456990
     26          1           0        2.948550   -0.382760    1.874710
     27          1           0       -1.366250   -1.861870   -1.093840
 ---------------------------------------------------------------------
                    Distance matrix (angstroms):
                    1          2          3          4          5
     1  O    0.000000
     2  N    1.230220   0.000000
     3  O    2.189067   1.231300   0.000000
     4  C    2.318020   1.532099   2.406980   0.000000
     5  C    3.548068   2.477383   2.770959   1.399060   0.000000
     6  N    4.768858   3.794732   4.136104   2.469928   1.371044
     7  C    5.378385   4.652526   5.274809   3.143858   2.588460
     8  H    6.301159   5.531506   6.053552   4.078602   3.340722
     9  C    6.124000   5.484721   6.151971   3.984268   3.577613
    10  C    7.230239   6.732397   7.506734   5.213023   4.940856
    11  C    6.901631   6.623325   7.563654   5.166372   5.225544
    12  C    6.177405   5.879151   6.795007   4.480201   4.542424
    13  C    4.806061   4.380021   5.253960   2.954774   3.027646
    14  H    4.597854   4.163037   4.961337   2.938078   2.998862
    15  N    3.944683   3.797074   4.872608   2.513186   3.185305
    16  C    2.735460   2.589388   3.712556   1.490038   2.582845
    17  H    3.821841   2.609348   2.378132   2.152818   1.102747
    18  H    5.612476   4.556016   4.698401   3.352328   2.092987
    19  H    5.575962   5.061487   5.817758   3.647628   3.556545
    20  H    6.745283   5.971646   6.460811   4.540588   3.866458
    21  H    7.881474   7.431042   8.214513   5.948833   5.733914
    22  H    7.944464   7.351388   8.033402   5.819666   5.339875
    23  H    6.490950   6.365044   7.394575   4.998349   5.312032
    24  H    7.915058   7.684506   8.638423   6.243308   6.293397
    25  H    6.218615   6.120482   7.126105   4.870312   5.179757
    26  H    6.916905   6.499865   7.296484   5.100088   4.909250
    27  H    2.424729   2.715110   3.905445   2.175724   3.452328
                    6          7          8          9         10
     6  N    0.000000
     7  C    1.494631   0.000000
     8  H    2.091715   1.121039   0.000000
     9  C    2.566952   1.549109   2.149345   0.000000
    10  C    3.880655   2.522374   2.647079   1.540640   0.000000
    11  C    4.391574   2.931746   3.136519   2.538964   1.536886
    12  C    3.816893   2.464066   2.555455   2.948878   2.545449
    13  C    2.523036   1.535922   2.135807   2.542197   3.004362
    14  H    2.728335   2.199148   2.518503   3.520704   4.011695
    15  N    3.166931   2.510661   3.423379   2.976933   3.554055
    16  C    3.102921   3.062179   4.084638   3.607602   4.543339
    17  H    2.097319   3.518941   4.098838   4.497935   5.902600
    18  H    1.022871   2.048585   2.305521   2.762737   4.082818
    19  H    2.922140   2.195350   3.083909   1.110798   2.185426
    20  H    2.762115   2.195435   2.531530   1.110702   2.174386
    21  H    4.729350   3.493947   3.692610   2.186118   1.112012
    22  H    4.115426   2.795194   2.449060   2.176478   1.112948
    23  H    4.704512   3.387932   3.890242   2.839105   2.171609
    24  H    5.406040   3.918522   3.907518   3.500837   2.181636
    25  H    4.668629   3.443059   3.587969   3.959468   3.501181
    26  H    4.005551   2.696577   2.298537   3.345008   2.827670
    27  H    4.120207   4.101259   5.147369   4.425331   5.290960
                   11         12         13         14         15
    11  C    0.000000
    12  C    1.543979   0.000000
    13  C    2.561961   1.553314   0.000000
    14  H    3.507035   2.170860   1.115289   0.000000
    15  N    2.965021   2.448407   1.464610   2.121963   0.000000
    16  C    4.192719   3.667999   2.381541   2.694338   1.292660
    17  H    6.281217   5.558824   4.061825   3.882217   4.264280
    18  H    4.889762   4.482904   3.378960   3.627796   4.092562
    19  H    2.840479   3.368088   2.787318   3.815404   2.632201
    20  H    3.493280   3.946762   3.506129   4.368603   3.992641
    21  H    2.180746   3.506075   3.990238   5.046364   4.275275
    22  H    2.168356   2.838775   3.450103   4.279280   4.330890
    23  H    1.113453   2.180887   2.831890   3.830075   2.643938
    24  H    1.111849   2.186295   3.522908   4.338667   3.972490
    25  H    2.179471   1.112088   2.187757   2.493635   2.683634
    26  H    2.181556   1.110189   2.190213   2.482818   3.409636
    27  H    4.849686   4.487661   3.376540   3.690385   2.049483
                   16         17         18         19         20
    16  C    0.000000
    17  H    3.548866   0.000000
    18  H    4.051635   2.427332   0.000000
    19  H    3.081130   4.519799   3.270878   0.000000
    20  H    4.435185   4.596662   2.539692   1.796835   0.000000
    21  H    5.200787   6.680826   4.841433   2.496415   2.530968
    22  H    5.323818   6.209927   4.151789   3.098146   2.470860
    23  H    3.808300   6.405356   5.296658   2.689326   3.848803
    24  H    5.234304   7.335260   5.845122   3.863118   4.330353
    25  H    3.894081   6.194990   5.434493   4.198882   5.002763
    26  H    4.530797   5.820527   4.518572   4.037240   4.153746
    27  H    1.100622   4.295307   5.023360   3.696758   5.238372
                   21         22         23         24         25
    21  H    0.000000
    22  H    1.799286   0.000000
    23  H    2.467814   3.084217   0.000000
    24  H    2.541548   2.467537   1.794462   0.000000
    25  H    4.336974   3.841743   2.487324   2.518618   0.000000
    26  H    3.852056   2.668552   3.097491   2.498631   1.794995
    27  H    5.801528   6.174830   4.243987   5.839817   4.550493
                   26         27
    26  H    0.000000
    27  H    5.442201   0.000000
 Symmetry turned off by external request.
 Stoichiometry    C9H13N3O2
 Framework group  C1[X(C9H13N3O2)]
 Deg. of freedom    75
 Full point group                 C1      NOp   1
 Rotational constants (GHZ):           1.6795422           0.4002122           0.3552984
 Standard basis: 6-31G(d) (6D, 7F)
   236 basis functions,   444 primitive gaussians,   236 cartesian basis functions
    52 alpha electrons       52 beta electrons
       nuclear repulsion energy       917.4836694974 Hartrees.
 NAtoms=   27 NActive=   27 NUniq=   27 SFac= 1.00D+00 NAtFMM=   60 NAOKFM=F Big=F
 Integral buffers will be    131072 words long.
 Raffenetti 1 integral format.
 Two-electron integral symmetry is turned off.
 One-electron integrals computed using PRISM.
 NBasis=   236 RedAO= T EigKep=  1.30D-03  NBF=   236
 NBsUse=   236 1.00D-06 EigRej= -1.00D+00 NBFU=   236
 ExpMin= 1.61D-01 ExpMax= 5.48D+03 ExpMxC= 8.25D+02 IAcc=3 IRadAn=         5 AccDes= 0.00D+00
 Harris functional with IExCor=  205 and IRadAn=       5 diagonalized for initial guess.
 HarFok:  IExCor=  205 AccDes= 0.00D+00 IRadAn=         5 IDoV= 1 UseB2=F ITyADJ=14
 ICtDFT=  3500011 ScaDFX=  1.000000  1.000000  1.000000  1.000000
 FoFCou: FMM=F IPFlag=           0 FMFlag=      100000 FMFlg1=           0
         NFxFlg=           0 DoJE=T BraDBF=F KetDBF=T FulRan=T
         wScrn=  0.000000 ICntrl=       500 IOpCl=  0 I1Cent=   200000004 NGrid=           0
         NMat0=    1 NMatS0=      1 NMatT0=    0 NMatD0=    1 NMtDS0=    0 NMtDT0=    0
 Symmetry not used in FoFCou.
 Keep R1 ints in memory in canonical form, NReq=397720213.
 Requested convergence on RMS density matrix=1.00D-08 within 128 cycles.
 Requested convergence on MAX density matrix=1.00D-06.
 Requested convergence on             energy=1.00D-06.
 No special actions if energy rises.
 SCF Done:  E(RHF) =  -661.279561873     A.U. after   16 cycles
            NFock= 16  Conv=0.75D-08     -V/T= 2.0037
 ExpMin= 1.61D-01 ExpMax= 5.48D+03 ExpMxC= 8.25D+02 IAcc=3 IRadAn=         5 AccDes= 0.00D+00
 HarFok:  IExCor=  205 AccDes= 0.00D+00 IRadAn=         5 IDoV=-2 UseB2=F ITyADJ=14
 ICtDFT= 12500011 ScaDFX=  1.000000  1.000000  1.000000  1.000000
 Range of M.O.s used for correlation:    15   236
 NBasis=   236 NAE=    52 NBE=    52 NFC=    14 NFV=     0
 NROrb=    222 NOA=    38 NOB=    38 NVA=   184 NVB=   184
 Fully direct method using O(ONN) memory.
 JobTyp=1 Pass  1:  I=  15 to  52 NPSUse=  4 ParTrn=T ParDer=T DoDerP=T.
 Spin components of T(2) and E(2):
     alpha-alpha T2 =       0.9204512130D-01 E2=     -0.2718488962D+00
     alpha-beta  T2 =       0.5000243449D+00 E2=     -0.1494198349D+01
     beta-beta   T2 =       0.9204512130D-01 E2=     -0.2718488962D+00
 ANorm=    0.1297734406D+01
 E2 =    -0.2037896142D+01 EUMP2 =    -0.66331745801459D+03
          IDoAtm=111111111111111111111111111
          Differentiating once with respect to electric field.
                with respect to dipole field.
          Differentiating once with respect to nuclear coordinates.
 Keep R1 ints in memory in canonical form, NReq=397723379.
          There are     1 degrees of freedom in the 1st order CPHF.  IDoFFX=0 NUNeed=     1.
 LinEq1:  Iter=  0 NonCon=     1 RMS=4.62D-03 Max=1.20D-01 NDo=     1
 AX will form     1 AO Fock derivatives at one time.
 LinEq1:  Iter=  1 NonCon=     1 RMS=1.57D-03 Max=3.08D-02 NDo=     1
 LinEq1:  Iter=  2 NonCon=     1 RMS=6.39D-04 Max=1.91D-02 NDo=     1
 LinEq1:  Iter=  3 NonCon=     1 RMS=2.91D-04 Max=8.78D-03 NDo=     1
 LinEq1:  Iter=  4 NonCon=     1 RMS=8.95D-05 Max=1.97D-03 NDo=     1
 LinEq1:  Iter=  5 NonCon=     1 RMS=3.75D-05 Max=1.90D-03 NDo=     1
 LinEq1:  Iter=  6 NonCon=     1 RMS=1.58D-05 Max=5.99D-04 NDo=     1
 LinEq1:  Iter=  7 NonCon=     1 RMS=6.37D-06 Max=1.27D-04 NDo=     1
 LinEq1:  Iter=  8 NonCon=     1 RMS=2.56D-06 Max=7.01D-05 NDo=     1
 LinEq1:  Iter=  9 NonCon=     1 RMS=1.04D-06 Max=3.13D-05 NDo=     1
 LinEq1:  Iter= 10 NonCon=     1 RMS=4.60D-07 Max=1.13D-05 NDo=     1
 LinEq1:  Iter= 11 NonCon=     1 RMS=1.57D-07 Max=6.04D-06 NDo=     1
 LinEq1:  Iter= 12 NonCon=     1 RMS=5.35D-08 Max=9.40D-07 NDo=     1
 LinEq1:  Iter= 13 NonCon=     1 RMS=1.69D-08 Max=3.25D-07 NDo=     1
 LinEq1:  Iter= 14 NonCon=     1 RMS=5.18D-09 Max=1.44D-07 NDo=     1
 LinEq1:  Iter= 15 NonCon=     1 RMS=1.93D-09 Max=4.96D-08 NDo=     1
 LinEq1:  Iter= 16 NonCon=     1 RMS=7.35D-10 Max=1.49D-08 NDo=     1
 LinEq1:  Iter= 17 NonCon=     1 RMS=2.46D-10 Max=3.83D-09 NDo=     1
 LinEq1:  Iter= 18 NonCon=     1 RMS=8.51D-11 Max=1.06D-09 NDo=     1
 LinEq1:  Iter= 19 NonCon=     0 RMS=2.81D-11 Max=3.11D-10 NDo=     1
 Linear equations converged to 1.000D-10 1.000D-09 after    19 iterations.
 End of Minotr F.D. properties file   721 does not exist.
 End of Minotr F.D. properties file   722 does not exist.
 End of Minotr F.D. properties file   788 does not exist.

 **********************************************************************

            Population analysis using the SCF Density.

 **********************************************************************

 Alpha  occ. eigenvalues --  -20.59875 -20.59866 -15.85417 -15.63143 -15.56881
 Alpha  occ. eigenvalues --  -11.35634 -11.30528 -11.30010 -11.30006 -11.27651
 Alpha  occ. eigenvalues --  -11.24574 -11.23841 -11.23372 -11.22826  -1.58497
 Alpha  occ. eigenvalues --   -1.38450  -1.28450  -1.22696  -1.13163  -1.08224
 Alpha  occ. eigenvalues --   -1.01756  -1.00578  -0.93297  -0.89050  -0.84884
 Alpha  occ. eigenvalues --   -0.81493  -0.78083  -0.76900  -0.74208  -0.71068
 Alpha  occ. eigenvalues --   -0.70500  -0.69895  -0.67359  -0.64292  -0.63236
 Alpha  occ. eigenvalues --   -0.61584  -0.60305  -0.57359  -0.56426  -0.54855
 Alpha  occ. eigenvalues --   -0.53531  -0.50674  -0.49324  -0.48387  -0.48012
 Alpha  occ. eigenvalues --   -0.47563  -0.46118  -0.45679  -0.44283  -0.42025
 Alpha  occ. eigenvalues --   -0.40003  -0.33713
 Alpha virt. eigenvalues --    0.07584   0.11676   0.18294   0.21427   0.23379
 Alpha virt. eigenvalues --    0.24255   0.26313   0.27816   0.28603   0.28915
 Alpha virt. eigenvalues --    0.29952   0.31127   0.31898   0.32301   0.33344
 Alpha virt. eigenvalues --    0.33821   0.34232   0.35391   0.37572   0.38458
 Alpha virt. eigenvalues --    0.40624   0.41829   0.44698   0.45402   0.45782
 Alpha virt. eigenvalues --    0.46048   0.49340   0.53125   0.57834   0.59028
 Alpha virt. eigenvalues --    0.63461   0.69217   0.69343   0.72309   0.74060
 Alpha virt. eigenvalues --    0.75068   0.75798   0.75956   0.77798   0.79311
 Alpha virt. eigenvalues --    0.80543   0.83674   0.85115   0.85393   0.88015
 Alpha virt. eigenvalues --    0.89057   0.90189   0.90837   0.91923   0.93836
 Alpha virt. eigenvalues --    0.95155   0.97238   0.98868   1.00424   1.01896
 Alpha virt. eigenvalues --    1.02758   1.05115   1.06491   1.06948   1.08734
 Alpha virt. eigenvalues --    1.09455   1.10512   1.11307   1.11925   1.13304
 Alpha virt. eigenvalues --    1.13847   1.14216   1.15424   1.16335   1.17301
 Alpha virt. eigenvalues --    1.18010   1.19934   1.21154   1.22401   1.22878
 Alpha virt. eigenvalues --    1.23347   1.24597   1.25619   1.27033   1.27595
 Alpha virt. eigenvalues --    1.29474   1.31353   1.33526   1.35998   1.39916
 Alpha virt. eigenvalues --    1.43108   1.46152   1.47586   1.49153   1.52587
 Alpha virt. eigenvalues --    1.54514   1.55390   1.60622   1.61307   1.66289
 Alpha virt. eigenvalues --    1.68691   1.70384   1.72961   1.73342   1.77095
 Alpha virt. eigenvalues --    1.77795   1.80180   1.84442   1.89031   1.92700
 Alpha virt. eigenvalues --    1.93330   1.95923   1.97444   1.99137   2.00897
 Alpha virt. eigenvalues --    2.03066   2.03694   2.05623   2.08928   2.11390
 Alpha virt. eigenvalues --    2.13008   2.13631   2.17791   2.18928   2.19331
 Alpha virt. eigenvalues --    2.20669   2.22209   2.24300   2.25089   2.26509
 Alpha virt. eigenvalues --    2.29300   2.32332   2.33456   2.35516   2.36095
 Alpha virt. eigenvalues --    2.38644   2.39909   2.41400   2.42587   2.46671
 Alpha virt. eigenvalues --    2.48322   2.50550   2.50888   2.56729   2.57148
 Alpha virt. eigenvalues --    2.60832   2.63008   2.66104   2.68474   2.68856
 Alpha virt. eigenvalues --    2.69775   2.70247   2.75238   2.77517   2.79558
 Alpha virt. eigenvalues --    2.84437   2.86609   2.90121   2.91913   2.95464
 Alpha virt. eigenvalues --    2.97726   2.98443   3.03047   3.03974   3.05714
 Alpha virt. eigenvalues --    3.07068   3.12662   3.19043   3.22613   3.26679
 Alpha virt. eigenvalues --    3.30970   3.33608   3.36672   3.44336   3.59449
 Alpha virt. eigenvalues --    4.10892   4.23268   4.32134   4.36303   4.43209
 Alpha virt. eigenvalues --    4.52861   4.59740   4.60245   4.70884   4.77638
 Alpha virt. eigenvalues --    4.96247   4.99269   5.02779   5.09994
          Condensed to atoms (all electrons):
               1          2          3          4          5          6
     1  O    8.307002   0.304546  -0.082120  -0.086480   0.004071  -0.000018
     2  N    0.304546   5.676563   0.312123   0.268033  -0.050821   0.000885
     3  O   -0.082120   0.312123   8.322849  -0.084930   0.008501   0.000413
     4  C   -0.086480   0.268033  -0.084930   5.254696   0.561070  -0.047426
     5  C    0.004071  -0.050821   0.008501   0.561070   4.680932   0.307051
     6  N   -0.000018   0.000885   0.000413  -0.047426   0.307051   7.190628
     7  C    0.000004  -0.000096   0.000002   0.004036  -0.029163   0.199205
     8  H   -0.000000   0.000002  -0.000000  -0.000178   0.002281  -0.050106
     9  C   -0.000000  -0.000003   0.000000   0.000476   0.001680  -0.056136
    10  C   -0.000000   0.000000  -0.000000  -0.000019  -0.000063   0.003339
    11  C   -0.000000  -0.000000  -0.000000  -0.000014   0.000014  -0.000154
    12  C   -0.000000   0.000002  -0.000000  -0.000097  -0.000123   0.003594
    13  C   -0.000026  -0.000011  -0.000003  -0.010429   0.000371  -0.044224
    14  H   -0.000003  -0.000055   0.000000   0.002985   0.004835  -0.005568
    15  N    0.000196   0.001609  -0.000009  -0.060870  -0.003697   0.001834
    16  C    0.001318  -0.022252   0.001643   0.320999  -0.041144  -0.001185
    17  H    0.000150  -0.004183   0.011819  -0.028729   0.378929  -0.033913
    18  H    0.000000  -0.000038   0.000008   0.000950  -0.024362   0.328488
    19  H    0.000000   0.000000   0.000000  -0.000749   0.000639   0.000664
    20  H    0.000000  -0.000000   0.000000  -0.000025   0.000030  -0.001729
    21  H   -0.000000  -0.000000   0.000000   0.000000   0.000001  -0.000059
    22  H   -0.000000   0.000000  -0.000000  -0.000000  -0.000002  -0.000098
    23  H    0.000000  -0.000000   0.000000   0.000025  -0.000000  -0.000024
    24  H    0.000000   0.000000   0.000000   0.000000  -0.000000   0.000004
    25  H    0.000000  -0.000000   0.000000   0.000019  -0.000001  -0.000071
    26  H    0.000000  -0.000000   0.000000   0.000006  -0.000001  -0.000067
    27  H    0.004832  -0.000121  -0.000011  -0.065209   0.002178   0.000050
               7          8          9         10         11         12
     1  O    0.000004  -0.000000  -0.000000  -0.000000  -0.000000  -0.000000
     2  N   -0.000096   0.000002  -0.000003   0.000000  -0.000000   0.000002
     3  O    0.000002  -0.000000   0.000000  -0.000000  -0.000000  -0.000000
     4  C    0.004036  -0.000178   0.000476  -0.000019  -0.000014  -0.000097
     5  C   -0.029163   0.002281   0.001680  -0.000063   0.000014  -0.000123
     6  N    0.199205  -0.050106  -0.056136   0.003339  -0.000154   0.003594
     7  C    5.000503   0.416981   0.340777  -0.049359  -0.007685  -0.064146
     8  H    0.416981   0.548073  -0.060738   0.001484  -0.000333  -0.002839
     9  C    0.340777  -0.060738   5.181399   0.317846  -0.053030  -0.006234
    10  C   -0.049359   0.001484   0.317846   5.126839   0.332764  -0.060111
    11  C   -0.007685  -0.000333  -0.053030   0.332764   5.123909   0.330617
    12  C   -0.064146  -0.002839  -0.006234  -0.060111   0.330617   5.137121
    13  C    0.332930  -0.040558  -0.050266  -0.001749  -0.047899   0.368171
    14  H   -0.040098  -0.000955   0.003869  -0.000392   0.003955  -0.040760
    15  N   -0.057978   0.004051  -0.012904   0.001464  -0.007702  -0.074164
    16  C   -0.002484   0.000032  -0.000927  -0.000023   0.000003   0.002500
    17  H    0.001456  -0.000019  -0.000066   0.000001   0.000000   0.000001
    18  H   -0.028541  -0.002653   0.000821  -0.000121   0.000011  -0.000136
    19  H   -0.034961   0.004105   0.385919  -0.032590  -0.002273   0.000636
    20  H   -0.041597  -0.001857   0.397257  -0.037405   0.004142  -0.000361
    21  H    0.004042  -0.000081  -0.035836   0.400120  -0.035861   0.004211
    22  H   -0.004205   0.003511  -0.045676   0.395967  -0.045628  -0.001234
    23  H    0.000426   0.000033  -0.002001  -0.040100   0.396710  -0.036651
    24  H   -0.000142  -0.000098   0.004394  -0.038483   0.400287  -0.037870
    25  H    0.004978  -0.000004  -0.000370   0.004098  -0.033965   0.395449
    26  H   -0.004449   0.001608   0.001036  -0.002399  -0.042301   0.394727
    27  H   -0.000407   0.000009  -0.000059   0.000005   0.000005  -0.000018
              13         14         15         16         17         18
     1  O   -0.000026  -0.000003   0.000196   0.001318   0.000150   0.000000
     2  N   -0.000011  -0.000055   0.001609  -0.022252  -0.004183  -0.000038
     3  O   -0.000003   0.000000  -0.000009   0.001643   0.011819   0.000008
     4  C   -0.010429   0.002985  -0.060870   0.320999  -0.028729   0.000950
     5  C    0.000371   0.004835  -0.003697  -0.041144   0.378929  -0.024362
     6  N   -0.044224  -0.005568   0.001834  -0.001185  -0.033913   0.328488
     7  C    0.332930  -0.040098  -0.057978  -0.002484   0.001456  -0.028541
     8  H   -0.040558  -0.000955   0.004051   0.000032  -0.000019  -0.002653
     9  C   -0.050266   0.003869  -0.012904  -0.000927  -0.000066   0.000821
    10  C   -0.001749  -0.000392   0.001464  -0.000023   0.000001  -0.000121
    11  C   -0.047899   0.003955  -0.007702   0.000003   0.000000   0.000011
    12  C    0.368171  -0.040760  -0.074164   0.002500   0.000001  -0.000136
    13  C    5.024664   0.402226   0.238704  -0.069356  -0.000042   0.003687
    14  H    0.402226   0.519248  -0.035833  -0.004824   0.000064   0.000009
    15  N    0.238704  -0.035833   6.936021   0.588026  -0.000058  -0.000118
    16  C   -0.069356  -0.004824   0.588026   4.690424   0.001592  -0.000225
    17  H   -0.000042   0.000064  -0.000058   0.001592   0.388703  -0.001852
    18  H    0.003687   0.000009  -0.000118  -0.000225  -0.001852   0.325357
    19  H   -0.006306   0.000064   0.006948   0.002540   0.000011  -0.000127
    20  H    0.003863  -0.000049   0.000078  -0.000032  -0.000001   0.002882
    21  H   -0.000376   0.000009  -0.000029   0.000002  -0.000000  -0.000000
    22  H    0.000320  -0.000044   0.000002  -0.000001   0.000000   0.000002
    23  H   -0.005849   0.000008   0.006729   0.000062   0.000000   0.000000
    24  H    0.004140  -0.000058   0.000043   0.000005   0.000000  -0.000000
    25  H   -0.034512  -0.002655   0.000740  -0.000064  -0.000000   0.000002
    26  H   -0.044770  -0.000912   0.004185  -0.000055   0.000000  -0.000001
    27  H    0.004897  -0.000177  -0.040544   0.402242  -0.000059   0.000002
              19         20         21         22         23         24
     1  O    0.000000   0.000000  -0.000000  -0.000000   0.000000   0.000000
     2  N    0.000000  -0.000000  -0.000000   0.000000  -0.000000   0.000000
     3  O    0.000000   0.000000   0.000000  -0.000000   0.000000   0.000000
     4  C   -0.000749  -0.000025   0.000000  -0.000000   0.000025   0.000000
     5  C    0.000639   0.000030   0.000001  -0.000002  -0.000000  -0.000000
     6  N    0.000664  -0.001729  -0.000059  -0.000098  -0.000024   0.000004
     7  C   -0.034961  -0.041597   0.004042  -0.004205   0.000426  -0.000142
     8  H    0.004105  -0.001857  -0.000081   0.003511   0.000033  -0.000098
     9  C    0.385919   0.397257  -0.035836  -0.045676  -0.002001   0.004394
    10  C   -0.032590  -0.037405   0.400120   0.395967  -0.040100  -0.038483
    11  C   -0.002273   0.004142  -0.035861  -0.045628   0.396710   0.400287
    12  C    0.000636  -0.000361   0.004211  -0.001234  -0.036651  -0.037870
    13  C   -0.006306   0.003863  -0.000376   0.000320  -0.005849   0.004140
    14  H    0.000064  -0.000049   0.000009  -0.000044   0.000008  -0.000058
    15  N    0.006948   0.000078  -0.000029   0.000002   0.006729   0.000043
    16  C    0.002540  -0.000032   0.000002  -0.000001   0.000062   0.000005
    17  H    0.000011  -0.000001  -0.000000   0.000000   0.000000   0.000000
    18  H   -0.000127   0.002882  -0.000000   0.000002   0.000000  -0.000000
    19  H    0.507115  -0.024041  -0.002593   0.003759   0.001641  -0.000070
    20  H   -0.024041   0.550287  -0.002613  -0.002968  -0.000050  -0.000090
    21  H   -0.002593  -0.002613   0.526370  -0.024716  -0.002816  -0.002059
    22  H    0.003759  -0.002968  -0.024716   0.568911   0.004063  -0.003596
    23  H    0.001641  -0.000050  -0.002816   0.004063   0.509896  -0.025012
    24  H   -0.000070  -0.000090  -0.002059  -0.003596  -0.025012   0.541200
    25  H   -0.000027   0.000011  -0.000086  -0.000082  -0.002095  -0.002380
    26  H    0.000023  -0.000035  -0.000074   0.002465   0.003822  -0.002770
    27  H    0.000074  -0.000000  -0.000000   0.000000  -0.000022  -0.000000
              25         26         27
     1  O    0.000000   0.000000   0.004832
     2  N   -0.000000  -0.000000  -0.000121
     3  O    0.000000   0.000000  -0.000011
     4  C    0.000019   0.000006  -0.065209
     5  C   -0.000001  -0.000001   0.002178
     6  N   -0.000071  -0.000067   0.000050
     7  C    0.004978  -0.004449  -0.000407
     8  H   -0.000004   0.001608   0.000009
     9  C   -0.000370   0.001036  -0.000059
    10  C    0.004098  -0.002399   0.000005
    11  C   -0.033965  -0.042301   0.000005
    12  C    0.395449   0.394727  -0.000018
    13  C   -0.034512  -0.044770   0.004897
    14  H   -0.002655  -0.000912  -0.000177
    15  N    0.000740   0.004185  -0.040544
    16  C   -0.000064  -0.000055   0.402242
    17  H   -0.000000   0.000000  -0.000059
    18  H    0.000002  -0.000001   0.000002
    19  H   -0.000027   0.000023   0.000074
    20  H    0.000011  -0.000035  -0.000000
    21  H   -0.000086  -0.000074  -0.000000
    22  H   -0.000082   0.002465   0.000000
    23  H   -0.002095   0.003822  -0.000022
    24  H   -0.002380  -0.002770  -0.000000
    25  H    0.510738  -0.023107  -0.000010
    26  H   -0.023107   0.560807   0.000001
    27  H   -0.000010   0.000001   0.452841
 Mulliken charges:
               1
     1  O   -0.453471
     2  N    0.513817
     3  O   -0.490286
     4  C   -0.028138
     5  C    0.196796
     6  N   -0.795376
     7  C    0.059973
     8  H    0.178247
     9  C   -0.311229
    10  C   -0.321113
    11  C   -0.315571
    12  C   -0.312284
    13  C   -0.027597
    14  H    0.195112
    15  N   -0.496725
    16  C    0.131185
    17  H    0.286197
    18  H    0.395952
    19  H    0.189598
    20  H    0.154304
    21  H    0.172444
    22  H    0.149248
    23  H    0.191205
    24  H    0.162555
    25  H    0.183395
    26  H    0.152261
    27  H    0.239500
 Sum of Mulliken charges =  -0.00000
 Mulliken charges with hydrogens summed into heavy atoms:
               1
     1  O   -0.453471
     2  N    0.513817
     3  O   -0.490286
     4  C   -0.028138
     5  C    0.482993
     6  N   -0.399424
     7  C    0.238221
     9  C    0.032674
    10  C    0.000579
    11  C    0.038189
    12  C    0.023372
    13  C    0.167515
    15  N   -0.496725
    16  C    0.370684
 Electronic spatial extent (au):  <R**2>=           3124.3085
 Charge=             -0.0000 electrons
 Dipole moment (field-independent basis, Debye):
    X=              5.2216    Y=              4.4535    Z=              0.4636  Tot=              6.8785
 Quadrupole moment (field-independent basis, Debye-Ang):
   XX=           -104.8387   YY=            -80.3623   ZZ=            -82.2836
   XY=             -1.8042   XZ=              1.0752   YZ=             -0.0032
 Traceless Quadrupole moment (field-independent basis, Debye-Ang):
   XX=            -15.6772   YY=              8.7992   ZZ=              6.8779
   XY=             -1.8042   XZ=              1.0752   YZ=             -0.0032
 Octapole moment (field-independent basis, Debye-Ang**2):
  XXX=             98.2188  YYY=             35.9830  ZZZ=             -5.4371  XYY=             -1.4822
  XXY=             11.0864  XXZ=             -1.1891  XZZ=             -8.3318  YZZ=             -3.0087
  YYZ=              0.5453  XYZ=             -1.3953
 Hexadecapole moment (field-independent basis, Debye-Ang**3):
 XXXX=          -3549.4945 YYYY=           -618.9990 ZZZZ=           -298.9095 XXXY=            -34.0944
 XXXZ=             31.9965 YYYX=            -16.3745 YYYZ=             11.0394 ZZZX=             23.6948
 ZZZY=              8.9096 XXYY=           -656.5985 XXZZ=           -543.7616 YYZZ=           -164.2573
 XXYZ=              2.0505 YYXZ=             11.2248 ZZXY=              3.6988
 N-N= 9.174836694974D+02 E-N=-3.380979689698D+03  KE= 6.588442054727D+02
 Calling FoFJK, ICntrl=  10002127 FMM=F ISym2X=0 I1Cent= 0 IOpClX= 0 NMat=1 NMatS=1 NMatT=0.
 -------------------------------------------------------------------
 Center     Atomic                   Forces (Hartrees/Bohr)
 Number     Number              X              Y              Z
 -------------------------------------------------------------------
      1        8          -0.010758930   -0.018157955   -0.002543646
      2        7           0.051696088    0.005394052   -0.003451831
      3        8          -0.002832848    0.010252644    0.002442014
      4        6          -0.004190332    0.020180379    0.011806417
      5        6           0.005215928   -0.016672599   -0.005685171
      6        7           0.015142522   -0.009313005   -0.006059566
      7        6          -0.004874023    0.005343409    0.002818711
      8        1          -0.009990859   -0.001810130   -0.007676948
      9        6          -0.003923445    0.000101729   -0.002107793
     10        6           0.002826190   -0.000856978    0.000954410
     11        6          -0.001047837   -0.004608963   -0.002422043
     12        6           0.000830318   -0.008753510   -0.002844277
     13        6           0.009103560   -0.002040741    0.005184014
     14        1           0.000923775    0.004520884   -0.009830013
     15        7          -0.000533814    0.002215123    0.001173643
     16        6          -0.023646606    0.006700741    0.003337110
     17        1           0.006940388   -0.005904381   -0.006374076
     18        1          -0.017430459   -0.001745724    0.006330389
     19        1           0.003086378    0.005902637    0.007698497
     20        1          -0.003261245   -0.007344519    0.002602699
     21        1          -0.004378661    0.002389730    0.009604585
     22        1          -0.003955860   -0.003983528   -0.007416334
     23        1           0.003962792    0.006133725    0.009299197
     24        1          -0.009372652    0.002608512   -0.002161801
     25        1          -0.000752965    0.010576600   -0.002394931
     26        1          -0.004770547   -0.004817539   -0.004397840
     27        1           0.005993143    0.003689409    0.002114585
 -------------------------------------------------------------------
 Cartesian Forces:  Max     0.051696088 RMS     0.009351700

 GradGradGradGradGradGradGradGradGradGradGradGradGradGradGradGradGradGrad
 Berny optimization.
 FormGI is forming the generalized inverse of G from B-inverse, IUseBI=4.
 Internal  Forces:  Max     0.037191777 RMS     0.006886724
 Search for a local minimum.
 Step number   1 out of a maximum of   20
 All quantities printed in internal units (Hartrees-Bohrs-Radians)
 Mixed Optimization -- RFO/linear search
 Second derivative matrix not updated -- first step.
 ITU=  0
     Eigenvalues ---    0.00231   0.00770   0.01029   0.01138   0.01192
     Eigenvalues ---    0.01469   0.01528   0.01594   0.01962   0.02015
     Eigenvalues ---    0.02091   0.02689   0.03663   0.04506   0.04694
     Eigenvalues ---    0.04838   0.05082   0.05138   0.05304   0.05894
     Eigenvalues ---    0.06265   0.07216   0.07701   0.07726   0.07873
     Eigenvalues ---    0.07993   0.08050   0.08058   0.10459   0.11739
     Eigenvalues ---    0.12268   0.13491   0.15258   0.15741   0.15991
     Eigenvalues ---    0.16000   0.20085   0.21940   0.23139   0.24980
     Eigenvalues ---    0.25000   0.25373   0.26205   0.26651   0.27979
     Eigenvalues ---    0.28083   0.28474   0.29230   0.31459   0.31540
     Eigenvalues ---    0.32046   0.32237   0.32290   0.32380   0.32388
     Eigenvalues ---    0.32405   0.32516   0.32526   0.32580   0.33107
     Eigenvalues ---    0.33380   0.33613   0.35371   0.43883   0.44320
     Eigenvalues ---    0.49134   0.66979   0.90547   0.909951000.00000
     Eigenvalues --- 1000.000001000.000001000.000001000.000001000.00000
     Eigenvalues --- 1000.000001000.000001000.000001000.000001000.00000
     Eigenvalues --- 1000.000001000.000001000.000001000.000001000.00000
     Eigenvalues --- 1000.000001000.000001000.000001000.000001000.00000
     Eigenvalues --- 1000.000001000.000001000.000001000.000001000.00000
     Eigenvalues --- 1000.000001000.000001000.000001000.000001000.00000
     Eigenvalues --- 1000.000001000.000001000.000001000.000001000.00000
     Eigenvalues --- 1000.000001000.000001000.000001000.000001000.00000
     Eigenvalues --- 1000.000001000.000001000.000001000.000001000.00000
     Eigenvalues --- 1000.000001000.000001000.000001000.000001000.00000
     Eigenvalues --- 1000.000001000.000001000.000001000.000001000.00000
     Eigenvalues --- 1000.000001000.000001000.000001000.000001000.00000
     Eigenvalues --- 1000.000001000.000001000.000001000.000001000.00000
     Eigenvalues --- 1000.000001000.000001000.000001000.000001000.00000
     Eigenvalues --- 1000.000001000.000001000.000001000.000001000.00000
     Eigenvalues --- 1000.000001000.000001000.000001000.000001000.00000
     Eigenvalues --- 1000.000001000.000001000.000001000.000001000.00000
     Eigenvalues --- 1000.000001000.000001000.000001000.000001000.00000
     Eigenvalues --- 1000.00000
 RFO step:  Lambda=-2.33522212D-02 EMin= 2.30545198D-03
 Linear search not attempted -- first point.
 Iteration  1 RMS(Cart)=  0.05495119 RMS(Int)=  0.00103723
 Iteration  2 RMS(Cart)=  0.00113283 RMS(Int)=  0.00021356
 Iteration  3 RMS(Cart)=  0.00000090 RMS(Int)=  0.00021356
 Iteration  1 RMS(Cart)=  0.00003395 RMS(Int)=  0.00002423
 Iteration  2 RMS(Cart)=  0.00001667 RMS(Int)=  0.00002698
 Iteration  3 RMS(Cart)=  0.00000869 RMS(Int)=  0.00002995
 Iteration  4 RMS(Cart)=  0.00000489 RMS(Int)=  0.00003177
 Iteration  5 RMS(Cart)=  0.00000304 RMS(Int)=  0.00003283
 Iteration  6 RMS(Cart)=  0.00000211 RMS(Int)=  0.00003348
 Iteration  7 RMS(Cart)=  0.00000161 RMS(Int)=  0.00003390
 Iteration  8 RMS(Cart)=  0.00000131 RMS(Int)=  0.00003420
 Iteration  9 RMS(Cart)=  0.00000110 RMS(Int)=  0.00003442
 Iteration 10 RMS(Cart)=  0.00000093 RMS(Int)=  0.00003460
 Variable       Old X    -DE/DX   Delta X   Delta X   Delta X     New X
                                 (Linear)    (Quad)   (Total)
    R1        2.32478   0.02041   0.00000   0.02187   0.02187   2.34665
    R2        2.32682   0.00987   0.00000   0.01062   0.01062   2.33744
    R3        2.89525  -0.03719   0.00000  -0.11782  -0.11782   2.77742
    R4        2.64384  -0.03338   0.00000  -0.07216  -0.07189   2.57195
    R5        2.81576  -0.02371   0.00000  -0.06855  -0.06831   2.74746
    R6        2.59090  -0.02400   0.00000  -0.04662  -0.04651   2.54439
    R7        2.08389  -0.01023   0.00000  -0.02863  -0.02863   2.05526
    R8        2.82444  -0.01977   0.00000  -0.05496  -0.05508   2.76937
    R9        1.93295  -0.00667   0.00000  -0.01443  -0.01443   1.91852
   R10        2.11846  -0.01187   0.00000  -0.03513  -0.03513   2.08333
   R11        2.92739  -0.01300   0.00000  -0.04435  -0.04437   2.88302
   R12        2.90247  -0.00445   0.00000  -0.00872  -0.00882   2.89365
   R13        2.91139  -0.00466   0.00000  -0.01434  -0.01436   2.89703
   R14        2.09910  -0.00997   0.00000  -0.02859  -0.02859   2.07051
   R15        2.09892  -0.00802   0.00000  -0.02302  -0.02302   2.07590
   R16        2.90429  -0.00182   0.00000  -0.00714  -0.00719   2.89710
   R17        2.10140  -0.01057   0.00000  -0.03044  -0.03044   2.07096
   R18        2.10317  -0.00901   0.00000  -0.02602  -0.02602   2.07715
   R19        2.91770  -0.00904   0.00000  -0.02869  -0.02866   2.88903
   R20        2.10412  -0.01167   0.00000  -0.03376  -0.03376   2.07036
   R21        2.10109  -0.00994   0.00000  -0.02862  -0.02862   2.07247
   R22        2.93534  -0.01051   0.00000  -0.03639  -0.03638   2.89896
   R23        2.10154  -0.01071   0.00000  -0.03086  -0.03086   2.07068
   R24        2.09795  -0.00787   0.00000  -0.02255  -0.02255   2.07541
   R25        2.10759  -0.00915   0.00000  -0.02662  -0.02662   2.08098
   R26        2.76771  -0.00490   0.00000  -0.01005  -0.01034   2.75737
   R27        2.44277  -0.00600   0.00000  -0.00817  -0.00819   2.43458
   R28        2.07987  -0.00643   0.00000  -0.01790  -0.01790   2.06198
    A1        2.19169  -0.00104   0.00000   0.01961   0.01956   2.21125
    A2        1.98364   0.01277   0.00000   0.00000  -0.00000   1.98364
    A3        2.10781  -0.01172   0.00000  -0.01948  -0.01953   2.08828
    A4        2.01253  -0.00391   0.00000  -0.01209  -0.01250   2.00003
    A5        2.05797  -0.00663   0.00000  -0.02201  -0.02243   2.03554
    A6        2.21188   0.01048   0.00000   0.03273   0.03297   2.24485
    A7        2.20184   0.00681   0.00000   0.02210   0.02246   2.22430
    A8        2.06412  -0.00373   0.00000  -0.01263  -0.01287   2.05124
    A9        2.01627  -0.00304   0.00000  -0.00872  -0.00898   2.00729
   A10        2.25375  -0.00627   0.00000  -0.02204  -0.02209   2.23166
   A11        2.11601  -0.01203   0.00000  -0.06990  -0.07019   2.04582
   A12        1.87522   0.01846   0.00000   0.09869   0.09883   1.97405
   A13        1.83794  -0.00145   0.00000  -0.01737  -0.01717   1.82077
   A14        2.00679  -0.00116   0.00000  -0.01227  -0.01226   1.99453
   A15        1.96721   0.00092   0.00000   0.00165   0.00113   1.96833
   A16        1.85181   0.00265   0.00000   0.02399   0.02382   1.87563
   A17        1.84905   0.00075   0.00000   0.01740   0.01726   1.86631
   A18        1.93701  -0.00139   0.00000  -0.00924  -0.00892   1.92809
   A19        1.91018   0.00013   0.00000  -0.00464  -0.00478   1.90541
   A20        1.92261  -0.00073   0.00000  -0.01289  -0.01286   1.90975
   A21        1.92283  -0.00165   0.00000  -0.00726  -0.00726   1.91557
   A22        1.91925  -0.00040   0.00000   0.00578   0.00573   1.92498
   A23        1.90442   0.00306   0.00000   0.02447   0.02449   1.92891
   A24        1.88435  -0.00039   0.00000  -0.00503  -0.00529   1.87906
   A25        1.94041  -0.00087   0.00000   0.00568   0.00555   1.94596
   A26        1.91895  -0.00069   0.00000  -0.00671  -0.00672   1.91223
   A27        1.90499   0.00030   0.00000  -0.00299  -0.00305   1.90194
   A28        1.91613   0.00080   0.00000   0.00711   0.00716   1.92330
   A29        1.89850   0.00169   0.00000   0.01107   0.01110   1.90960
   A30        1.88382  -0.00123   0.00000  -0.01465  -0.01473   1.86909
   A31        1.94470   0.00061   0.00000   0.00503   0.00517   1.94986
   A32        1.90236   0.00064   0.00000   0.00587   0.00581   1.90817
   A33        1.91751   0.00037   0.00000   0.00532   0.00530   1.92280
   A34        1.90648  -0.00111   0.00000  -0.01401  -0.01406   1.89242
   A35        1.91538  -0.00047   0.00000   0.00009  -0.00000   1.91538
   A36        1.87604  -0.00007   0.00000  -0.00268  -0.00271   1.87334
   A37        1.94807  -0.00290   0.00000  -0.01798  -0.01801   1.93006
   A38        1.90594   0.00253   0.00000   0.01695   0.01680   1.92274
   A39        1.91065   0.00135   0.00000   0.01314   0.01312   1.92377
   A40        1.90608   0.00016   0.00000  -0.00280  -0.00263   1.90344
   A41        1.91127  -0.00021   0.00000  -0.00489  -0.00484   1.90644
   A42        1.88058  -0.00086   0.00000  -0.00395  -0.00413   1.87644
   A43        1.84669   0.00444   0.00000   0.02377   0.02381   1.87050
   A44        1.93905  -0.00424   0.00000  -0.03155  -0.03196   1.90709
   A45        1.98223   0.00084   0.00000   0.01124   0.01141   1.99364
   A46        1.88050   0.00222   0.00000   0.03027   0.03057   1.91107
   A47        1.89208  -0.00380   0.00000  -0.02841  -0.02845   1.86363
   A48        1.91870   0.00075   0.00000  -0.00299  -0.00284   1.91586
   A49        2.08298  -0.00528   0.00000  -0.01079  -0.01115   2.07183
   A50        2.25169  -0.00585   0.00000  -0.02453  -0.02459   2.22710
   A51        1.97906   0.00609   0.00000   0.02962   0.02914   2.00820
   A52        2.05241  -0.00022   0.00000  -0.00476  -0.00523   2.04718
    D1       -3.03761  -0.00085   0.00000  -0.03334  -0.03265  -3.07026
    D2        0.14413   0.00031   0.00000   0.00000  -0.00000   0.14413
    D3        0.11368  -0.00140   0.00000  -0.04750  -0.04715   0.06653
    D4       -2.98776  -0.00024   0.00000  -0.01416  -0.01451  -3.00227
    D5        3.07545   0.00046   0.00000   0.01280   0.01301   3.08846
    D6       -0.01704  -0.00049   0.00000  -0.00632  -0.00617  -0.02321
    D7       -0.11041  -0.00132   0.00000  -0.02557  -0.02603  -0.13644
    D8        3.08028  -0.00228   0.00000  -0.04468  -0.04521   3.03507
    D9       -2.69229  -0.00192   0.00000  -0.04381  -0.04421  -2.73650
   D10        0.44105   0.00056   0.00000   0.00591   0.00581   0.44685
   D11        0.49460  -0.00017   0.00000  -0.00483  -0.00476   0.48984
   D12       -2.65526   0.00231   0.00000   0.04489   0.04526  -2.60999
   D13       -0.13866  -0.00006   0.00000   0.02649   0.02670  -0.11195
   D14        2.67091   0.00374   0.00000   0.07154   0.07071   2.74163
   D15        2.95501   0.00085   0.00000   0.04502   0.04535   3.00036
   D16       -0.51860   0.00464   0.00000   0.09007   0.08936  -0.42924
   D17       -2.47446  -0.00079   0.00000  -0.02051  -0.02016  -2.49462
   D18        1.77708  -0.00247   0.00000  -0.03196  -0.03165   1.74543
   D19       -0.46661  -0.00029   0.00000  -0.00918  -0.00917  -0.47578
   D20        0.96359  -0.00015   0.00000  -0.03800  -0.03841   0.92518
   D21       -1.06806  -0.00183   0.00000  -0.04946  -0.04990  -1.11796
   D22        2.97144   0.00035   0.00000  -0.02668  -0.02743   2.94401
   D23        2.94439   0.00242   0.00000   0.02548   0.02541   2.96980
   D24       -1.22662   0.00155   0.00000   0.02151   0.02145  -1.20517
   D25        0.85040  -0.00042   0.00000   0.00273   0.00274   0.85314
   D26        0.92067   0.00310   0.00000   0.03779   0.03780   0.95847
   D27        3.03285   0.00223   0.00000   0.03382   0.03384   3.06669
   D28       -1.17332   0.00026   0.00000   0.01504   0.01513  -1.15818
   D29       -1.08014   0.00142   0.00000   0.00854   0.00850  -1.07165
   D30        1.03203   0.00055   0.00000   0.00457   0.00454   1.03657
   D31        3.10905  -0.00141   0.00000  -0.01421  -0.01416   3.09488
   D32       -2.90051  -0.00114   0.00000  -0.01303  -0.01279  -2.91331
   D33       -0.86435   0.00188   0.00000   0.02044   0.02028  -0.84406
   D34        1.30938   0.00015   0.00000   0.00000  -0.00001   1.30938
   D35       -0.89937  -0.00196   0.00000  -0.02268  -0.02257  -0.92193
   D36        1.13680   0.00106   0.00000   0.01079   0.01051   1.14731
   D37       -2.97266  -0.00067   0.00000  -0.00965  -0.00978  -2.98244
   D38        1.10317   0.00090   0.00000   0.01069   0.01080   1.11397
   D39        3.13934   0.00392   0.00000   0.04416   0.04388  -3.09997
   D40       -0.97012   0.00219   0.00000   0.02372   0.02359  -0.94653
   D41        0.95666   0.00063   0.00000   0.00000   0.00001   0.95667
   D42        3.08230   0.00059   0.00000   0.00821   0.00817   3.09046
   D43       -1.13764  -0.00112   0.00000  -0.01534  -0.01531  -1.15294
   D44       -1.15756   0.00170   0.00000   0.01526   0.01533  -1.14223
   D45        0.96808   0.00166   0.00000   0.02347   0.02349   0.99157
   D46        3.03133  -0.00005   0.00000  -0.00008   0.00002   3.03135
   D47        3.06189   0.00057   0.00000   0.00333   0.00330   3.06519
   D48       -1.09565   0.00053   0.00000   0.01154   0.01146  -1.08420
   D49        0.96760  -0.00118   0.00000  -0.01201  -0.01202   0.95558
   D50       -0.92193  -0.00080   0.00000   0.00000   0.00001  -0.92192
   D51        1.18326  -0.00138   0.00000  -0.01041  -0.01042   1.17284
   D52       -3.04850  -0.00087   0.00000  -0.00713  -0.00717  -3.05567
   D53       -3.04921   0.00010   0.00000  -0.00015  -0.00013  -3.04934
   D54       -0.94402  -0.00047   0.00000  -0.01056  -0.01056  -0.95457
   D55        1.10741   0.00003   0.00000  -0.00728  -0.00730   1.10010
   D56        1.17621   0.00013   0.00000   0.00696   0.00699   1.18320
   D57       -3.00178  -0.00044   0.00000  -0.00345  -0.00344  -3.00522
   D58       -0.95036   0.00006   0.00000  -0.00017  -0.00018  -0.95054
   D59        0.98766  -0.00079   0.00000  -0.01194  -0.01200   0.97565
   D60        3.09688  -0.00075   0.00000  -0.01565  -0.01581   3.08107
   D61       -1.13127   0.00046   0.00000  -0.00293  -0.00291  -1.13418
   D62       -1.11512  -0.00124   0.00000  -0.01322  -0.01322  -1.12833
   D63        0.99410  -0.00121   0.00000  -0.01692  -0.01702   0.97708
   D64        3.04914   0.00000   0.00000  -0.00420  -0.00412   3.04502
   D65        3.11545  -0.00023   0.00000  -0.00180  -0.00180   3.11365
   D66       -1.05851  -0.00019   0.00000  -0.00550  -0.00561  -1.06412
   D67        0.99652   0.00102   0.00000   0.00722   0.00729   1.00381
   D68       -1.05209   0.00008   0.00000   0.00015   0.00025  -1.05184
   D69       -3.12744   0.00159   0.00000   0.00930   0.00894  -3.11851
   D70        1.08000   0.00155   0.00000   0.01161   0.01148   1.09148
   D71        3.12196  -0.00133   0.00000  -0.00767  -0.00749   3.11446
   D72        1.04660   0.00017   0.00000   0.00149   0.00120   1.04780
   D73       -1.02914   0.00013   0.00000   0.00379   0.00375  -1.02539
   D74        1.06648  -0.00026   0.00000   0.00158   0.00179   1.06827
   D75       -1.00888   0.00124   0.00000   0.01073   0.01048  -0.99840
   D76       -3.08462   0.00120   0.00000   0.01303   0.01303  -3.07159
   D77       -1.17217   0.00339   0.00000   0.00000  -0.00001  -1.17217
   D78        3.06397  -0.00012   0.00000  -0.01750  -0.01737   3.04660
   D79        1.01250  -0.00101   0.00000  -0.03571  -0.03597   0.97652
   D80        0.12621   0.00197   0.00000   0.01834   0.01812   0.14434
   D81       -3.00683  -0.00062   0.00000  -0.03328  -0.03300  -3.03983
         Item               Value     Threshold  Converged?
 Maximum Force            0.037192     0.000450     NO 
 RMS     Force            0.006879     0.000300     NO 
 Maximum Displacement     0.296383     0.001800     NO 
 RMS     Displacement     0.055088     0.001200     NO 
 Predicted change in Energy=-1.305162D-02
 GradGradGradGradGradGradGradGradGradGradGradGradGradGradGradGradGradGrad

                          Input orientation:                          
 ---------------------------------------------------------------------
 Center     Atomic      Atomic             Coordinates (Angstroms)
 Number     Number       Type             X           Y           Z
 ---------------------------------------------------------------------
      1          8           0       -3.449598   -1.427017   -0.219637
      2          7           0       -3.136079   -0.240434   -0.030493
      3          8           0       -3.908601    0.707795    0.154025
      4          6           0       -1.685058   -0.006550   -0.031403
      5          6           0       -1.317023    1.270763    0.260819
      6          7           0       -0.066576    1.754042    0.386104
      7          6           0        1.193191    1.005531    0.366902
      8          1           0        1.825717    1.517040    1.110987
      9          6           0        1.929469    1.050820   -0.968534
     10          6           0        3.328799    0.449881   -0.792560
     11          6           0        3.263132   -0.962713   -0.200444
     12          6           0        2.437957   -0.999100    1.086033
     13          6           0        1.030110   -0.441741    0.839718
     14          1           0        0.459891   -0.454217    1.781709
     15          7           0        0.393194   -1.321736   -0.134461
     16          6           0       -0.845104   -1.124277   -0.430106
     17          1           0       -2.109508    1.993160    0.442408
     18          1           0        0.061036    2.752257    0.251989
     19          1           0        1.363593    0.483693   -1.715955
     20          1           0        1.997833    2.089425   -1.319778
     21          1           0        3.844411    0.431264   -1.759414
     22          1           0        3.915031    1.098402   -0.126266
     23          1           0        2.801067   -1.639587   -0.927526
     24          1           0        4.274752   -1.337111   -0.002419
     25          1           0        2.356165   -2.028210    1.453353
     26          1           0        2.929603   -0.406718    1.869319
     27          1           0       -1.325394   -1.852674   -1.085371
 ---------------------------------------------------------------------
                    Distance matrix (angstroms):
                    1          2          3          4          5
     1  O    0.000000
     2  N    1.241792   0.000000
     3  O    2.215339   1.236922   0.000000
     4  C    2.273050   1.469749   2.342822   0.000000
     5  C    3.472279   2.382759   2.654169   1.361018   0.000000
     6  N    4.683044   3.684201   3.988691   2.427650   1.346431
     7  C    5.274164   4.522491   5.114904   3.076893   2.526416
     8  H    6.186030   5.386196   5.869672   3.993986   3.265004
     9  C    5.969496   5.311029   5.954903   3.880857   3.478419
    10  C    7.056745   6.546139   7.303595   5.091803   4.833955
    11  C    6.728796   6.442086   7.372245   5.042560   5.116542
    12  C    6.045758   5.735161   6.637840   4.385553   4.464653
    13  C    4.707525   4.260860   5.116882   2.884508   2.962571
    14  H    4.498425   4.032465   4.804513   2.844044   2.906215
    15  N    3.845177   3.692667   4.765255   2.461598   3.130836
    16  C    2.630463   2.487857   3.617003   1.453891   2.536986
    17  H    3.732526   2.503282   2.229812   2.098450   1.087595
    18  H    5.478440   4.388341   4.466255   3.277220   2.023351
    19  H    5.390416   4.859238   5.598489   3.517432   3.422400
    20  H    6.576487   5.783386   6.242352   4.429075   3.762548
    21  H    7.682883   7.222714   7.990427   5.809710   5.605935
    22  H    7.786155   7.177730   7.838390   5.708846   5.249185
    23  H    6.294212   6.165387   7.190243   4.857485   5.180827
    24  H    7.727926   7.491589   8.436432   6.106600   6.175617
    25  H    6.071837   5.963446   6.958539   4.756374   5.079141
    26  H    6.789621   6.358414   7.137605   5.006793   4.840976
    27  H    2.333007   2.643987   3.842533   2.156010   3.401199
                    6          7          8          9         10
     6  N    0.000000
     7  C    1.465486   0.000000
     8  H    2.040195   1.102449   0.000000
     9  C    2.512720   1.525629   2.133667   0.000000
    10  C    3.823435   2.492774   2.649826   1.533042   0.000000
    11  C    4.337251   2.912133   3.152013   2.534350   1.533080
    12  C    3.787132   2.466807   2.589676   2.946519   2.534217
    13  C    2.495986   1.531256   2.131525   2.511246   2.956906
    14  H    2.664824   2.161081   2.490221   3.462460   3.959152
    15  N    3.153218   2.511479   3.414954   2.947005   3.491346
    16  C    3.091444   3.053842   4.060149   3.566400   4.475580
    17  H    2.057649   3.448033   4.019911   4.380879   5.786367
    18  H    1.015236   2.084714   2.318995   2.806351   4.131622
    19  H    2.842151   2.153983   3.045154   1.095667   2.171597
    20  H    2.698944   2.160362   2.503172   1.098521   2.176588
    21  H    4.652828   3.446734   3.673315   2.162486   1.095906
    22  H    4.067626   2.767716   2.463999   2.157345   1.099179
    23  H    4.633111   3.355213   3.882156   2.828365   2.159304
    24  H    5.343529   3.888494   3.922196   3.483668   2.170827
    25  H    4.616722   3.425853   3.601026   3.940563   3.482970
    26  H    3.980690   2.695706   2.344030   3.343365   2.824662
    27  H    4.093686   4.076972   5.109644   4.363263   5.200867
                   11         12         13         14         15
    11  C    0.000000
    12  C    1.528810   0.000000
    13  C    2.517883   1.534064   0.000000
    14  H    3.470686   2.166473   1.101205   0.000000
    15  N    2.893060   2.403072   1.459136   2.104458   0.000000
    16  C    4.117822   3.618403   2.365320   2.654076   1.288324
    17  H    6.165688   5.481542   3.992969   3.792781   4.193426
    18  H    4.925355   4.518635   3.389123   3.574998   4.105739
    19  H    2.827916   3.347247   2.738448   3.732292   2.588893
    20  H    3.488472   3.939622   3.465070   4.295882   3.951691
    21  H    2.170586   3.481469   3.929111   4.977811   4.198140
    22  H    2.163022   2.837416   3.409975   4.241342   4.273227
    23  H    1.095587   2.143943   2.773855   3.771758   2.554963
    24  H    1.096705   2.161665   3.469666   4.302996   3.883834
    25  H    2.166315   1.095757   2.156816   2.486187   2.621739
    26  H    2.168937   1.098257   2.160874   2.471722   3.359429
    27  H    4.757069   4.427911   3.353372   3.655553   2.034618
                   16         17         18         19         20
    16  C    0.000000
    17  H    3.475400   0.000000
    18  H    4.039042   2.307325   0.000000
    19  H    3.019490   4.358836   3.273506   0.000000
    20  H    4.381973   4.470438   2.580887   1.771325   0.000000
    21  H    5.116476   6.537331   4.873057   2.481752   2.520443
    22  H    5.262272   6.117112   4.210890   3.068356   2.466221
    23  H    3.715849   6.259977   5.309173   2.682585   3.834655
    24  H    5.142095   7.214385   5.877334   3.837496   4.319832
    25  H    3.822648   6.093903   5.437257   4.164057   4.977307
    26  H    4.477797   5.760914   4.563284   4.012406   4.155630
    27  H    1.091152   4.211814   4.991604   3.617582   5.161292
                   21         22         23         24         25
    21  H    0.000000
    22  H    1.765569   0.000000
    23  H    2.463539   3.062599   0.000000
    24  H    2.529699   2.465047   1.766087   0.000000
    25  H    4.311121   3.834184   2.453070   2.505567   0.000000
    26  H    3.834943   2.686784   3.059220   2.485650   1.769491
    27  H    5.691889   6.090221   4.134973   5.727148   4.475467
                   26         27
    26  H    0.000000
    27  H    5.378288   0.000000
 Symmetry turned off by external request.
 Stoichiometry    C9H13N3O2
 Framework group  C1[X(C9H13N3O2)]
 Deg. of freedom    75
 Full point group                 C1      NOp   1
 Rotational constants (GHZ):           1.6889874           0.4214892           0.3721336
 Standard basis: 6-31G(d) (6D, 7F)
   236 basis functions,   444 primitive gaussians,   236 cartesian basis functions
    52 alpha electrons       52 beta electrons
       nuclear repulsion energy       932.0606631690 Hartrees.
 NAtoms=   27 NActive=   27 NUniq=   27 SFac= 1.00D+00 NAtFMM=   60 NAOKFM=F Big=F
 Integral buffers will be    131072 words long.
 Raffenetti 1 integral format.
 Two-electron integral symmetry is turned off.
 One-electron integrals computed using PRISM.
 NBasis=   236 RedAO= T EigKep=  1.03D-03  NBF=   236
 NBsUse=   236 1.00D-06 EigRej= -1.00D+00 NBFU=   236
 Initial guess from the checkpoint file:  "/home/alexey/tmp/Gau-1327410.chk"
 B after Tr=     0.054683    0.003175   -0.000919
         Rot=    0.999999   -0.000746    0.000954    0.000762 Ang=  -0.16 deg.
 ExpMin= 1.61D-01 ExpMax= 5.48D+03 ExpMxC= 8.25D+02 IAcc=3 IRadAn=         5 AccDes= 0.00D+00
 Harris functional with IExCor=  205 and IRadAn=       5 diagonalized for initial guess.
 HarFok:  IExCor=  205 AccDes= 0.00D+00 IRadAn=         5 IDoV= 1 UseB2=F ITyADJ=14
 ICtDFT=  3500011 ScaDFX=  1.000000  1.000000  1.000000  1.000000
 FoFCou: FMM=F IPFlag=           0 FMFlag=      100000 FMFlg1=           0
         NFxFlg=           0 DoJE=T BraDBF=F KetDBF=T FulRan=T
         wScrn=  0.000000 ICntrl=       500 IOpCl=  0 I1Cent=   200000004 NGrid=           0
         NMat0=    1 NMatS0=      1 NMatT0=    0 NMatD0=    1 NMtDS0=    0 NMtDT0=    0
 Symmetry not used in FoFCou.
 Keep R1 ints in memory in canonical form, NReq=397720213.
 Requested convergence on RMS density matrix=1.00D-08 within 128 cycles.
 Requested convergence on MAX density matrix=1.00D-06.
 Requested convergence on             energy=1.00D-06.
 No special actions if energy rises.
 SCF Done:  E(RHF) =  -661.297507611     A.U. after   14 cycles
            NFock= 14  Conv=0.96D-08     -V/T= 2.0025
 ExpMin= 1.61D-01 ExpMax= 5.48D+03 ExpMxC= 8.25D+02 IAcc=3 IRadAn=         5 AccDes= 0.00D+00
 HarFok:  IExCor=  205 AccDes= 0.00D+00 IRadAn=         5 IDoV=-2 UseB2=F ITyADJ=14
 ICtDFT= 12500011 ScaDFX=  1.000000  1.000000  1.000000  1.000000
 Range of M.O.s used for correlation:    15   236
 NBasis=   236 NAE=    52 NBE=    52 NFC=    14 NFV=     0
 NROrb=    222 NOA=    38 NOB=    38 NVA=   184 NVB=   184
 Fully direct method using O(ONN) memory.
 JobTyp=1 Pass  1:  I=  15 to  52 NPSUse=  4 ParTrn=T ParDer=T DoDerP=T.
 Spin components of T(2) and E(2):
     alpha-alpha T2 =       0.9126104038D-01 E2=     -0.2723370241D+00
     alpha-beta  T2 =       0.4914093154D+00 E2=     -0.1488175413D+01
     beta-beta   T2 =       0.9126104038D-01 E2=     -0.2723370241D+00
 ANorm=    0.1293805007D+01
 E2 =    -0.2032849461D+01 EUMP2 =    -0.66333035707155D+03
          IDoAtm=111111111111111111111111111
          Differentiating once with respect to electric field.
                with respect to dipole field.
          Differentiating once with respect to nuclear coordinates.
 Keep R1 ints in memory in canonical form, NReq=397723379.
          There are     1 degrees of freedom in the 1st order CPHF.  IDoFFX=0 NUNeed=     1.
 LinEq1:  Iter=  0 NonCon=     1 RMS=4.57D-03 Max=1.13D-01 NDo=     1
 AX will form     1 AO Fock derivatives at one time.
 LinEq1:  Iter=  1 NonCon=     1 RMS=1.53D-03 Max=2.67D-02 NDo=     1
 LinEq1:  Iter=  2 NonCon=     1 RMS=6.38D-04 Max=1.89D-02 NDo=     1
 LinEq1:  Iter=  3 NonCon=     1 RMS=2.78D-04 Max=7.95D-03 NDo=     1
 LinEq1:  Iter=  4 NonCon=     1 RMS=8.61D-05 Max=1.83D-03 NDo=     1
 LinEq1:  Iter=  5 NonCon=     1 RMS=3.59D-05 Max=1.78D-03 NDo=     1
 LinEq1:  Iter=  6 NonCon=     1 RMS=1.39D-05 Max=5.32D-04 NDo=     1
 LinEq1:  Iter=  7 NonCon=     1 RMS=5.49D-06 Max=1.05D-04 NDo=     1
 LinEq1:  Iter=  8 NonCon=     1 RMS=2.18D-06 Max=5.04D-05 NDo=     1
[...]
    27  H    4.719313   4.417403   3.357660   3.661406   2.028462
                   16         17         18         19         20
    16  C    0.000000
    17  H    3.462843   0.000000
    18  H    4.091226   2.236946   0.000000
    19  H    2.990941   4.307098   3.514731   0.000000
    20  H    4.376349   4.454970   2.885821   1.768456   0.000000
    21  H    5.096201   6.514110   5.089377   2.499116   2.521185
    22  H    5.249558   6.101438   4.315130   3.070163   2.461382
    23  H    3.693654   6.233313   5.422276   2.704449   3.843027
    24  H    5.133430   7.198623   5.937539   3.849793   4.317155
    25  H    3.822079   6.081633   5.368689   4.172016   4.985140
    26  H    4.496826   5.775825   4.484239   4.036243   4.182155
    27  H    1.089087   4.216861   5.081200   3.577878   5.144042
                   21         22         23         24         25
    21  H    0.000000
    22  H    1.758854   0.000000
    23  H    2.469469   3.062240   0.000000
    24  H    2.517303   2.459868   1.764594   0.000000
    25  H    4.312036   3.839442   2.444170   2.519642   0.000000
    26  H    3.846618   2.704209   3.060395   2.491674   1.767979
    27  H    5.646249   6.056388   4.084111   5.689858   4.453972
                   26         27
    26  H    0.000000
    27  H    5.378204   0.000000
 Symmetry turned off by external request.
 Stoichiometry    C9H13N3O2
 Framework group  C1[X(C9H13N3O2)]
 Deg. of freedom    75
 Full point group                 C1      NOp   1
 Rotational constants (GHZ):           1.6808410           0.4200727           0.3725644

 **********************************************************************

            Population analysis using the SCF Density.

 **********************************************************************

 Alpha  occ. eigenvalues --  -20.59423 -20.59110 -15.84818 -15.63994 -15.56082
 Alpha  occ. eigenvalues --  -11.34878 -11.29553 -11.29518 -11.28574 -11.27090
 Alpha  occ. eigenvalues --  -11.23667 -11.23164 -11.22654 -11.22052  -1.57216
 Alpha  occ. eigenvalues --   -1.37121  -1.30866  -1.23005  -1.14576  -1.09701
 Alpha  occ. eigenvalues --   -1.02725  -1.01242  -0.94259  -0.89747  -0.85506
 Alpha  occ. eigenvalues --   -0.82413  -0.78561  -0.77455  -0.75095  -0.72020
 Alpha  occ. eigenvalues --   -0.69958  -0.69553  -0.67767  -0.64828  -0.63758
 Alpha  occ. eigenvalues --   -0.62291  -0.60242  -0.57636  -0.56956  -0.55032
 Alpha  occ. eigenvalues --   -0.54534  -0.50723  -0.50053  -0.48456  -0.48116
 Alpha  occ. eigenvalues --   -0.47571  -0.46111  -0.46057  -0.43883  -0.41599
 Alpha  occ. eigenvalues --   -0.39809  -0.33782
 Alpha virt. eigenvalues --    0.07633   0.11772   0.17378   0.21874   0.24114
 Alpha virt. eigenvalues --    0.25674   0.27161   0.28749   0.29086   0.29662
 Alpha virt. eigenvalues --    0.30689   0.31853   0.32058   0.32798   0.33991
 Alpha virt. eigenvalues --    0.34428   0.35939   0.37396   0.38622   0.40096
 Alpha virt. eigenvalues --    0.41254   0.42516   0.45254   0.46308   0.46780
 Alpha virt. eigenvalues --    0.47115   0.48615   0.54126   0.57715   0.59497
 Alpha virt. eigenvalues --    0.64028   0.69621   0.70017   0.72941   0.74298
 Alpha virt. eigenvalues --    0.74951   0.75835   0.76870   0.78685   0.79507
 Alpha virt. eigenvalues --    0.81503   0.84718   0.85758   0.85839   0.88559
 Alpha virt. eigenvalues --    0.89451   0.91038   0.92170   0.92900   0.94522
 Alpha virt. eigenvalues --    0.95464   0.98076   0.99730   1.01774   1.02498
 Alpha virt. eigenvalues --    1.03116   1.05927   1.06895   1.07823   1.09073
 Alpha virt. eigenvalues --    1.10265   1.11359   1.11890   1.12402   1.13965
 Alpha virt. eigenvalues --    1.14798   1.15024   1.15813   1.16976   1.18768
 Alpha virt. eigenvalues --    1.19159   1.21276   1.22485   1.23886   1.24404
 Alpha virt. eigenvalues --    1.24698   1.26369   1.26734   1.27619   1.29486
 Alpha virt. eigenvalues --    1.30180   1.33495   1.36280   1.37121   1.41063
 Alpha virt. eigenvalues --    1.42421   1.47214   1.48593   1.51248   1.54384
 Alpha virt. eigenvalues --    1.56162   1.58789   1.59724   1.63527   1.65507
 Alpha virt. eigenvalues --    1.67816   1.68635   1.72793   1.75460   1.77553
 Alpha virt. eigenvalues --    1.81690   1.84781   1.87816   1.90623   1.93399
 Alpha virt. eigenvalues --    1.95832   1.96728   1.99536   2.01519   2.02597
 Alpha virt. eigenvalues --    2.04923   2.05836   2.08168   2.09737   2.12204
 Alpha virt. eigenvalues --    2.13256   2.15351   2.18858   2.20008   2.22296
 Alpha virt. eigenvalues --    2.22748   2.24406   2.25675   2.28274   2.29611
 Alpha virt. eigenvalues --    2.32280   2.33804   2.34775   2.36565   2.38508
 Alpha virt. eigenvalues --    2.40507   2.41859   2.43221   2.45100   2.47901
 Alpha virt. eigenvalues --    2.50708   2.51968   2.53203   2.55627   2.61512
 Alpha virt. eigenvalues --    2.62428   2.65414   2.67819   2.70209   2.70525
 Alpha virt. eigenvalues --    2.72334   2.72617   2.77870   2.78382   2.82753
 Alpha virt. eigenvalues --    2.88366   2.89043   2.93064   2.93697   2.96382
 Alpha virt. eigenvalues --    2.99692   3.01350   3.04587   3.05962   3.07914
 Alpha virt. eigenvalues --    3.09449   3.15074   3.21038   3.25151   3.27053
 Alpha virt. eigenvalues --    3.33673   3.37758   3.38818   3.52312   3.65685
 Alpha virt. eigenvalues --    4.14433   4.28042   4.34907   4.38982   4.46259
 Alpha virt. eigenvalues --    4.56523   4.61936   4.62373   4.73489   4.79706
 Alpha virt. eigenvalues --    4.99397   5.00933   5.04977   5.11175
          Condensed to atoms (all electrons):
               1          2          3          4          5          6
     1  O    8.326509   0.300906  -0.077402  -0.091164   0.005121  -0.000020
     2  N    0.300906   5.716817   0.305206   0.264721  -0.057222   0.000967
     3  O   -0.077402   0.305206   8.343198  -0.091049   0.004674   0.000688
     4  C   -0.091164   0.264721  -0.091049   5.232129   0.555439  -0.046008
     5  C    0.005121  -0.057222   0.004674   0.555439   4.716032   0.317917
     6  N   -0.000020   0.000967   0.000688  -0.046008   0.317917   7.194032
     7  C    0.000005  -0.000145   0.000002   0.004313  -0.030431   0.170236
     8  H   -0.000000   0.000002  -0.000000  -0.000245   0.003119  -0.050665
     9  C   -0.000000  -0.000004  -0.000000   0.000834   0.000660  -0.061700
    10  C    0.000000   0.000000   0.000000  -0.000037  -0.000054   0.003748
    11  C   -0.000000  -0.000000  -0.000000  -0.000029   0.000025  -0.000190
    12  C   -0.000000   0.000002  -0.000000  -0.000122  -0.000177   0.003876
    13  C   -0.000033  -0.000029  -0.000004  -0.011260  -0.000739  -0.047616
    14  H   -0.000004  -0.000104   0.000001   0.002655   0.006152  -0.006995
    15  N    0.000425   0.002430  -0.000013  -0.063628  -0.006577   0.001561
    16  C   -0.001603  -0.024325   0.002273   0.332882  -0.049937  -0.001784
    17  H    0.000248  -0.007219   0.016987  -0.025293   0.376455  -0.034157
    18  H    0.000001  -0.000054   0.000012   0.001502  -0.031287   0.338760
    19  H    0.000001  -0.000004   0.000000  -0.001200   0.001217  -0.000342
    20  H    0.000000  -0.000000   0.000000  -0.000078   0.000154  -0.000408
    21  H   -0.000000   0.000000   0.000000   0.000001   0.000001  -0.000077
    22  H   -0.000000   0.000000  -0.000000  -0.000000  -0.000003  -0.000116
    23  H    0.000000  -0.000000   0.000000   0.000041  -0.000000  -0.000030
    24  H    0.000000   0.000000   0.000000   0.000000  -0.000000   0.000006
    25  H    0.000000  -0.000000   0.000000   0.000024   0.000000  -0.000091
    26  H    0.000000  -0.000000   0.000000   0.000006  -0.000002  -0.000060
    27  H    0.005182  -0.000823  -0.000005  -0.061950   0.002251   0.000020
               7          8          9         10         11         12
     1  O    0.000005  -0.000000  -0.000000   0.000000  -0.000000  -0.000000
     2  N   -0.000145   0.000002  -0.000004   0.000000  -0.000000   0.000002
     3  O    0.000002  -0.000000  -0.000000   0.000000  -0.000000  -0.000000
     4  C    0.004313  -0.000245   0.000834  -0.000037  -0.000029  -0.000122
     5  C   -0.030431   0.003119   0.000660  -0.000054   0.000025  -0.000177
     6  N    0.170236  -0.050665  -0.061700   0.003748  -0.000190   0.003876
     7  C    5.015626   0.418482   0.350617  -0.054687  -0.009001  -0.061116
     8  H    0.418482   0.538692  -0.055146   0.000775  -0.000330  -0.002208
     9  C    0.350617  -0.055146   5.158137   0.324748  -0.050388  -0.005336
    10  C   -0.054687   0.000775   0.324748   5.119369   0.337028  -0.060970
    11  C   -0.009001  -0.000330  -0.050388   0.337028   5.119807   0.335970
    12  C   -0.061116  -0.002208  -0.005336  -0.060970   0.335970   5.118746
    13  C    0.339369  -0.038090  -0.060250  -0.000273  -0.050656   0.372130
    14  H   -0.046440  -0.000760   0.004430  -0.000406   0.004198  -0.036437
    15  N   -0.057848   0.003912  -0.014653   0.001557  -0.013082  -0.082198
    16  C   -0.001689   0.000010  -0.001279  -0.000029   0.000034   0.002526
    17  H    0.001676  -0.000046  -0.000072   0.000001   0.000000   0.000000
    18  H   -0.021275  -0.004477   0.001339  -0.000083   0.000004  -0.000114
    19  H   -0.036811   0.004369   0.390198  -0.032105  -0.002217   0.000694
    20  H   -0.042392  -0.002082   0.399465  -0.035336   0.003934  -0.000416
    21  H    0.004597  -0.000076  -0.036348   0.402408  -0.034913   0.004350
    22  H   -0.004838   0.003562  -0.046957   0.397731  -0.045423  -0.001024
    23  H    0.000575   0.000035  -0.001955  -0.039012   0.399164  -0.037870
    24  H   -0.000131  -0.000102   0.004387  -0.038444   0.402305  -0.038712
    25  H    0.005143  -0.000024  -0.000425   0.004191  -0.033418   0.398243
    26  H   -0.003898   0.001686   0.000966  -0.002234  -0.041480   0.396723
    27  H   -0.000411   0.000009  -0.000057   0.000007   0.000012  -0.000035
              13         14         15         16         17         18
     1  O   -0.000033  -0.000004   0.000425  -0.001603   0.000248   0.000001
     2  N   -0.000029  -0.000104   0.002430  -0.024325  -0.007219  -0.000054
     3  O   -0.000004   0.000001  -0.000013   0.002273   0.016987   0.000012
     4  C   -0.011260   0.002655  -0.063628   0.332882  -0.025293   0.001502
     5  C   -0.000739   0.006152  -0.006577  -0.049937   0.376455  -0.031287
     6  N   -0.047616  -0.006995   0.001561  -0.001784  -0.034157   0.338760
     7  C    0.339369  -0.046440  -0.057848  -0.001689   0.001676  -0.021275
     8  H   -0.038090  -0.000760   0.003912   0.000010  -0.000046  -0.004477
     9  C   -0.060250   0.004430  -0.014653  -0.001279  -0.000072   0.001339
    10  C   -0.000273  -0.000406   0.001557  -0.000029   0.000001  -0.000083
    11  C   -0.050656   0.004198  -0.013082   0.000034   0.000000   0.000004
    12  C    0.372130  -0.036437  -0.082198   0.002526   0.000000  -0.000114
    13  C    5.039674   0.402843   0.243701  -0.070504  -0.000007   0.002969
    14  H    0.402843   0.527008  -0.037298  -0.004421   0.000095  -0.000108
    15  N    0.243701  -0.037298   6.967137   0.584929  -0.000080  -0.000130
    16  C   -0.070504  -0.004421   0.584929   4.699657   0.001956  -0.000200
    17  H   -0.000007   0.000095  -0.000080   0.001956   0.380642  -0.002815
    18  H    0.002969  -0.000108  -0.000130  -0.000200  -0.002815   0.311026
    19  H   -0.007574   0.000106   0.007709   0.002998   0.000016  -0.000149
    20  H    0.004343  -0.000066   0.000126  -0.000036   0.000002   0.000792
    21  H   -0.000433   0.000010  -0.000041   0.000004  -0.000000   0.000001
    22  H    0.000045  -0.000055   0.000019  -0.000002   0.000000   0.000001
    23  H   -0.007525   0.000003   0.008611   0.000111   0.000000   0.000000
    24  H    0.004698  -0.000056   0.000137   0.000006   0.000000  -0.000000
    25  H   -0.035548  -0.002809   0.000395  -0.000024  -0.000000   0.000002
    26  H   -0.047429  -0.001046   0.004911  -0.000059   0.000000  -0.000000
    27  H    0.005049  -0.000176  -0.041089   0.403630  -0.000079   0.000001
              19         20         21         22         23         24
     1  O    0.000001   0.000000  -0.000000  -0.000000   0.000000   0.000000
     2  N   -0.000004  -0.000000   0.000000   0.000000  -0.000000   0.000000
     3  O    0.000000   0.000000   0.000000  -0.000000   0.000000   0.000000
     4  C   -0.001200  -0.000078   0.000001  -0.000000   0.000041   0.000000
     5  C    0.001217   0.000154   0.000001  -0.000003  -0.000000  -0.000000
     6  N   -0.000342  -0.000408  -0.000077  -0.000116  -0.000030   0.000006
     7  C   -0.036811  -0.042392   0.004597  -0.004838   0.000575  -0.000131
     8  H    0.004369  -0.002082  -0.000076   0.003562   0.000035  -0.000102
     9  C    0.390198   0.399465  -0.036348  -0.046957  -0.001955   0.004387
    10  C   -0.032105  -0.035336   0.402408   0.397731  -0.039012  -0.038444
    11  C   -0.002217   0.003934  -0.034913  -0.045423   0.399164   0.402305
    12  C    0.000694  -0.000416   0.004350  -0.001024  -0.037870  -0.038712
    13  C   -0.007574   0.004343  -0.000433   0.000045  -0.007525   0.004698
    14  H    0.000106  -0.000066   0.000010  -0.000055   0.000003  -0.000056
    15  N    0.007709   0.000126  -0.000041   0.000019   0.008611   0.000137
    16  C    0.002998  -0.000036   0.000004  -0.000002   0.000111   0.000006
    17  H    0.000016   0.000002  -0.000000   0.000000   0.000000   0.000000
    18  H   -0.000149   0.000792   0.000001   0.000001   0.000000  -0.000000
    19  H    0.505224  -0.024755  -0.002788   0.003962   0.001514  -0.000066
    20  H   -0.024755   0.541376  -0.002692  -0.002995  -0.000045  -0.000083
    21  H   -0.002788  -0.002692   0.524331  -0.027433  -0.002901  -0.002243
    22  H    0.003962  -0.002995  -0.027433   0.571534   0.004140  -0.003658
    23  H    0.001514  -0.000045  -0.002901   0.004140   0.499069  -0.025474
    24  H   -0.000066  -0.000083  -0.002243  -0.003658  -0.025474   0.538423
    25  H   -0.000029   0.000012  -0.000087  -0.000080  -0.002318  -0.002290
    26  H    0.000019  -0.000030  -0.000081   0.002381   0.004070  -0.003036
    27  H    0.000080   0.000000  -0.000000   0.000000  -0.000036  -0.000000
              25         26         27
     1  O    0.000000   0.000000   0.005182
     2  N   -0.000000  -0.000000  -0.000823
     3  O    0.000000   0.000000  -0.000005
     4  C    0.000024   0.000006  -0.061950
     5  C    0.000000  -0.000002   0.002251
     6  N   -0.000091  -0.000060   0.000020
     7  C    0.005143  -0.003898  -0.000411
     8  H   -0.000024   0.001686   0.000009
     9  C   -0.000425   0.000966  -0.000057
    10  C    0.004191  -0.002234   0.000007
    11  C   -0.033418  -0.041480   0.000012
    12  C    0.398243   0.396723  -0.000035
    13  C   -0.035548  -0.047429   0.005049
    14  H   -0.002809  -0.001046  -0.000176
    15  N    0.000395   0.004911  -0.041089
    16  C   -0.000024  -0.000059   0.403630
    17  H   -0.000000   0.000000  -0.000079
    18  H    0.000002  -0.000000   0.000001
    19  H   -0.000029   0.000019   0.000080
    20  H    0.000012  -0.000030   0.000000
    21  H   -0.000087  -0.000081  -0.000000
    22  H   -0.000080   0.002381   0.000000
    23  H   -0.002318   0.004070  -0.000036
    24  H   -0.002290  -0.003036  -0.000000
    25  H    0.506368  -0.024097  -0.000013
    26  H   -0.024097   0.562440   0.000001
    27  H   -0.000013   0.000001   0.439642
 Mulliken charges:
               1
     1  O   -0.468170
     2  N    0.498878
     3  O   -0.504569
     4  C   -0.002485
     5  C    0.187212
     6  N   -0.781553
     7  C    0.060472
     8  H    0.179599
     9  C   -0.301211
    10  C   -0.327896
    11  C   -0.321353
    12  C   -0.306526
    13  C   -0.036850
    14  H    0.189682
    15  N   -0.510922
    16  C    0.124879
    17  H    0.291691
    18  H    0.404282
    19  H    0.189935
    20  H    0.161210
    21  H    0.174410
    22  H    0.149209
    23  H    0.199836
    24  H    0.164332
    25  H    0.186872
    26  H    0.150248
    27  H    0.248789
 Sum of Mulliken charges =  -0.00000
 Mulliken charges with hydrogens summed into heavy atoms:
               1
     1  O   -0.468170
     2  N    0.498878
     3  O   -0.504569
     4  C   -0.002485
     5  C    0.478903
     6  N   -0.377271
     7  C    0.240071
     9  C    0.049933
    10  C   -0.004277
    11  C    0.042815
    12  C    0.030594
    13  C    0.152832
    15  N   -0.510922
    16  C    0.373667
 Electronic spatial extent (au):  <R**2>=           3001.4778
 Charge=             -0.0000 electrons
 Dipole moment (field-independent basis, Debye):
    X=              5.2837    Y=              4.8134    Z=              1.2556  Tot=              7.2569
 Quadrupole moment (field-independent basis, Debye-Ang):
   XX=           -105.5536   YY=            -79.3438   ZZ=            -81.4761
   XY=             -1.9167   XZ=              0.0181   YZ=              1.9080
 Traceless Quadrupole moment (field-independent basis, Debye-Ang):
   XX=            -16.7624   YY=              9.4474   ZZ=              7.3150
   XY=             -1.9167   XZ=              0.0181   YZ=              1.9080
 Octapole moment (field-independent basis, Debye-Ang**2):
  XXX=             89.2275  YYY=             35.9859  ZZZ=             -1.5805  XYY=             -4.4513
  XXY=              9.7650  XXZ=              4.2593  XZZ=             -9.9741  YZZ=             -0.5088
  YYZ=              7.8938  XYZ=              0.1146
 Hexadecapole moment (field-independent basis, Debye-Ang**3):
 XXXX=          -3367.3019 YYYY=           -601.8848 ZZZZ=           -303.0941 XXXY=            -19.7349
 XXXZ=             -8.6790 YYYX=             -7.9478 YYYZ=             25.4555 ZZZX=              3.8506
 ZZZY=              7.5055 XXYY=           -627.5501 XXZZ=           -522.6261 YYZZ=           -157.1812
 XXYZ=             -3.7266 YYXZ=              2.6917 ZZXY=              5.2490
 N-N= 9.314591237507D+02 E-N=-3.409648139985D+03  KE= 6.596275087603D+02
 Unable to Open any file for archive entry.
 1\1\GINC-LOTUS\FOpt\RMP2-FC\6-31G(d)\C9H13N3O2\ALEXEY\01-Jul-2023\0\\#
 MP2/6-31G* SCF=Tight Opt=(ModRedun, MaxCycle=20 ) NoSymm\\MolName:\\0,
 1\O,-3.459642233,-1.3985191371,-0.3503167991\N,-3.1288138204,-0.219142
 3336,-0.1067258906\O,-3.920615636,0.7230447108,0.0641074304\C,-1.68778
 27731,-0.0224123278,-0.0191537942\C,-1.2999903553,1.2602315193,0.27041
 53361\N,-0.0565773324,1.7530533761,0.3808567888\C,1.2050781149,1.02519
 73174,0.3571493671\H,1.851995901,1.5523974928,1.0746192677\C,1.9128186
 374,1.0356168362,-0.9964771671\C,3.3096455531,0.4264384489,-0.82868719
 6\C,3.2574987352,-0.9699389542,-0.2029907023\C,2.458738142,-0.97988887
 98,1.1021818661\C,1.0507378849,-0.4235261144,0.8622273951\H,0.47181097
 91,-0.4012169658,1.7992209422\N,0.4055890925,-1.3146100496,-0.09669848
 94\C,-0.8402676372,-1.136175456,-0.3986598203\H,-2.0959970304,1.985582
 9438,0.419296509\H,0.0018610323,2.7368622934,0.6155029701\H,1.31982611
 31,0.459766618,-1.7149778421\H,1.9816765659,2.0637037257,-1.3732537922
 \H,3.8164740059,0.3879869791,-1.7997125839\H,3.9086935332,1.0913315535
 ,-0.1902502769\H,2.7806362386,-1.6655192697,-0.9005850786\H,4.27553095
 71,-1.3352779623,-0.02307597\H,2.3705570834,-2.0018577874,1.4853481278
 \H,2.9674803572,-0.3832186254,1.8719245299\H,-1.2949521089,-1.88791995
 18,-1.0422851275\\Version=ES64L-G16RevC.02\HF=-661.2992378\MP2=-663.33
 38549\RMSD=4.099e-09\RMSF=2.641e-03\Dipole=1.9324389,1.6907232,0.46232
 12\PG=C01 [X(C9H13N3O2)]\\@
 The archive entry for this job was punched.


 EVERYTHING'S GOT A MORAL, IF ONLY YOU CAN FIND IT.

                                    -- LEWIS CARROL, ALICE IN WONDERLAND
 Job cpu time:       0 days  1 hours  6 minutes 34.6 seconds.
 Elapsed time:       0 days  0 hours 19 minutes 51.7 seconds.
 File lengths (MBytes):  RWF=     36 Int=      0 D2E=      0 Chk=      7 Scr=      1
 Normal termination of Gaussian 16 at Sat Jul  1 13:17:07 2023.
