 Entering Gaussian System, Link 0=g16
 Initial command:
 /home/alexey/programs//g16/l1.exe "/home/alexey/tmp/Gau-1319819.inp" -scrdir="/home/alexey/tmp/"
 Entering Link 1 = /home/alexey/programs//g16/l1.exe PID=   1319821.
  
 Copyright (c) 1988-2021, Gaussian, Inc.  All Rights Reserved.
  
 This is part of the Gaussian(R) 16 program.  It is based on
 the Gaussian(R) 09 system (copyright 2009, Gaussian, Inc.),
 the Gaussian(R) 03 system (copyright 2003, Gaussian, Inc.),
 the Gaussian(R) 98 system (copyright 1998, Gaussian, Inc.),
 the Gaussian(R) 94 system (copyright 1995, Gaussian, Inc.),
 the Gaussian 92(TM) system (copyright 1992, Gaussian, Inc.),
 the Gaussian 90(TM) system (copyright 1990, Gaussian, Inc.),
 the Gaussian 88(TM) system (copyright 1988, Gaussian, Inc.),
 the Gaussian 86(TM) system (copyright 1986, Carnegie Mellon
 University), and the Gaussian 82(TM) system (copyright 1983,
 Carnegie Mellon University). Gaussian is a federally registered
 trademark of Gaussian, Inc.
  
 This software contains proprietary and confidential information,
 including trade secrets, belonging to Gaussian, Inc.
  
 This software is provided under written license and may be
 used, copied, transmitted, or stored only in accord with that
 written license.
  
 The following legend is applicable only to US Government
 contracts under FAR:
  
                    RESTRICTED RIGHTS LEGEND
  
 Use, reproduction and disclosure by the US Government is
 subject to restrictions as set forth in subparagraphs (a)
 and (c) of the Commercial Computer Software - Restricted
 Rights clause in FAR 52.227-19.
  
 Gaussian, Inc.
 340 Quinnipiac St., Bldg. 40, Wallingford CT 06492
  
  
 ---------------------------------------------------------------
 Warning -- This program may not be used in any manner that
 competes with the business of Gaussian, Inc. or will provide
 assistance to any competitor of Gaussian, Inc.  The licensee
 of this program is prohibited from giving any competitor of
 Gaussian, Inc. access to this program.  By using this program,
 the user acknowledges that Gaussian, Inc. is engaged in the
 business of creating and licensing software in the field of
 computational chemistry and represents and warrants to the
 licensee that it is not a competitor of Gaussian, Inc. and that
 it will not use this program in any manner prohibited above.
 ---------------------------------------------------------------
  

 Cite this work as:
 Gaussian 16, Revision C.02,
 M. J. Frisch, G. W. Trucks, H. B. Schlegel, G. E. Scuseria, 
 M. A. Robb, J. R. Cheeseman, G. Scalmani, V. Barone, 
 G. A. Petersson, H. Nakatsuji, X. Li, M. Caricato, A. V. Marenich, 
 J. Bloino, B. G. Janesko, R. Gomperts, B. Mennucci, H. P. Hratchian, 
 J. V. Ortiz, A. F. Izmaylov, J. L. Sonnenberg, D. Williams-Young, 
 F. Ding, F. Lipparini, F. Egidi, J. Goings, B. Peng, A. Petrone, 
 T. Henderson, D. Ranasinghe, V. G. Zakrzewski, J. Gao, N. Rega, 
 G. Zheng, W. Liang, M. Hada, M. Ehara, K. Toyota, R. Fukuda, 
 J. Hasegawa, M. Ishida, T. Nakajima, Y. Honda, O. Kitao, H. Nakai, 
 T. Vreven, K. Throssell, J. A. Montgomery, Jr., J. E. Peralta, 
 F. Ogliaro, M. J. Bearpark, J. J. Heyd, E. N. Brothers, K. N. Kudin, 
 V. N. Staroverov, T. A. Keith, R. Kobayashi, J. Normand, 
 K. Raghavachari, A. P. Rendell, J. C. Burant, S. S. Iyengar, 
 J. Tomasi, M. Cossi, J. M. Millam, M. Klene, C. Adamo, R. Cammi, 
 J. W. Ochterski, R. L. Martin, K. Morokuma, O. Farkas, 
 J. B. Foresman, and D. J. Fox, Gaussian, Inc., Wallingford CT, 2019.
 
 ******************************************
 Gaussian 16:  ES64L-G16RevC.02  7-Dec-2021
                 1-Jul-2023 
 ******************************************
 %mem=8GB
 %NPROCS=4
 Will use up to    4 processors via shared memory.
 %NoSave
 ---------------------------------------------------------
 #MP2/6-31G* SCF=Tight Opt=(ModRedun, MaxCycle=20 ) NoSymm
 ---------------------------------------------------------
 1/6=20,18=120,19=15,38=1/1,3;
 2/9=110,12=2,15=1,17=6,18=5,40=1/2;
 3/5=1,6=6,7=1,11=9,25=1,30=1,71=1/1,2,3;
 4//1;
 5/5=2,32=2,38=5/2;
 8/6=4,10=2/1;
 9/15=2,16=-3/6;
 10/5=1,31=1/2;
 6/7=2,8=2,9=2,10=2/1;
 7/12=2,30=1/1,2,3,16;
 1/6=20,18=20,19=15/3(2);
 2/9=110,15=1/2;
 99//99;
 2/9=110,15=1/2;
 3/5=1,6=6,7=1,11=9,25=1,30=1,71=1/1,2,3;
 4/5=5,16=3,69=1/1;
 5/5=2,32=2,38=5/2;
 8/6=4,10=2/1;
 9/15=2,16=-3/6;
 10/5=1,31=1/2;
 7/12=2,30=1/1,2,3,16;
 1/6=20,18=20,19=15/3(-8);
 2/9=110,15=1/2;
 6/7=2,8=2,9=2,10=2/1;
 99/9=10/99;
 --------
 MolName:
 --------
 Symbolic Z-matrix:
 Charge =  0 Multiplicity = 1
 8                    0    -3.60968  -1.44572  -0.18153 
 7                    0    -3.25989  -0.27792  -0.01867 
 8                    0    -4.04242   0.65919   0.14312 
 6                    0    -1.75829   0.00583  -0.04116 
 6                    0    -1.37013   1.31304   0.27399 
 7                    0    -0.08186   1.76838   0.38596 
 6                    0     1.1972    0.99556   0.35882 
 1                    0     1.8594    1.49252   1.11461 
 6                    0     1.96484   1.04804  -0.9857 
 6                    0     3.3761    0.46061  -0.79377 
 6                    0     3.31199  -0.95608  -0.20139 
 6                    0     2.46065  -0.99093   1.08619 
 6                    0     1.0246   -0.45383   0.83713 
 1                    0     0.47388  -0.49368   1.80615 
 7                    0     0.37017  -1.32152  -0.14487 
 6                    0    -0.87055  -1.11721  -0.44454 
 1                    0    -2.15736   2.05151   0.49936 
 1                    0     0.14986   2.75037   0.21779 
 1                    0     1.41691   0.47273  -1.76201 
 1                    0     2.05258   2.09845  -1.33585 
 1                    0     3.91309   0.43762  -1.76726 
 1                    0     3.95192   1.11322  -0.10009 
 1                    0     2.86608  -1.64412  -0.95474 
 1                    0     4.33923  -1.32084   0.01757 
 1                    0     2.4007   -2.03771   1.45683 
 1                    0     2.95341  -0.38125   1.87231 
 1                    0    -1.37143  -1.86328  -1.08022 
 
 The following ModRedundant input section has been read:
 A       1       2       4 F                                                   
 D       1       2       4      16 F                                           
 D       7      13      15      16 F                                           
 D       7       9      10      11 F                                           
 D       9      10      11      12 F                                           
 D       6       7      13      15 F                                           
 

 GradGradGradGradGradGradGradGradGradGradGradGradGradGradGradGradGradGrad
 Berny optimization.
 Initialization pass.
                           ----------------------------
                           !    Initial Parameters    !
                           ! (Angstroms and Degrees)  !
 --------------------------                            --------------------------
 ! Name  Definition              Value          Derivative Info.                !
 --------------------------------------------------------------------------------
 ! R1    R(1,2)                  1.2299         estimate D2E/DX2                !
 ! R2    R(2,3)                  1.2315         estimate D2E/DX2                !
 ! R3    R(2,4)                  1.5283         estimate D2E/DX2                !
 ! R4    R(4,5)                  1.3996         estimate D2E/DX2                !
 ! R5    R(4,16)                 1.4873         estimate D2E/DX2                !
 ! R6    R(5,6)                  1.371          estimate D2E/DX2                !
 ! R7    R(5,17)                 1.1027         estimate D2E/DX2                !
 ! R8    R(6,7)                  1.4947         estimate D2E/DX2                !
 ! R9    R(6,18)                 1.0229         estimate D2E/DX2                !
 ! R10   R(7,8)                  1.121          estimate D2E/DX2                !
 ! R11   R(7,9)                  1.5491         estimate D2E/DX2                !
 ! R12   R(7,13)                 1.536          estimate D2E/DX2                !
 ! R13   R(9,10)                 1.5406         estimate D2E/DX2                !
 ! R14   R(9,19)                 1.1108         estimate D2E/DX2                !
 ! R15   R(9,20)                 1.1107         estimate D2E/DX2                !
 ! R16   R(10,11)                1.5369         estimate D2E/DX2                !
 ! R17   R(10,21)                1.112          estimate D2E/DX2                !
 ! R18   R(10,22)                1.113          estimate D2E/DX2                !
 ! R19   R(11,12)                1.544          estimate D2E/DX2                !
 ! R20   R(11,23)                1.1135         estimate D2E/DX2                !
 ! R21   R(11,24)                1.1119         estimate D2E/DX2                !
 ! R22   R(12,13)                1.5533         estimate D2E/DX2                !
 ! R23   R(12,25)                1.1121         estimate D2E/DX2                !
 ! R24   R(12,26)                1.1102         estimate D2E/DX2                !
 ! R25   R(13,14)                1.1153         estimate D2E/DX2                !
 ! R26   R(13,15)                1.4647         estimate D2E/DX2                !
 ! R27   R(15,16)                1.2926         estimate D2E/DX2                !
 ! R28   R(16,27)                1.1007         estimate D2E/DX2                !
 ! A1    A(1,2,3)              123.9997         estimate D2E/DX2                !
 ! A2    A(1,2,4)              116.9857         Frozen                          !
 ! A3    A(3,2,4)              119.0091         estimate D2E/DX2                !
 ! A4    A(2,4,5)              116.2689         estimate D2E/DX2                !
 ! A5    A(2,4,16)             116.7594         estimate D2E/DX2                !
 ! A6    A(5,4,16)             126.9269         estimate D2E/DX2                !
 ! A7    A(4,5,6)              126.102          estimate D2E/DX2                !
 ! A8    A(4,5,17)             118.2644         estimate D2E/DX2                !
 ! A9    A(6,5,17)             115.5787         estimate D2E/DX2                !
 ! A10   A(5,6,7)              129.1189         estimate D2E/DX2                !
 ! A11   A(5,6,18)             121.2186         estimate D2E/DX2                !
 ! A12   A(7,6,18)             107.4301         estimate D2E/DX2                !
 ! A13   A(6,7,8)              105.3103         estimate D2E/DX2                !
 ! A14   A(6,7,9)              114.9799         estimate D2E/DX2                !
 ! A15   A(6,7,13)             112.7112         estimate D2E/DX2                !
 ! A16   A(8,7,9)              106.1062         estimate D2E/DX2                !
 ! A17   A(8,7,13)             105.9468         estimate D2E/DX2                !
 ! A18   A(9,7,13)             110.9726         estimate D2E/DX2                !
 ! A19   A(7,9,10)             109.4436         estimate D2E/DX2                !
 ! A20   A(7,9,19)             110.157          estimate D2E/DX2                !
 ! A21   A(7,9,20)             110.1694         estimate D2E/DX2                !
 ! A22   A(10,9,19)            109.9645         estimate D2E/DX2                !
 ! A23   A(10,9,20)            109.1173         estimate D2E/DX2                !
 ! A24   A(19,9,20)            107.9662         estimate D2E/DX2                !
 ! A25   A(9,10,11)            111.1786         estimate D2E/DX2                !
 ! A26   A(9,10,21)            109.9482         estimate D2E/DX2                !
 ! A27   A(9,10,22)            109.1474         estimate D2E/DX2                !
 ! A28   A(11,10,21)           109.7863         estimate D2E/DX2                !
 ! A29   A(11,10,22)           108.7756         estimate D2E/DX2                !
 ! A30   A(21,10,22)           107.9338         estimate D2E/DX2                !
 ! A31   A(10,11,12)           111.4224         estimate D2E/DX2                !
 ! A32   A(10,11,23)           108.9975         estimate D2E/DX2                !
 ! A33   A(10,11,24)           109.8631         estimate D2E/DX2                !
 ! A34   A(12,11,23)           109.2364         estimate D2E/DX2                !
 ! A35   A(12,11,24)           109.7428         estimate D2E/DX2                !
 ! A36   A(23,11,24)           107.4888         estimate D2E/DX2                !
 ! A37   A(11,12,13)           111.6079         estimate D2E/DX2                !
 ! A38   A(11,12,25)           109.2027         estimate D2E/DX2                !
 ! A39   A(11,12,26)           109.4738         estimate D2E/DX2                !
 ! A40   A(13,12,25)           109.2128         estimate D2E/DX2                !
 ! A41   A(13,12,26)           109.5115         estimate D2E/DX2                !
 ! A42   A(25,12,26)           107.7493         estimate D2E/DX2                !
 ! A43   A(7,13,12)            105.8027         estimate D2E/DX2                !
 ! A44   A(7,13,14)            111.0855         estimate D2E/DX2                !
 ! A45   A(7,13,15)            113.6041         estimate D2E/DX2                !
 ! A46   A(12,13,14)           107.749          estimate D2E/DX2                !
 ! A47   A(12,13,15)           108.4045         estimate D2E/DX2                !
 ! A48   A(14,13,15)           109.9201         estimate D2E/DX2                !
 ! A49   A(13,15,16)           119.3821         estimate D2E/DX2                !
 ! A50   A(4,16,15)            129.0044         estimate D2E/DX2                !
 ! A51   A(4,16,27)            113.3798         estimate D2E/DX2                !
 ! A52   A(15,16,27)           117.6145         estimate D2E/DX2                !
 ! D1    D(1,2,4,5)           -174.0059         estimate D2E/DX2                !
 ! D2    D(1,2,4,16)             8.2581         Frozen                          !
 ! D3    D(3,2,4,5)              6.8074         estimate D2E/DX2                !
 ! D4    D(3,2,4,16)          -170.9287         estimate D2E/DX2                !
 ! D5    D(2,4,5,6)            176.1928         estimate D2E/DX2                !
 ! D6    D(2,4,5,17)            -0.9811         estimate D2E/DX2                !
 ! D7    D(16,4,5,6)            -6.3361         estimate D2E/DX2                !
 ! D8    D(16,4,5,17)          176.49           estimate D2E/DX2                !
 ! D9    D(2,4,16,15)         -154.6203         estimate D2E/DX2                !
 ! D10   D(2,4,16,27)           24.9519         estimate D2E/DX2                !
 ! D11   D(5,4,16,15)           27.9195         estimate D2E/DX2                !
 ! D12   D(5,4,16,27)         -152.5083         estimate D2E/DX2                !
 ! D13   D(4,5,6,7)             -7.5305         estimate D2E/DX2                !
 ! D14   D(4,5,6,18)           153.2613         estimate D2E/DX2                !
 ! D15   D(17,5,6,7)           169.7099         estimate D2E/DX2                !
 ! D16   D(17,5,6,18)          -29.4983         estimate D2E/DX2                !
 ! D17   D(5,6,7,8)           -142.1393         estimate D2E/DX2                !
 ! D18   D(5,6,7,9)            101.447          estimate D2E/DX2                !
 ! D19   D(5,6,7,13)           -27.0913         estimate D2E/DX2                !
 ! D20   D(18,6,7,8)            55.0124         estimate D2E/DX2                !
 ! D21   D(18,6,7,9)           -61.4013         estimate D2E/DX2                !
 ! D22   D(18,6,7,13)          170.0604         estimate D2E/DX2                !
 ! D23   D(6,7,9,10)           168.7053         estimate D2E/DX2                !
 ! D24   D(6,7,9,19)           -70.2776         estimate D2E/DX2                !
 ! D25   D(6,7,9,20)            48.7271         estimate D2E/DX2                !
 ! D26   D(8,7,9,10)            52.7468         estimate D2E/DX2                !
 ! D27   D(8,7,9,19)           173.7639         estimate D2E/DX2                !
 ! D28   D(8,7,9,20)           -67.2314         estimate D2E/DX2                !
 ! D29   D(13,7,9,10)          -61.8949         estimate D2E/DX2                !
 ! D30   D(13,7,9,19)           59.1222         estimate D2E/DX2                !
 ! D31   D(13,7,9,20)          178.127          estimate D2E/DX2                !
 ! D32   D(6,7,13,12)         -166.178          estimate D2E/DX2                !
 ! D33   D(6,7,13,14)          -49.5188         estimate D2E/DX2                !
 ! D34   D(6,7,13,15)           75.0217         Frozen                          !
 ! D35   D(8,7,13,12)          -51.5144         estimate D2E/DX2                !
 ! D36   D(8,7,13,14)           65.1449         estimate D2E/DX2                !
 ! D37   D(8,7,13,15)         -170.3147         estimate D2E/DX2                !
 ! D38   D(9,7,13,12)           63.2268         estimate D2E/DX2                !
 ! D39   D(9,7,13,14)          179.8861         estimate D2E/DX2                !
 ! D40   D(9,7,13,15)          -55.5735         estimate D2E/DX2                !
 ! D41   D(7,9,10,11)           54.8121         Frozen                          !
 ! D42   D(7,9,10,21)          176.6033         estimate D2E/DX2                !
 ! D43   D(7,9,10,22)          -65.1821         estimate D2E/DX2                !
 ! D44   D(19,9,10,11)         -66.3216         estimate D2E/DX2                !
 ! D45   D(19,9,10,21)          55.4696         estimate D2E/DX2                !
 ! D46   D(19,9,10,22)         173.6841         estimate D2E/DX2                !
 ! D47   D(20,9,10,11)         175.4329         estimate D2E/DX2                !
 ! D48   D(20,9,10,21)         -62.7758         estimate D2E/DX2                !
 ! D49   D(20,9,10,22)          55.4387         estimate D2E/DX2                !
 ! D50   D(9,10,11,12)         -52.8223         Frozen                          !
 ! D51   D(9,10,11,23)          67.8004         estimate D2E/DX2                !
 ! D52   D(9,10,11,24)        -174.6633         estimate D2E/DX2                !
 ! D53   D(21,10,11,12)       -174.7077         estimate D2E/DX2                !
 ! D54   D(21,10,11,23)        -54.0851         estimate D2E/DX2                !
 ! D55   D(21,10,11,24)         63.4513         estimate D2E/DX2                !
 ! D56   D(22,10,11,12)         67.3924         estimate D2E/DX2                !
 ! D57   D(22,10,11,23)       -171.985          estimate D2E/DX2                !
 ! D58   D(22,10,11,24)        -54.4486         estimate D2E/DX2                !
 ! D59   D(10,11,12,13)         56.5971         estimate D2E/DX2                !
 ! D60   D(10,11,12,25)        177.4449         estimate D2E/DX2                !
 ! D61   D(10,11,12,26)        -64.8088         estimate D2E/DX2                !
 ! D62   D(23,11,12,13)        -63.8852         estimate D2E/DX2                !
 ! D63   D(23,11,12,25)         56.9625         estimate D2E/DX2                !
 ! D64   D(23,11,12,26)        174.7089         estimate D2E/DX2                !
 ! D65   D(24,11,12,13)        178.5077         estimate D2E/DX2                !
 ! D66   D(24,11,12,25)        -60.6445         estimate D2E/DX2                !
 ! D67   D(24,11,12,26)         57.1018         estimate D2E/DX2                !
 ! D68   D(11,12,13,7)         -60.3            estimate D2E/DX2                !
 ! D69   D(11,12,13,14)       -179.1926         estimate D2E/DX2                !
 ! D70   D(11,12,13,15)         61.8914         estimate D2E/DX2                !
 ! D71   D(25,12,13,7)         178.8582         estimate D2E/DX2                !
 ! D72   D(25,12,13,14)         59.9656         estimate D2E/DX2                !
 ! D73   D(25,12,13,15)        -58.9504         estimate D2E/DX2                !
 ! D74   D(26,12,13,7)          61.0841         estimate D2E/DX2                !
 ! D75   D(26,12,13,14)        -57.8085         estimate D2E/DX2                !
 ! D76   D(26,12,13,15)       -176.7246         estimate D2E/DX2                !
 ! D77   D(7,13,15,16)         -67.1597         Frozen                          !
 ! D78   D(12,13,15,16)        175.5428         estimate D2E/DX2                !
 ! D79   D(14,13,15,16)         58.0065         estimate D2E/DX2                !
 ! D80   D(13,15,16,4)           7.5614         estimate D2E/DX2                !
 ! D81   D(13,15,16,27)       -171.9954         estimate D2E/DX2                !
 --------------------------------------------------------------------------------
 Trust Radius=3.00D-01 FncErr=1.00D-07 GrdErr=1.00D-07 EigMax=2.50D+02 EigMin=1.00D-04
 Number of steps in this run=     20 maximum allowed number of steps=    162.
 GradGradGradGradGradGradGradGradGradGradGradGradGradGradGradGradGradGrad

                          Input orientation:                          
 ---------------------------------------------------------------------
 Center     Atomic      Atomic             Coordinates (Angstroms)
 Number     Number       Type             X           Y           Z
 ---------------------------------------------------------------------
      1          8           0       -3.609680   -1.445720   -0.181530
      2          7           0       -3.259890   -0.277920   -0.018670
      3          8           0       -4.042420    0.659190    0.143120
      4          6           0       -1.758290    0.005830   -0.041160
      5          6           0       -1.370130    1.313040    0.273990
      6          7           0       -0.081860    1.768380    0.385960
      7          6           0        1.197200    0.995560    0.358820
      8          1           0        1.859400    1.492520    1.114610
      9          6           0        1.964840    1.048040   -0.985700
     10          6           0        3.376100    0.460610   -0.793770
     11          6           0        3.311990   -0.956080   -0.201390
     12          6           0        2.460650   -0.990930    1.086190
     13          6           0        1.024600   -0.453830    0.837130
     14          1           0        0.473880   -0.493680    1.806150
     15          7           0        0.370170   -1.321520   -0.144870
     16          6           0       -0.870550   -1.117210   -0.444540
     17          1           0       -2.157360    2.051510    0.499360
     18          1           0        0.149860    2.750370    0.217790
     19          1           0        1.416910    0.472730   -1.762010
     20          1           0        2.052580    2.098450   -1.335850
     21          1           0        3.913090    0.437620   -1.767260
     22          1           0        3.951920    1.113220   -0.100090
     23          1           0        2.866080   -1.644120   -0.954740
     24          1           0        4.339230   -1.320840    0.017570
     25          1           0        2.400700   -2.037710    1.456830
     26          1           0        2.953410   -0.381250    1.872310
     27          1           0       -1.371430   -1.863280   -1.080220
 ---------------------------------------------------------------------
                    Distance matrix (angstroms):
                    1          2          3          4          5
     1  O    0.000000
     2  N    1.229892   0.000000
     3  O    2.173317   1.231546   0.000000
     4  C    2.356766   1.528340   2.382874   0.000000
     5  C    3.582435   2.487568   2.754230   1.399566   0.000000
     6  N    4.806038   3.801440   4.120110   2.469703   1.370953
     7  C    5.418295   4.650796   5.254835   3.142367   2.588276
     8  H    6.342245   5.534068   6.039016   4.078447   3.341963
     9  C    6.159611   5.476415   6.124754   3.979957   3.574782
    10  C    7.267053   6.721798   7.480083   5.209147   4.938972
    11  C    6.938995   6.609304   7.537581   5.163205   5.224666
    12  C    6.217946   5.869725   6.775116   4.479275   4.543437
    13  C    4.847480   4.372664   5.234038   2.954176   3.028810
    14  H    4.640336   4.161437   4.948913   2.940178   3.002020
    15  N    3.981956   3.779201   4.845317   2.510569   3.185121
    16  C    2.771268   2.568018   3.682621   1.487285   2.583018
    17  H    3.847527   2.628721   2.370425   2.153190   1.102661
    18  H    5.648077   4.566492   4.685490   3.352699   2.092712
    19  H    5.607582   5.047293   5.785203   3.641595   3.552324
    20  H    6.778996   5.966945   6.434893   4.536299   3.863081
    21  H    7.915401   7.417628   8.184668   5.943939   5.731097
    22  H    7.983270   7.345210   8.010915   5.816896   5.338921
    23  H    6.524775   6.345884   7.364639   4.994173   5.310372
    24  H    7.952384   7.670438   8.613265   6.240453   6.292842
    25  H    6.257743   6.108702   7.107243   4.870034   5.181293
    26  H    6.958844   6.495505   7.281089   5.100129   4.911033
    27  H    2.447808   2.684499   3.872157   2.173218   3.452955
                    6          7          8          9         10
     6  N    0.000000
     7  C    1.494651   0.000000
     8  H    2.091774   1.121025   0.000000
     9  C    2.566967   1.549116   2.149414   0.000000
    10  C    3.880659   2.522348   2.647099   1.540638   0.000000
    11  C    4.391569   2.931735   3.136481   2.538986   1.536891
    12  C    3.816867   2.464045   2.555354   2.948890   2.545440
    13  C    2.523098   1.536002   2.135922   2.542120   3.004262
    14  H    2.728132   2.199043   2.518508   3.520552   4.011625
    15  N    3.167585   2.511283   3.423875   2.977378   3.554247
    16  C    3.104576   3.063458   4.085862   3.608407   4.543733
    17  H    2.097790   3.519638   4.101873   4.494985   5.901045
    18  H    1.022878   2.048455   2.304127   2.764140   4.083489
    19  H    2.922122   2.195346   3.083944   1.110795   2.185420
    20  H    2.762139   2.195438   2.531645   1.110705   2.174414
    21  H    4.729366   3.493934   3.692646   2.186121   1.112012
    22  H    4.115442   2.795161   2.449082   2.176474   1.112951
    23  H    4.704570   3.387995   3.890260   2.839176   2.171617
    24  H    5.406018   3.918484   3.907435   3.500839   2.181618
    25  H    4.668639   3.443075   3.587847   3.959518   3.501172
    26  H    4.005373   2.696392   2.298256   3.344901   2.827610
    27  H    4.123303   4.103859   5.149460   4.428929   5.293539
                   11         12         13         14         15
    11  C    0.000000
    12  C    1.543974   0.000000
    13  C    2.561822   1.553302   0.000000
    14  H    3.506979   2.170911   1.115294   0.000000
    15  N    2.964970   2.448450   1.464749   2.121922   0.000000
    16  C    4.192699   3.668239   2.382088   2.694789   1.292645
    17  H    6.280958   5.561189   4.063950   3.887045   4.263892
    18  H    4.890046   4.482320   3.378705   3.626532   4.093940
    19  H    2.840486   3.368076   2.787104   3.815104   2.632516
    20  H    3.493317   3.946779   3.506097   4.368477   3.993136
    21  H    2.180750   3.506068   3.990101   5.046260   4.275395
    22  H    2.168358   2.838766   3.450106   4.279327   4.331154
    23  H    1.113450   2.180923   2.831720   3.829967   2.643771
    24  H    1.111852   2.186287   3.522805   4.338680   3.972383
    25  H    2.179465   1.112078   2.187774   2.493730   2.683547
    26  H    2.181568   1.110183   2.190245   2.482959   3.409729
    27  H    4.850750   4.487668   3.376942   3.689459   2.049769
                   16         17         18         19         20
    16  C    0.000000
    17  H    3.547903   0.000000
    18  H    4.054392   2.427128   0.000000
    19  H    3.081576   4.514615   3.273021   0.000000
    20  H    4.436169   4.592798   2.541484   1.796846   0.000000
    21  H    5.200990   6.677767   4.842637   2.496432   2.531001
    22  H    5.324442   6.209914   4.151743   3.098142   2.470885
    23  H    3.807931   6.403674   5.297567   2.689393   3.848877
    24  H    5.234197   7.335567   5.845140   3.863127   4.330365
    25  H    3.894047   6.197934   5.433895   4.198938   5.002806
    26  H    4.531236   5.824370   4.517120   4.037127   4.153637
    27  H    1.100723   4.293989   5.028411   3.700895   5.242566
                   21         22         23         24         25
    21  H    0.000000
    22  H    1.799277   0.000000
    23  H    2.467805   3.084218   0.000000
    24  H    2.541534   2.467489   1.794455   0.000000
    25  H    4.336973   3.841698   2.487401   2.518585   0.000000
    26  H    3.852013   2.668487   3.097528   2.498677   1.794985
    27  H    5.804508   6.177237   4.245029   5.840464   4.549287
                   26         27
    26  H    0.000000
    27  H    5.442250   0.000000
 Symmetry turned off by external request.
 Stoichiometry    C9H13N3O2
 Framework group  C1[X(C9H13N3O2)]
 Deg. of freedom    75
 Full point group                 C1      NOp   1
 Rotational constants (GHZ):           1.6765712           0.4001335           0.3551491
 Standard basis: 6-31G(d) (6D, 7F)
   236 basis functions,   444 primitive gaussians,   236 cartesian basis functions
    52 alpha electrons       52 beta electrons
       nuclear repulsion energy       917.4499236570 Hartrees.
 NAtoms=   27 NActive=   27 NUniq=   27 SFac= 1.00D+00 NAtFMM=   60 NAOKFM=F Big=F
 Integral buffers will be    131072 words long.
 Raffenetti 1 integral format.
 Two-electron integral symmetry is turned off.
 One-electron integrals computed using PRISM.
 NBasis=   236 RedAO= T EigKep=  1.27D-03  NBF=   236
 NBsUse=   236 1.00D-06 EigRej= -1.00D+00 NBFU=   236
 ExpMin= 1.61D-01 ExpMax= 5.48D+03 ExpMxC= 8.25D+02 IAcc=3 IRadAn=         5 AccDes= 0.00D+00
 Harris functional with IExCor=  205 and IRadAn=       5 diagonalized for initial guess.
 HarFok:  IExCor=  205 AccDes= 0.00D+00 IRadAn=         5 IDoV= 1 UseB2=F ITyADJ=14
 ICtDFT=  3500011 ScaDFX=  1.000000  1.000000  1.000000  1.000000
 FoFCou: FMM=F IPFlag=           0 FMFlag=      100000 FMFlg1=           0
         NFxFlg=           0 DoJE=T BraDBF=F KetDBF=T FulRan=T
         wScrn=  0.000000 ICntrl=       500 IOpCl=  0 I1Cent=   200000004 NGrid=           0
         NMat0=    1 NMatS0=      1 NMatT0=    0 NMatD0=    1 NMtDS0=    0 NMtDT0=    0
 Symmetry not used in FoFCou.
 Keep R1 ints in memory in canonical form, NReq=397720213.
 Requested convergence on RMS density matrix=1.00D-08 within 128 cycles.
 Requested convergence on MAX density matrix=1.00D-06.
 Requested convergence on             energy=1.00D-06.
 No special actions if energy rises.
 SCF Done:  E(RHF) =  -661.280922328     A.U. after   16 cycles
            NFock= 16  Conv=0.79D-08     -V/T= 2.0037
 ExpMin= 1.61D-01 ExpMax= 5.48D+03 ExpMxC= 8.25D+02 IAcc=3 IRadAn=         5 AccDes= 0.00D+00
 HarFok:  IExCor=  205 AccDes= 0.00D+00 IRadAn=         5 IDoV=-2 UseB2=F ITyADJ=14
 ICtDFT= 12500011 ScaDFX=  1.000000  1.000000  1.000000  1.000000
 Range of M.O.s used for correlation:    15   236
 NBasis=   236 NAE=    52 NBE=    52 NFC=    14 NFV=     0
 NROrb=    222 NOA=    38 NOB=    38 NVA=   184 NVB=   184
 Fully direct method using O(ONN) memory.
 JobTyp=1 Pass  1:  I=  15 to  52 NPSUse=  4 ParTrn=T ParDer=T DoDerP=T.
 Spin components of T(2) and E(2):
     alpha-alpha T2 =       0.9198278229D-01 E2=     -0.2717733246D+00
     alpha-beta  T2 =       0.4997415143D+00 E2=     -0.1493825285D+01
     beta-beta   T2 =       0.9198278229D-01 E2=     -0.2717733246D+00
 ANorm=    0.1297577388D+01
 E2 =    -0.2037371934D+01 EUMP2 =    -0.66331829426208D+03
          IDoAtm=111111111111111111111111111
          Differentiating once with respect to electric field.
                with respect to dipole field.
          Differentiating once with respect to nuclear coordinates.
 Keep R1 ints in memory in canonical form, NReq=397723379.
          There are     1 degrees of freedom in the 1st order CPHF.  IDoFFX=0 NUNeed=     1.
 LinEq1:  Iter=  0 NonCon=     1 RMS=4.61D-03 Max=1.13D-01 NDo=     1
 AX will form     1 AO Fock derivatives at one time.
 LinEq1:  Iter=  1 NonCon=     1 RMS=1.56D-03 Max=2.98D-02 NDo=     1
 LinEq1:  Iter=  2 NonCon=     1 RMS=6.40D-04 Max=1.82D-02 NDo=     1
 LinEq1:  Iter=  3 NonCon=     1 RMS=2.93D-04 Max=9.04D-03 NDo=     1
 LinEq1:  Iter=  4 NonCon=     1 RMS=9.01D-05 Max=2.07D-03 NDo=     1
 LinEq1:  Iter=  5 NonCon=     1 RMS=3.75D-05 Max=1.89D-03 NDo=     1
 LinEq1:  Iter=  6 NonCon=     1 RMS=1.54D-05 Max=5.86D-04 NDo=     1
 LinEq1:  Iter=  7 NonCon=     1 RMS=5.99D-06 Max=1.06D-04 NDo=     1
 LinEq1:  Iter=  8 NonCon=     1 RMS=2.40D-06 Max=6.28D-05 NDo=     1
 LinEq1:  Iter=  9 NonCon=     1 RMS=9.15D-07 Max=2.66D-05 NDo=     1
 LinEq1:  Iter= 10 NonCon=     1 RMS=4.42D-07 Max=1.45D-05 NDo=     1
 LinEq1:  Iter= 11 NonCon=     1 RMS=1.55D-07 Max=5.80D-06 NDo=     1
 LinEq1:  Iter= 12 NonCon=     1 RMS=5.40D-08 Max=7.64D-07 NDo=     1
 LinEq1:  Iter= 13 NonCon=     1 RMS=1.71D-08 Max=3.33D-07 NDo=     1
 LinEq1:  Iter= 14 NonCon=     1 RMS=5.39D-09 Max=1.41D-07 NDo=     1
 LinEq1:  Iter= 15 NonCon=     1 RMS=2.00D-09 Max=4.81D-08 NDo=     1
 LinEq1:  Iter= 16 NonCon=     1 RMS=7.56D-10 Max=1.29D-08 NDo=     1
 LinEq1:  Iter= 17 NonCon=     1 RMS=2.53D-10 Max=3.67D-09 NDo=     1
 LinEq1:  Iter= 18 NonCon=     1 RMS=8.74D-11 Max=1.05D-09 NDo=     1
 LinEq1:  Iter= 19 NonCon=     0 RMS=2.91D-11 Max=3.60D-10 NDo=     1
 Linear equations converged to 1.000D-10 1.000D-09 after    19 iterations.
 End of Minotr F.D. properties file   721 does not exist.
 End of Minotr F.D. properties file   722 does not exist.
 End of Minotr F.D. properties file   788 does not exist.

 **********************************************************************

            Population analysis using the SCF Density.

 **********************************************************************

 Alpha  occ. eigenvalues --  -20.59842 -20.59479 -15.85309 -15.63305 -15.56853
 Alpha  occ. eigenvalues --  -11.35831 -11.30482 -11.30071 -11.30070 -11.27686
 Alpha  occ. eigenvalues --  -11.24620 -11.23874 -11.23397 -11.22849  -1.58489
 Alpha  occ. eigenvalues --   -1.38070  -1.28563  -1.22725  -1.13259  -1.08350
 Alpha  occ. eigenvalues --   -1.01803  -1.00657  -0.93542  -0.88979  -0.84927
 Alpha  occ. eigenvalues --   -0.81534  -0.78036  -0.76950  -0.74303  -0.71107
 Alpha  occ. eigenvalues --   -0.70365  -0.69802  -0.67395  -0.64354  -0.63261
 Alpha  occ. eigenvalues --   -0.61634  -0.60363  -0.57416  -0.56465  -0.54882
 Alpha  occ. eigenvalues --   -0.53584  -0.50719  -0.49352  -0.48460  -0.47831
 Alpha  occ. eigenvalues --   -0.47674  -0.46143  -0.45693  -0.44060  -0.42086
 Alpha  occ. eigenvalues --   -0.39969  -0.33769
 Alpha virt. eigenvalues --    0.07392   0.11763   0.18192   0.21396   0.23404
 Alpha virt. eigenvalues --    0.24248   0.26292   0.27798   0.28566   0.28878
 Alpha virt. eigenvalues --    0.29930   0.31089   0.31858   0.32279   0.33342
 Alpha virt. eigenvalues --    0.33790   0.34245   0.35466   0.37579   0.38556
 Alpha virt. eigenvalues --    0.40626   0.41756   0.44488   0.45286   0.45679
 Alpha virt. eigenvalues --    0.46058   0.49660   0.53158   0.57625   0.58997
 Alpha virt. eigenvalues --    0.63340   0.69149   0.69257   0.72219   0.74027
 Alpha virt. eigenvalues --    0.74954   0.75701   0.75864   0.77777   0.79281
 Alpha virt. eigenvalues --    0.80532   0.83640   0.85036   0.85359   0.87988
 Alpha virt. eigenvalues --    0.89072   0.90173   0.90798   0.91861   0.93894
 Alpha virt. eigenvalues --    0.95175   0.97207   0.98854   1.00383   1.01947
 Alpha virt. eigenvalues --    1.02748   1.05094   1.06477   1.06991   1.08687
 Alpha virt. eigenvalues --    1.09550   1.10474   1.11329   1.11943   1.13263
 Alpha virt. eigenvalues --    1.13834   1.14182   1.15410   1.16354   1.17271
 Alpha virt. eigenvalues --    1.17979   1.19980   1.21215   1.22347   1.22974
 Alpha virt. eigenvalues --    1.23647   1.24330   1.25654   1.27058   1.27519
 Alpha virt. eigenvalues --    1.29420   1.31253   1.33107   1.36011   1.39739
 Alpha virt. eigenvalues --    1.42900   1.46205   1.47272   1.49292   1.52660
 Alpha virt. eigenvalues --    1.54622   1.55388   1.60500   1.61432   1.66033
 Alpha virt. eigenvalues --    1.68649   1.70319   1.72831   1.73423   1.77044
 Alpha virt. eigenvalues --    1.77731   1.80006   1.84370   1.89112   1.92626
 Alpha virt. eigenvalues --    1.93643   1.96082   1.97495   1.99042   2.00848
 Alpha virt. eigenvalues --    2.02984   2.03810   2.05893   2.08869   2.11810
 Alpha virt. eigenvalues --    2.12912   2.13724   2.17750   2.18882   2.19396
 Alpha virt. eigenvalues --    2.20737   2.22086   2.24133   2.25109   2.26402
 Alpha virt. eigenvalues --    2.29205   2.32278   2.33445   2.35554   2.35989
 Alpha virt. eigenvalues --    2.38577   2.39870   2.41591   2.43104   2.46358
 Alpha virt. eigenvalues --    2.48585   2.50413   2.50791   2.56766   2.57175
 Alpha virt. eigenvalues --    2.60770   2.62878   2.65983   2.68532   2.68829
 Alpha virt. eigenvalues --    2.69717   2.70181   2.74816   2.77190   2.80714
 Alpha virt. eigenvalues --    2.84637   2.86708   2.90027   2.91467   2.95277
 Alpha virt. eigenvalues --    2.97631   2.98439   3.02358   3.03631   3.05690
 Alpha virt. eigenvalues --    3.07027   3.12703   3.19193   3.22686   3.27109
 Alpha virt. eigenvalues --    3.30729   3.33768   3.37176   3.43501   3.59787
 Alpha virt. eigenvalues --    4.10117   4.23257   4.32061   4.36357   4.43143
 Alpha virt. eigenvalues --    4.52674   4.59668   4.60169   4.70846   4.77591
 Alpha virt. eigenvalues --    4.96359   4.99240   5.02802   5.09949
          Condensed to atoms (all electrons):
               1          2          3          4          5          6
     1  O    8.300753   0.311805  -0.088342  -0.080430   0.003595  -0.000014
     2  N    0.311805   5.681479   0.309597   0.265839  -0.046930   0.000859
     3  O   -0.088342   0.309597   8.329474  -0.087022   0.008097   0.000454
     4  C   -0.080430   0.265839  -0.087022   5.246534   0.566282  -0.047901
     5  C    0.003595  -0.046930   0.008097   0.566282   4.672556   0.307530
     6  N   -0.000014   0.000859   0.000454  -0.047901   0.307530   7.189943
     7  C    0.000003  -0.000094   0.000002   0.004124  -0.029274   0.198525
     8  H   -0.000000   0.000002  -0.000000  -0.000180   0.002292  -0.050001
     9  C   -0.000000  -0.000003   0.000000   0.000473   0.001668  -0.056168
    10  C   -0.000000   0.000000  -0.000000  -0.000019  -0.000063   0.003335
    11  C   -0.000000  -0.000000  -0.000000  -0.000014   0.000015  -0.000154
    12  C   -0.000000   0.000002  -0.000000  -0.000100  -0.000127   0.003598
    13  C   -0.000020  -0.000023  -0.000003  -0.010491   0.000449  -0.044328
    14  H   -0.000003  -0.000055   0.000000   0.002970   0.004823  -0.005572
    15  N    0.000181   0.001635  -0.000012  -0.061244  -0.003716   0.001867
    16  C    0.003138  -0.026039   0.001892   0.318829  -0.041171  -0.001256
    17  H    0.000129  -0.004111   0.011926  -0.027429   0.377579  -0.033895
    18  H    0.000000  -0.000035   0.000008   0.000945  -0.024356   0.328379
    19  H    0.000000   0.000000   0.000000  -0.000763   0.000654   0.000645
    20  H    0.000000  -0.000000   0.000000  -0.000026   0.000030  -0.001714
    21  H   -0.000000  -0.000000   0.000000   0.000000   0.000001  -0.000059
    22  H   -0.000000   0.000000  -0.000000  -0.000000  -0.000002  -0.000098
    23  H    0.000000  -0.000000   0.000000   0.000025  -0.000000  -0.000024
    24  H    0.000000   0.000000   0.000000   0.000000  -0.000000   0.000004
    25  H    0.000000  -0.000000   0.000000   0.000019  -0.000001  -0.000071
    26  H    0.000000  -0.000000   0.000000   0.000006  -0.000001  -0.000067
    27  H    0.005249  -0.000227  -0.000001  -0.065948   0.002148   0.000046
               7          8          9         10         11         12
     1  O    0.000003  -0.000000  -0.000000  -0.000000  -0.000000  -0.000000
     2  N   -0.000094   0.000002  -0.000003   0.000000  -0.000000   0.000002
     3  O    0.000002  -0.000000   0.000000  -0.000000  -0.000000  -0.000000
     4  C    0.004124  -0.000180   0.000473  -0.000019  -0.000014  -0.000100
     5  C   -0.029274   0.002292   0.001668  -0.000063   0.000015  -0.000127
     6  N    0.198525  -0.050001  -0.056168   0.003335  -0.000154   0.003598
     7  C    5.003009   0.416783   0.340750  -0.049333  -0.007705  -0.064135
     8  H    0.416783   0.547532  -0.060596   0.001473  -0.000331  -0.002842
     9  C    0.340750  -0.060596   5.181276   0.317912  -0.053047  -0.006220
    10  C   -0.049333   0.001473   0.317912   5.126774   0.332754  -0.060144
    11  C   -0.007705  -0.000331  -0.053047   0.332754   5.123951   0.330649
    12  C   -0.064135  -0.002842  -0.006220  -0.060144   0.330649   5.136997
    13  C    0.332393  -0.040406  -0.050384  -0.001732  -0.047896   0.368222
    14  H   -0.040223  -0.000943   0.003866  -0.000391   0.003955  -0.040739
    15  N   -0.058177   0.004048  -0.012883   0.001461  -0.007730  -0.074160
    16  C   -0.002359   0.000024  -0.000898  -0.000025   0.000003   0.002507
    17  H    0.001432  -0.000019  -0.000065   0.000001   0.000000   0.000001
    18  H   -0.028469  -0.002668   0.000838  -0.000121   0.000011  -0.000136
    19  H   -0.034991   0.004099   0.385956  -0.032572  -0.002265   0.000630
    20  H   -0.041641  -0.001853   0.397243  -0.037374   0.004139  -0.000361
    21  H    0.004043  -0.000080  -0.035834   0.400141  -0.035845   0.004211
    22  H   -0.004217   0.003510  -0.045687   0.395971  -0.045622  -0.001230
    23  H    0.000428   0.000033  -0.002003  -0.040093   0.396701  -0.036631
    24  H   -0.000141  -0.000098   0.004395  -0.038482   0.400297  -0.037869
    25  H    0.004980  -0.000005  -0.000370   0.004097  -0.033930   0.395440
    26  H   -0.004452   0.001605   0.001040  -0.002402  -0.042313   0.394692
    27  H   -0.000402   0.000009  -0.000059   0.000005   0.000005  -0.000019
              13         14         15         16         17         18
     1  O   -0.000020  -0.000003   0.000181   0.003138   0.000129   0.000000
     2  N   -0.000023  -0.000055   0.001635  -0.026039  -0.004111  -0.000035
     3  O   -0.000003   0.000000  -0.000012   0.001892   0.011926   0.000008
     4  C   -0.010491   0.002970  -0.061244   0.318829  -0.027429   0.000945
     5  C    0.000449   0.004823  -0.003716  -0.041171   0.377579  -0.024356
     6  N   -0.044328  -0.005572   0.001867  -0.001256  -0.033895   0.328379
     7  C    0.332393  -0.040223  -0.058177  -0.002359   0.001432  -0.028469
     8  H   -0.040406  -0.000943   0.004048   0.000024  -0.000019  -0.002668
     9  C   -0.050384   0.003866  -0.012883  -0.000898  -0.000065   0.000838
    10  C   -0.001732  -0.000391   0.001461  -0.000025   0.000001  -0.000121
    11  C   -0.047896   0.003955  -0.007730   0.000003   0.000000   0.000011
    12  C    0.368222  -0.040739  -0.074160   0.002507   0.000001  -0.000136
    13  C    5.024283   0.402293   0.239654  -0.069685  -0.000042   0.003682
    14  H    0.402293   0.519299  -0.035825  -0.004835   0.000064   0.000009
    15  N    0.239654  -0.035825   6.936236   0.587639  -0.000059  -0.000119
    16  C   -0.069685  -0.004835   0.587639   4.698242   0.001642  -0.000215
    17  H   -0.000042   0.000064  -0.000059   0.001642   0.386520  -0.001867
    18  H    0.003682   0.000009  -0.000119  -0.000215  -0.001867   0.324570
    19  H   -0.006280   0.000065   0.006957   0.002534   0.000011  -0.000127
    20  H    0.003863  -0.000049   0.000079  -0.000031  -0.000001   0.002872
    21  H   -0.000376   0.000009  -0.000029   0.000002  -0.000000  -0.000000
    22  H    0.000319  -0.000044   0.000002  -0.000001   0.000000   0.000002
    23  H   -0.005859   0.000008   0.006758   0.000062   0.000000   0.000000
    24  H    0.004142  -0.000058   0.000044   0.000005   0.000000  -0.000000
    25  H   -0.034476  -0.002657   0.000760  -0.000062  -0.000000   0.000002
    26  H   -0.044807  -0.000907   0.004187  -0.000055   0.000000  -0.000001
    27  H    0.004881  -0.000174  -0.039912   0.402329  -0.000059   0.000002
              19         20         21         22         23         24
     1  O    0.000000   0.000000  -0.000000  -0.000000   0.000000   0.000000
     2  N    0.000000  -0.000000  -0.000000   0.000000  -0.000000   0.000000
     3  O    0.000000   0.000000   0.000000  -0.000000   0.000000   0.000000
     4  C   -0.000763  -0.000026   0.000000  -0.000000   0.000025   0.000000
     5  C    0.000654   0.000030   0.000001  -0.000002  -0.000000  -0.000000
     6  N    0.000645  -0.001714  -0.000059  -0.000098  -0.000024   0.000004
     7  C   -0.034991  -0.041641   0.004043  -0.004217   0.000428  -0.000141
     8  H    0.004099  -0.001853  -0.000080   0.003510   0.000033  -0.000098
     9  C    0.385956   0.397243  -0.035834  -0.045687  -0.002003   0.004395
    10  C   -0.032572  -0.037374   0.400141   0.395971  -0.040093  -0.038482
    11  C   -0.002265   0.004139  -0.035845  -0.045622   0.396701   0.400297
    12  C    0.000630  -0.000361   0.004211  -0.001230  -0.036631  -0.037869
    13  C   -0.006280   0.003863  -0.000376   0.000319  -0.005859   0.004142
    14  H    0.000065  -0.000049   0.000009  -0.000044   0.000008  -0.000058
    15  N    0.006957   0.000079  -0.000029   0.000002   0.006758   0.000044
    16  C    0.002534  -0.000031   0.000002  -0.000001   0.000062   0.000005
    17  H    0.000011  -0.000001  -0.000000   0.000000   0.000000   0.000000
    18  H   -0.000127   0.002872  -0.000000   0.000002   0.000000  -0.000000
    19  H    0.506866  -0.024024  -0.002593   0.003757   0.001641  -0.000070
    20  H   -0.024024   0.550168  -0.002614  -0.002966  -0.000049  -0.000090
    21  H   -0.002593  -0.002614   0.526122  -0.024698  -0.002813  -0.002059
    22  H    0.003757  -0.002966  -0.024698   0.568851   0.004061  -0.003596
    23  H    0.001641  -0.000049  -0.002813   0.004061   0.509672  -0.024993
    24  H   -0.000070  -0.000090  -0.002059  -0.003596  -0.024993   0.541054
    25  H   -0.000027   0.000011  -0.000086  -0.000082  -0.002093  -0.002380
    26  H    0.000023  -0.000035  -0.000074   0.002465   0.003821  -0.002767
    27  H    0.000075  -0.000000  -0.000000   0.000000  -0.000022  -0.000000
              25         26         27
     1  O    0.000000   0.000000   0.005249
     2  N   -0.000000  -0.000000  -0.000227
     3  O    0.000000   0.000000  -0.000001
     4  C    0.000019   0.000006  -0.065948
     5  C   -0.000001  -0.000001   0.002148
     6  N   -0.000071  -0.000067   0.000046
     7  C    0.004980  -0.004452  -0.000402
     8  H   -0.000005   0.001605   0.000009
     9  C   -0.000370   0.001040  -0.000059
    10  C    0.004097  -0.002402   0.000005
    11  C   -0.033930  -0.042313   0.000005
    12  C    0.395440   0.394692  -0.000019
    13  C   -0.034476  -0.044807   0.004881
    14  H   -0.002657  -0.000907  -0.000174
    15  N    0.000760   0.004187  -0.039912
    16  C   -0.000062  -0.000055   0.402329
    17  H   -0.000000   0.000000  -0.000059
    18  H    0.000002  -0.000001   0.000002
    19  H   -0.000027   0.000023   0.000075
    20  H    0.000011  -0.000035  -0.000000
    21  H   -0.000086  -0.000074  -0.000000
    22  H   -0.000082   0.002465   0.000000
    23  H   -0.002093   0.003821  -0.000022
    24  H   -0.002380  -0.002767  -0.000000
    25  H    0.510427  -0.023100  -0.000010
    26  H   -0.023100   0.560930   0.000001
    27  H   -0.000010   0.000001   0.452312
 Mulliken charges:
               1
     1  O   -0.456043
     2  N    0.506300
     3  O   -0.486068
     4  C   -0.024478
     5  C    0.197921
     6  N   -0.793863
     7  C    0.059142
     8  H    0.178611
     9  C   -0.311198
    10  C   -0.321174
    11  C   -0.315628
    12  C   -0.312235
    13  C   -0.027374
    14  H    0.195117
    15  N   -0.497640
    16  C    0.127785
    17  H    0.288243
    18  H    0.396792
    19  H    0.189799
    20  H    0.154427
    21  H    0.172632
    22  H    0.149303
    23  H    0.191371
    24  H    0.162664
    25  H    0.183612
    26  H    0.152212
    27  H    0.239771
 Sum of Mulliken charges =  -0.00000
 Mulliken charges with hydrogens summed into heavy atoms:
               1
     1  O   -0.456043
     2  N    0.506300
     3  O   -0.486068
     4  C   -0.024478
     5  C    0.486164
     6  N   -0.397072
     7  C    0.237753
     9  C    0.033029
    10  C    0.000760
    11  C    0.038407
    12  C    0.023590
    13  C    0.167743
    15  N   -0.497640
    16  C    0.367556
 Electronic spatial extent (au):  <R**2>=           3125.9047
 Charge=             -0.0000 electrons
 Dipole moment (field-independent basis, Debye):
    X=              5.3353    Y=              4.4946    Z=              0.4935  Tot=              6.9936
 Quadrupole moment (field-independent basis, Debye-Ang):
   XX=           -105.3503   YY=            -80.2723   ZZ=            -82.2638
   XY=             -1.8634   XZ=              0.9584   YZ=              0.0376
 Traceless Quadrupole moment (field-independent basis, Debye-Ang):
   XX=            -16.0548   YY=              9.0232   ZZ=              7.0317
   XY=             -1.8634   XZ=              0.9584   YZ=              0.0376
 Octapole moment (field-independent basis, Debye-Ang**2):
  XXX=            100.8822  YYY=             36.6766  ZZZ=             -5.3488  XYY=             -1.4107
  XXY=             11.6686  XXZ=             -0.6682  XZZ=             -8.3017  YZZ=             -2.8924
  YYZ=              0.7030  XYZ=             -1.4305
 Hexadecapole moment (field-independent basis, Debye-Ang**3):
 XXXX=          -3559.0469 YYYY=           -619.6415 ZZZZ=           -298.9917 XXXY=            -40.3344
 XXXZ=             28.3858 YYYX=            -20.2844 YYYZ=             11.2925 ZZZX=             22.3005
 ZZZY=              8.8257 XXYY=           -656.9265 XXZZ=           -543.6456 YYZZ=           -164.4849
 XXYZ=              2.3007 YYXZ=             10.5828 ZZXY=              2.5361
 N-N= 9.174499236570D+02 E-N=-3.380909899927D+03  KE= 6.588529973713D+02
 Calling FoFJK, ICntrl=  10002127 FMM=F ISym2X=0 I1Cent= 0 IOpClX= 0 NMat=1 NMatS=1 NMatT=0.
 -------------------------------------------------------------------
 Center     Atomic                   Forces (Hartrees/Bohr)
 Number     Number              X              Y              Z
 -------------------------------------------------------------------
      1        8           0.000216746   -0.018892028   -0.003014655
      2        7           0.041363822    0.012308902   -0.002098988
      3        8          -0.004836458    0.014805584    0.003450268
      4        6          -0.003283967    0.010574951    0.009857915
      5        6           0.003504962   -0.016623924   -0.005287377
      6        7           0.014819199   -0.010010384   -0.006369947
      7        6          -0.004688007    0.005240558    0.002872872
      8        1          -0.010076464   -0.001738529   -0.007658830
      9        6          -0.003945174    0.000162892   -0.002121242
     10        6           0.002840114   -0.000870546    0.000978394
     11        6          -0.001044541   -0.004610436   -0.002414555
     12        6           0.000823886   -0.008749403   -0.002867270
     13        6           0.008937867   -0.001979782    0.004780215
     14        1           0.000891515    0.004477280   -0.009850244
     15        7          -0.000017543    0.001206529    0.001306565
     16        6          -0.021477730    0.007317676    0.003591558
     17        1           0.007105321   -0.005957837   -0.006323674
     18        1          -0.017560998   -0.001707631    0.006240362
     19        1           0.003100247    0.005889502    0.007695722
     20        1          -0.003251066   -0.007345849    0.002603686
     21        1          -0.004366214    0.002402712    0.009614316
     22        1          -0.003981286   -0.003980107   -0.007407549
     23        1           0.003979535    0.006132328    0.009298724
     24        1          -0.009380126    0.002619281   -0.002138656
     25        1          -0.000773271    0.010585978   -0.002407346
     26        1          -0.004776818   -0.004808455   -0.004375393
     27        1           0.005876446    0.003550737    0.002045127
 -------------------------------------------------------------------
 Cartesian Forces:  Max     0.041363822 RMS     0.008486097

 GradGradGradGradGradGradGradGradGradGradGradGradGradGradGradGradGradGrad
 Berny optimization.
 FormGI is forming the generalized inverse of G from B-inverse, IUseBI=4.
 Internal  Forces:  Max     0.037652287 RMS     0.006839666
 Search for a local minimum.
 Step number   1 out of a maximum of   20
 All quantities printed in internal units (Hartrees-Bohrs-Radians)
 Mixed Optimization -- RFO/linear search
 Second derivative matrix not updated -- first step.
 ITU=  0
     Eigenvalues ---    0.00231   0.00770   0.01041   0.01144   0.01196
     Eigenvalues ---    0.01480   0.01530   0.01601   0.01970   0.02017
     Eigenvalues ---    0.02088   0.02689   0.03663   0.04506   0.04694
     Eigenvalues ---    0.04838   0.05081   0.05138   0.05304   0.05893
     Eigenvalues ---    0.06265   0.07216   0.07700   0.07725   0.07872
     Eigenvalues ---    0.07993   0.08050   0.08056   0.10459   0.11738
     Eigenvalues ---    0.12268   0.13482   0.15251   0.15732   0.15991
     Eigenvalues ---    0.16000   0.20086   0.21949   0.23152   0.24980
     Eigenvalues ---    0.25000   0.25370   0.26202   0.26651   0.27979
     Eigenvalues ---    0.28084   0.28472   0.29577   0.31460   0.31632
     Eigenvalues ---    0.32046   0.32237   0.32290   0.32381   0.32388
     Eigenvalues ---    0.32405   0.32516   0.32526   0.32581   0.33293
     Eigenvalues ---    0.33390   0.33602   0.35367   0.43882   0.44248
     Eigenvalues ---    0.49160   0.66997   0.90445   0.911321000.00000
     Eigenvalues --- 1000.000001000.000001000.000001000.000001000.00000
     Eigenvalues --- 1000.000001000.000001000.000001000.000001000.00000
     Eigenvalues --- 1000.000001000.000001000.000001000.000001000.00000
     Eigenvalues --- 1000.000001000.000001000.000001000.000001000.00000
     Eigenvalues --- 1000.000001000.000001000.000001000.000001000.00000
     Eigenvalues --- 1000.000001000.000001000.000001000.000001000.00000
     Eigenvalues --- 1000.000001000.000001000.000001000.000001000.00000
     Eigenvalues --- 1000.000001000.000001000.000001000.000001000.00000
     Eigenvalues --- 1000.000001000.000001000.000001000.000001000.00000
     Eigenvalues --- 1000.000001000.000001000.000001000.000001000.00000
     Eigenvalues --- 1000.000001000.000001000.000001000.000001000.00000
     Eigenvalues --- 1000.000001000.000001000.000001000.000001000.00000
     Eigenvalues --- 1000.000001000.000001000.000001000.000001000.00000
     Eigenvalues --- 1000.000001000.000001000.000001000.000001000.00000
     Eigenvalues --- 1000.000001000.000001000.000001000.000001000.00000
     Eigenvalues --- 1000.000001000.000001000.000001000.000001000.00000
     Eigenvalues --- 1000.000001000.000001000.000001000.000001000.00000
     Eigenvalues --- 1000.000001000.000001000.000001000.000001000.00000
     Eigenvalues --- 1000.00000
 RFO step:  Lambda=-2.34981576D-02 EMin= 2.31102211D-03
 Linear search not attempted -- first point.
 Iteration  1 RMS(Cart)=  0.05519189 RMS(Int)=  0.00107711
 Iteration  2 RMS(Cart)=  0.00115258 RMS(Int)=  0.00022232
 Iteration  3 RMS(Cart)=  0.00000096 RMS(Int)=  0.00022232
 Iteration  1 RMS(Cart)=  0.00003393 RMS(Int)=  0.00002363
 Iteration  2 RMS(Cart)=  0.00001550 RMS(Int)=  0.00002627
 Iteration  3 RMS(Cart)=  0.00000785 RMS(Int)=  0.00002909
 Iteration  4 RMS(Cart)=  0.00000451 RMS(Int)=  0.00003083
 Iteration  5 RMS(Cart)=  0.00000298 RMS(Int)=  0.00003187
 Iteration  6 RMS(Cart)=  0.00000222 RMS(Int)=  0.00003253
 Iteration  7 RMS(Cart)=  0.00000178 RMS(Int)=  0.00003299
 Iteration  8 RMS(Cart)=  0.00000148 RMS(Int)=  0.00003334
 Iteration  9 RMS(Cart)=  0.00000125 RMS(Int)=  0.00003361
 Iteration 10 RMS(Cart)=  0.00000106 RMS(Int)=  0.00003383
 Iteration 11 RMS(Cart)=  0.00000091 RMS(Int)=  0.00003401
 Variable       Old X    -DE/DX   Delta X   Delta X   Delta X     New X
                                 (Linear)    (Quad)   (Total)
    R1        2.32416   0.01828   0.00000   0.01955   0.01955   2.34371
    R2        2.32728   0.01479   0.00000   0.01594   0.01594   2.34322
    R3        2.88814  -0.03765   0.00000  -0.11793  -0.11793   2.77021
    R4        2.64480  -0.03452   0.00000  -0.07461  -0.07436   2.57044
    R5        2.81056  -0.02212   0.00000  -0.06352  -0.06329   2.74727
    R6        2.59073  -0.02441   0.00000  -0.04734  -0.04724   2.54348
    R7        2.08373  -0.01036   0.00000  -0.02897  -0.02897   2.05475
    R8        2.82448  -0.01948   0.00000  -0.05409  -0.05420   2.77028
    R9        1.93296  -0.00664   0.00000  -0.01437  -0.01437   1.91859
   R10        2.11843  -0.01189   0.00000  -0.03516  -0.03516   2.08327
   R11        2.92740  -0.01299   0.00000  -0.04431  -0.04433   2.88307
   R12        2.90262  -0.00444   0.00000  -0.00875  -0.00880   2.89383
   R13        2.91138  -0.00464   0.00000  -0.01435  -0.01437   2.89702
   R14        2.09910  -0.00996   0.00000  -0.02856  -0.02856   2.07054
   R15        2.09893  -0.00802   0.00000  -0.02301  -0.02301   2.07592
   R16        2.90430  -0.00183   0.00000  -0.00716  -0.00720   2.89710
   R17        2.10140  -0.01057   0.00000  -0.03044  -0.03044   2.07096
   R18        2.10317  -0.00901   0.00000  -0.02601  -0.02601   2.07716
   R19        2.91769  -0.00907   0.00000  -0.02877  -0.02874   2.88895
   R20        2.10412  -0.01167   0.00000  -0.03375  -0.03375   2.07036
   R21        2.10110  -0.00995   0.00000  -0.02862  -0.02862   2.07248
   R22        2.93532  -0.01056   0.00000  -0.03642  -0.03641   2.89891
   R23        2.10152  -0.01073   0.00000  -0.03088  -0.03088   2.07064
   R24        2.09794  -0.00786   0.00000  -0.02250  -0.02250   2.07544
   R25        2.10760  -0.00916   0.00000  -0.02663  -0.02663   2.08097
   R26        2.76797  -0.00518   0.00000  -0.01083  -0.01114   2.75683
   R27        2.44274  -0.00580   0.00000  -0.00789  -0.00792   2.43482
   R28        2.08006  -0.00626   0.00000  -0.01742  -0.01742   2.06265
    A1        2.16420   0.00893   0.00000   0.02510   0.02490   2.18910
    A2        2.04179  -0.00422   0.00000   0.00000  -0.00000   2.04179
    A3        2.07710  -0.00470   0.00000  -0.02472  -0.02492   2.05218
    A4        2.02928  -0.00687   0.00000  -0.02281  -0.02319   2.00608
    A5        2.03784  -0.00366   0.00000  -0.01105  -0.01145   2.02638
    A6        2.21529   0.01047   0.00000   0.03256   0.03279   2.24809
    A7        2.20089   0.00623   0.00000   0.01965   0.01997   2.22086
    A8        2.06410  -0.00337   0.00000  -0.01094  -0.01118   2.05292
    A9        2.01723  -0.00282   0.00000  -0.00788  -0.00814   2.00909
   A10        2.25355  -0.00565   0.00000  -0.01957  -0.01963   2.23392
   A11        2.11566  -0.01243   0.00000  -0.07153  -0.07187   2.04379
   A12        1.87501   0.01827   0.00000   0.09833   0.09848   1.97349
   A13        1.83801  -0.00157   0.00000  -0.01777  -0.01757   1.82044
   A14        2.00678  -0.00113   0.00000  -0.01257  -0.01257   1.99421
   A15        1.96718   0.00102   0.00000   0.00181   0.00132   1.96850
   A16        1.85190   0.00268   0.00000   0.02402   0.02385   1.87575
   A17        1.84912   0.00081   0.00000   0.01803   0.01787   1.86699
   A18        1.93684  -0.00148   0.00000  -0.00930  -0.00899   1.92785
   A19        1.91015   0.00014   0.00000  -0.00473  -0.00487   1.90528
   A20        1.92260  -0.00073   0.00000  -0.01299  -0.01295   1.90965
   A21        1.92282  -0.00165   0.00000  -0.00710  -0.00710   1.91572
   A22        1.91924  -0.00040   0.00000   0.00576   0.00571   1.92496
   A23        1.90446   0.00305   0.00000   0.02447   0.02449   1.92895
   A24        1.88437  -0.00039   0.00000  -0.00499  -0.00524   1.87912
   A25        1.94043  -0.00087   0.00000   0.00565   0.00552   1.94595
   A26        1.91896  -0.00070   0.00000  -0.00683  -0.00684   1.91212
   A27        1.90498   0.00031   0.00000  -0.00297  -0.00303   1.90195
   A28        1.91613   0.00079   0.00000   0.00713   0.00717   1.92331
   A29        1.89849   0.00171   0.00000   0.01114   0.01117   1.90966
   A30        1.88380  -0.00122   0.00000  -0.01459  -0.01468   1.86912
   A31        1.94469   0.00063   0.00000   0.00505   0.00518   1.94987
   A32        1.90236   0.00063   0.00000   0.00591   0.00585   1.90822
   A33        1.91747   0.00038   0.00000   0.00530   0.00527   1.92274
   A34        1.90654  -0.00113   0.00000  -0.01413  -0.01418   1.89236
   A35        1.91537  -0.00047   0.00000   0.00013   0.00004   1.91541
   A36        1.87603  -0.00007   0.00000  -0.00263  -0.00266   1.87338
   A37        1.94792  -0.00295   0.00000  -0.01805  -0.01808   1.92984
   A38        1.90595   0.00254   0.00000   0.01693   0.01678   1.92273
   A39        1.91068   0.00138   0.00000   0.01321   0.01319   1.92387
   A40        1.90612   0.00018   0.00000  -0.00294  -0.00278   1.90334
   A41        1.91134  -0.00021   0.00000  -0.00479  -0.00473   1.90661
   A42        1.88058  -0.00087   0.00000  -0.00388  -0.00407   1.87651
   A43        1.84660   0.00453   0.00000   0.02361   0.02365   1.87026
   A44        1.93881  -0.00431   0.00000  -0.03134  -0.03175   1.90706
   A45        1.98277   0.00083   0.00000   0.01142   0.01161   1.99437
   A46        1.88057   0.00223   0.00000   0.03020   0.03051   1.91108
   A47        1.89202  -0.00387   0.00000  -0.02842  -0.02846   1.86355
   A48        1.91847   0.00080   0.00000  -0.00316  -0.00302   1.91544
   A49        2.08361  -0.00607   0.00000  -0.01378  -0.01414   2.06947
   A50        2.25155  -0.00514   0.00000  -0.02158  -0.02163   2.22993
   A51        1.97885   0.00570   0.00000   0.02793   0.02745   2.00630
   A52        2.05276  -0.00054   0.00000  -0.00605  -0.00652   2.04624
    D1       -3.03698  -0.00075   0.00000  -0.03211  -0.03145  -3.06843
    D2        0.14413   0.00038   0.00000   0.00000  -0.00000   0.14413
    D3        0.11881  -0.00172   0.00000  -0.06127  -0.06094   0.05787
    D4       -2.98327  -0.00059   0.00000  -0.02916  -0.02949  -3.01275
    D5        3.07515   0.00055   0.00000   0.01478   0.01484   3.08998
    D6       -0.01712  -0.00045   0.00000  -0.00609  -0.00610  -0.02322
    D7       -0.11059  -0.00114   0.00000  -0.02242  -0.02283  -0.13342
    D8        3.08033  -0.00214   0.00000  -0.04329  -0.04377   3.03657
    D9       -2.69863  -0.00198   0.00000  -0.04465  -0.04519  -2.74382
   D10        0.43549   0.00046   0.00000   0.00487   0.00463   0.44013
   D11        0.48729  -0.00021   0.00000  -0.00704  -0.00692   0.48037
   D12       -2.66177   0.00222   0.00000   0.04248   0.04291  -2.61887
   D13       -0.13143  -0.00010   0.00000   0.02354   0.02376  -0.10768
   D14        2.67491   0.00380   0.00000   0.07031   0.06938   2.74429
   D15        2.96200   0.00085   0.00000   0.04382   0.04414   3.00614
   D16       -0.51484   0.00475   0.00000   0.09058   0.08977  -0.42508
   D17       -2.48080  -0.00073   0.00000  -0.01870  -0.01832  -2.49912
   D18        1.77058  -0.00238   0.00000  -0.02976  -0.02943   1.74116
   D19       -0.47283  -0.00019   0.00000  -0.00677  -0.00676  -0.47959
   D20        0.96015  -0.00009   0.00000  -0.03722  -0.03769   0.92246
   D21       -1.07165  -0.00174   0.00000  -0.04828  -0.04880  -1.12045
   D22        2.96811   0.00045   0.00000  -0.02529  -0.02613   2.94199
   D23        2.94446   0.00235   0.00000   0.02535   0.02526   2.96972
   D24       -1.22658   0.00148   0.00000   0.02124   0.02116  -1.20542
   D25        0.85045  -0.00048   0.00000   0.00256   0.00255   0.85300
   D26        0.92061   0.00315   0.00000   0.03830   0.03830   0.95890
   D27        3.03275   0.00228   0.00000   0.03419   0.03420   3.06695
   D28       -1.17341   0.00031   0.00000   0.01551   0.01560  -1.15781
   D29       -1.08027   0.00144   0.00000   0.00832   0.00830  -1.07197
   D30        1.03188   0.00057   0.00000   0.00421   0.00420   1.03608
   D31        3.10890  -0.00139   0.00000  -0.01447  -0.01441   3.09450
   D32       -2.90035  -0.00105   0.00000  -0.01302  -0.01279  -2.91314
   D33       -0.86427   0.00200   0.00000   0.02038   0.02023  -0.84404
   D34        1.30938   0.00027   0.00000   0.00000  -0.00001   1.30937
   D35       -0.89910  -0.00194   0.00000  -0.02269  -0.02258  -0.92168
   D36        1.13699   0.00111   0.00000   0.01071   0.01043   1.14743
   D37       -2.97255  -0.00062   0.00000  -0.00967  -0.00980  -2.98235
   D38        1.10352   0.00094   0.00000   0.01102   0.01112   1.11464
   D39        3.13960   0.00398   0.00000   0.04442   0.04414  -3.09944
   D40       -0.96994   0.00226   0.00000   0.02404   0.02391  -0.94603
   D41        0.95665   0.00065   0.00000   0.00000   0.00001   0.95666
   D42        3.08231   0.00059   0.00000   0.00812   0.00807   3.09038
   D43       -1.13764  -0.00112   0.00000  -0.01542  -0.01539  -1.15303
   D44       -1.15753   0.00172   0.00000   0.01545   0.01552  -1.14201
   D45        0.96813   0.00166   0.00000   0.02356   0.02359   0.99172
   D46        3.03136  -0.00005   0.00000   0.00002   0.00012   3.03148
   D47        3.06188   0.00060   0.00000   0.00347   0.00344   3.06532
   D48       -1.09564   0.00054   0.00000   0.01159   0.01151  -1.08414
   D49        0.96759  -0.00118   0.00000  -0.01195  -0.01196   0.95563
   D50       -0.92192  -0.00080   0.00000   0.00000   0.00001  -0.92192
   D51        1.18334  -0.00140   0.00000  -0.01052  -0.01053   1.17281
   D52       -3.04845  -0.00089   0.00000  -0.00718  -0.00721  -3.05566
   D53       -3.04922   0.00012   0.00000   0.00002   0.00004  -3.04919
   D54       -0.94396  -0.00047   0.00000  -0.01050  -0.01050  -0.95446
   D55        1.10743   0.00003   0.00000  -0.00716  -0.00718   1.10025
   D56        1.17622   0.00014   0.00000   0.00701   0.00705   1.18327
   D57       -3.00170  -0.00045   0.00000  -0.00351  -0.00349  -3.00520
   D58       -0.95031   0.00005   0.00000  -0.00016  -0.00017  -0.95048
   D59        0.98781  -0.00082   0.00000  -0.01182  -0.01187   0.97594
   D60        3.09700  -0.00079   0.00000  -0.01576  -0.01591   3.08108
   D61       -1.13113   0.00044   0.00000  -0.00292  -0.00290  -1.13403
   D62       -1.11501  -0.00126   0.00000  -0.01307  -0.01306  -1.12807
   D63        0.99418  -0.00123   0.00000  -0.01701  -0.01711   0.97707
   D64        3.04925   0.00000   0.00000  -0.00418  -0.00410   3.04515
   D65        3.11555  -0.00024   0.00000  -0.00166  -0.00166   3.11389
   D66       -1.05845  -0.00021   0.00000  -0.00560  -0.00571  -1.06416
   D67        0.99661   0.00102   0.00000   0.00723   0.00730   1.00392
   D68       -1.05243   0.00005   0.00000  -0.00011  -0.00001  -1.05244
   D69       -3.12750   0.00159   0.00000   0.00892   0.00856  -3.11894
   D70        1.08021   0.00152   0.00000   0.01147   0.01137   1.09158
   D71        3.12166  -0.00135   0.00000  -0.00775  -0.00759   3.11408
   D72        1.04660   0.00018   0.00000   0.00127   0.00098   1.04758
   D73       -1.02888   0.00011   0.00000   0.00383   0.00380  -1.02508
   D74        1.06612  -0.00029   0.00000   0.00143   0.00164   1.06775
   D75       -1.00895   0.00125   0.00000   0.01046   0.01020  -0.99874
   D76       -3.08443   0.00118   0.00000   0.01301   0.01302  -3.07141
   D77       -1.17216   0.00370   0.00000   0.00000  -0.00001  -1.17216
   D78        3.06380   0.00013   0.00000  -0.01740  -0.01727   3.04653
   D79        1.01240  -0.00076   0.00000  -0.03544  -0.03569   0.97671
   D80        0.13197   0.00188   0.00000   0.01943   0.01914   0.15111
   D81       -3.00189  -0.00066   0.00000  -0.03199  -0.03179  -3.03367
         Item               Value     Threshold  Converged?
 Maximum Force            0.037652     0.000450     NO 
 RMS     Force            0.006927     0.000300     NO 
 Maximum Displacement     0.315110     0.001800     NO 
 RMS     Displacement     0.055338     0.001200     NO 
 Predicted change in Energy=-1.314217D-02
 GradGradGradGradGradGradGradGradGradGradGradGradGradGradGradGradGradGrad

                          Input orientation:                          
 ---------------------------------------------------------------------
 Center     Atomic      Atomic             Coordinates (Angstroms)
 Number     Number       Type             X           Y           Z
 ---------------------------------------------------------------------
      1          8           0       -3.500626   -1.420863   -0.221236
      2          7           0       -3.128366   -0.252030   -0.038373
      3          8           0       -3.875671    0.718457    0.154612
      4          6           0       -1.682965   -0.007639   -0.031362
      5          6           0       -1.318678    1.269894    0.260860
      6          7           0       -0.068338    1.751549    0.388343
      7          6           0        1.192923    1.004647    0.367683
      8          1           0        1.825537    1.517793    1.110523
      9          6           0        1.926902    1.050714   -0.969021
     10          6           0        3.327468    0.452102   -0.795020
     11          6           0        3.265008   -0.960375   -0.202279
     12          6           0        2.441930   -0.997622    1.085461
     13          6           0        1.032767   -0.442969    0.840741
     14          1           0        0.463699   -0.456332    1.783413
     15          7           0        0.396296   -1.324662   -0.131769
     16          6           0       -0.842994   -1.127397   -0.423925
     17          1           0       -2.111777    1.992181    0.438565
     18          1           0        0.058376    2.750134    0.255861
     19          1           0        1.360710    0.482240   -1.715198
     20          1           0        1.992999    2.089265   -1.320884
     21          1           0        3.841462    0.433943   -1.762740
     22          1           0        3.913741    1.101855   -0.129952
     23          1           0        2.802870   -1.638297   -0.928339
     24          1           0        4.277566   -1.333010   -0.005720
     25          1           0        2.362403   -2.026712    1.453277
     26          1           0        2.933695   -0.404041    1.867792
     27          1           0       -1.325937   -1.859847   -1.073285
 ---------------------------------------------------------------------
                    Distance matrix (angstroms):
                    1          2          3          4          5
     1  O    0.000000
     2  N    1.240237   0.000000
     3  O    2.204226   1.239981   0.000000
     4  C    2.310226   1.465933   2.317274   0.000000
     5  C    3.497641   2.383436   2.617936   1.360217   0.000000
     6  N    4.713426   3.682416   3.951923   2.424441   1.345954
     7  C    5.315950   4.518590   5.081136   3.074849   2.527826
     8  H    6.227142   5.384551   5.835793   3.992547   3.266415
     9  C    6.010486   5.302733   5.919696   3.876914   3.477705
    10  C    7.103527   6.538051   7.270348   5.089104   4.834288
    11  C    6.781314   6.434582   7.344055   5.041762   5.118474
    12  C    6.099226   5.731240   6.612374   4.386584   4.468083
    13  C    4.757702   4.257268   5.090428   2.885356   2.966388
    14  H    4.545856   4.032812   4.781554   2.846560   2.911167
    15  N    3.899136   3.685445   4.744055   2.463323   3.134807
    16  C    2.681457   2.477467   3.597084   1.453794   2.538151
    17  H    3.743409   2.509463   2.194157   2.098568   1.087328
    18  H    5.503757   4.388039   4.428848   3.274154   2.021735
    19  H    5.430130   4.847958   5.565220   3.512726   3.421158
    20  H    6.611365   5.775368   6.204635   4.424092   3.760384
    21  H    7.728053   7.212663   7.956842   5.806200   5.605427
    22  H    7.832322   7.171657   7.804032   5.706472   5.249683
    23  H    6.346757   6.155756   7.164494   4.856576   5.182560
    24  H    7.781673   7.484479   8.408894   6.106161   6.177712
    25  H    6.127492   5.960123   6.938015   4.758762   5.083289
    26  H    6.840939   6.356505   7.110728   5.007741   4.844271
    27  H    2.376545   2.627711   3.828384   2.154935   3.402246
                    6          7          8          9         10
     6  N    0.000000
     7  C    1.465970   0.000000
     8  H    2.040331   1.102421   0.000000
     9  C    2.512884   1.525655   2.133762   0.000000
    10  C    3.823665   2.492683   2.650017   1.533036   0.000000
    11  C    4.337576   2.911994   3.152276   2.534344   1.533079
    12  C    3.787527   2.466639   2.589958   2.946495   2.534184
    13  C    2.496599   1.531348   2.132101   2.511136   2.956775
    14  H    2.665338   2.161139   2.490894   3.462376   3.959134
    15  N    3.154279   2.511921   3.415490   2.947229   3.491212
    16  C    3.090016   3.052411   4.058648   3.565617   4.474962
    17  H    2.058171   3.449824   4.022314   4.379336   5.786101
    18  H    1.015274   2.084808   2.317751   2.807090   4.131860
    19  H    2.842219   2.153940   3.045183   1.095681   2.171583
    20  H    2.699004   2.160504   2.503271   1.098528   2.176613
    21  H    4.652933   3.446617   3.673463   2.162392   1.095902
    22  H    4.067885   2.767660   2.464220   2.157355   1.099186
    23  H    4.633416   3.355109   3.882402   2.828384   2.159339
    24  H    5.343844   3.888328   3.922438   3.483635   2.170784
    25  H    4.617125   3.425688   3.601280   3.940525   3.482916
    26  H    3.980897   2.695369   2.344123   3.343269   2.824642
    27  H    4.093909   4.077545   5.109722   4.366143   5.203530
                   11         12         13         14         15
    11  C    0.000000
    12  C    1.528765   0.000000
    13  C    2.517637   1.534036   0.000000
    14  H    3.470500   2.166455   1.101203   0.000000
    15  N    2.892609   2.402753   1.458853   2.103916   0.000000
    16  C    4.117366   3.617432   2.363536   2.651436   1.288452
    17  H    6.167502   5.485767   3.997481   3.799593   4.197279
    18  H    4.925470   4.518323   3.389311   3.574791   4.107117
    19  H    2.827793   3.347047   2.737952   3.731733   2.588868
    20  H    3.488493   3.939658   3.465094   4.295985   3.952006
    21  H    2.170589   3.481425   3.928849   4.977658   4.197848
    22  H    2.163071   2.837475   3.410093   4.241663   4.273219
    23  H    1.095588   2.143860   2.773394   3.771255   2.554308
    24  H    1.096707   2.161648   3.469494   4.302923   3.883325
    25  H    2.166249   1.095736   2.156704   2.485993   2.621225
    26  H    2.168979   1.098277   2.160989   2.471990   3.359193
    27  H    4.758622   4.427238   3.351794   3.651489   2.034444
                   16         17         18         19         20
    16  C    0.000000
    17  H    3.476415   0.000000
    18  H    4.038543   2.305957   0.000000
    19  H    3.019045   4.356235   3.274827   0.000000
    20  H    4.381131   4.467021   2.581790   1.771385   0.000000
    21  H    5.116086   6.535664   4.873523   2.481677   2.520346
    22  H    5.261417   6.117414   4.210643   3.068370   2.466282
    23  H    3.715881   6.261193   5.309699   2.682470   3.834671
    24  H    5.141722   7.216508   5.877249   3.837382   4.319823
    25  H    3.821940   6.099133   5.436966   4.163828   4.977318
    26  H    4.476448   5.765531   4.562302   4.012180   4.155615
    27  H    1.091506   4.212048   4.993484   3.621532   5.164507
                   21         22         23         24         25
    21  H    0.000000
    22  H    1.765595   0.000000
    23  H    2.463550   3.062660   0.000000
    24  H    2.529709   2.465029   1.766114   0.000000
    25  H    4.311056   3.834213   2.452951   2.505543   0.000000
    26  H    3.834973   2.686855   3.059224   2.485763   1.769536
    27  H    5.695510   6.092272   4.137287   5.728569   4.473836
                   26         27
    26  H    0.000000
    27  H    5.377152   0.000000
 Symmetry turned off by external request.
 Stoichiometry    C9H13N3O2
 Framework group  C1[X(C9H13N3O2)]
 Deg. of freedom    75
 Full point group                 C1      NOp   1
 Rotational constants (GHZ):           1.6887276           0.4210851           0.3718342
 Standard basis: 6-31G(d) (6D, 7F)
   236 basis functions,   444 primitive gaussians,   236 cartesian basis functions
    52 alpha electrons       52 beta electrons
       nuclear repulsion energy       931.9653909425 Hartrees.
 NAtoms=   27 NActive=   27 NUniq=   27 SFac= 1.00D+00 NAtFMM=   60 NAOKFM=F Big=F
 Integral buffers will be    131072 words long.
 Raffenetti 1 integral format.
 Two-electron integral symmetry is turned off.
 One-electron integrals computed using PRISM.
 NBasis=   236 RedAO= T EigKep=  1.01D-03  NBF=   236
 NBsUse=   236 1.00D-06 EigRej= -1.00D+00 NBFU=   236
 Initial guess from the checkpoint file:  "/home/alexey/tmp/Gau-1319821.chk"
 B after Tr=     0.054354    0.005468    0.000006
         Rot=    0.999998   -0.001007    0.000646    0.001370 Ang=  -0.21 deg.
 ExpMin= 1.61D-01 ExpMax= 5.48D+03 ExpMxC= 8.25D+02 IAcc=3 IRadAn=         5 AccDes= 0.00D+00
 Harris functional with IExCor=  205 and IRadAn=       5 diagonalized for initial guess.
 HarFok:  IExCor=  205 AccDes= 0.00D+00 IRadAn=         5 IDoV= 1 UseB2=F ITyADJ=14
 ICtDFT=  3500011 ScaDFX=  1.000000  1.000000  1.000000  1.000000
 FoFCou: FMM=F IPFlag=           0 FMFlag=      100000 FMFlg1=           0
         NFxFlg=           0 DoJE=T BraDBF=F KetDBF=T FulRan=T
         wScrn=  0.000000 ICntrl=       500 IOpCl=  0 I1Cent=   200000004 NGrid=           0
         NMat0=    1 NMatS0=      1 NMatT0=    0 NMatD0=    1 NMtDS0=    0 NMtDT0=    0
 Symmetry not used in FoFCou.
 Keep R1 ints in memory in canonical form, NReq=397720213.
 Requested convergence on RMS density matrix=1.00D-08 within 128 cycles.
 Requested convergence on MAX density matrix=1.00D-06.
 Requested convergence on             energy=1.00D-06.
 No special actions if energy rises.
 SCF Done:  E(RHF) =  -661.298451051     A.U. after   15 cycles
            NFock= 15  Conv=0.43D-08     -V/T= 2.0024
 ExpMin= 1.61D-01 ExpMax= 5.48D+03 ExpMxC= 8.25D+02 IAcc=3 IRadAn=         5 AccDes= 0.00D+00
 HarFok:  IExCor=  205 AccDes= 0.00D+00 IRadAn=         5 IDoV=-2 UseB2=F ITyADJ=14
 ICtDFT= 12500011 ScaDFX=  1.000000  1.000000  1.000000  1.000000
 Range of M.O.s used for correlation:    15   236
 NBasis=   236 NAE=    52 NBE=    52 NFC=    14 NFV=     0
 NROrb=    222 NOA=    38 NOB=    38 NVA=   184 NVB=   184
 Fully direct method using O(ONN) memory.
 JobTyp=1 Pass  1:  I=  15 to  52 NPSUse=  4 ParTrn=T ParDer=T DoDerP=T.
 Spin components of T(2) and E(2):
     alpha-alpha T2 =       0.9122599436D-01 E2=     -0.2722943764D+00
     alpha-beta  T2 =       0.4912220841D+00 E2=     -0.1487941123D+01
     beta-beta   T2 =       0.9122599436D-01 E2=     -0.2722943764D+00
 ANorm=    0.1293705559D+01
 E2 =    -0.2032529876D+01 EUMP2 =    -0.66333098092786D+03
          IDoAtm=111111111111111111111111111
          Differentiating once with respect to electric field.
                with respect to dipole field.
          Differentiating once with respect to nuclear coordinates.
 Keep R1 ints in memory in canonical form, NReq=397723379.
          There are     1 degrees of freedom in the 1st order CPHF.  IDoFFX=0 NUNeed=     1.
 LinEq1:  Iter=  0 NonCon=     1 RMS=4.57D-03 Max=1.01D-01 NDo=     1
 AX will form     1 AO Fock derivatives at one time.
 LinEq1:  Iter=  1 NonCon=     1 RMS=1.53D-03 Max=2.72D-02 NDo=     1
 LinEq1:  Iter=  2 NonCon=     1 RMS=6.41D-04 Max=1.71D-02 NDo=     1
 LinEq1:  Iter=  3 NonCon=     1 RMS=2.80D-04 Max=8.22D-03 NDo=     1
 LinEq1:  Iter=  4 NonCon=     1 RMS=8.71D-05 Max=1.96D-03 NDo=     1
 LinEq1:  Iter=  5 NonCon=     1 RMS=3.64D-05 Max=1.78D-03 NDo=     1
 LinEq1:  Iter=  6 NonCon=     1 RMS=1.40D-05 Max=5.40D-04 NDo=     1
 LinEq1:  Iter=  7 NonCon=     1 RMS=5.31D-06 Max=9.38D-05 NDo=     1
 LinEq1:  Iter=  8 NonCon=     1 RMS=2.09D-06 Max=4.56D-05 NDo=     1
[...]
    21  H    5.096513   6.511152   5.086525   2.499106   2.521018
    22  H    5.248632   6.100524   4.313077   3.070181   2.461402
    23  H    3.695113   6.235179   5.421213   2.704336   3.843006
    24  H    5.133863   7.200979   5.936467   3.849654   4.317091
    25  H    3.821630   6.088625   5.369446   4.171687   4.985113
    26  H    4.495099   5.781377   4.484750   4.036019   4.182217
    27  H    1.089701   4.215240   5.079497   3.583839   5.148287
                   21         22         23         24         25
    21  H    0.000000
    22  H    1.758834   0.000000
    23  H    2.469455   3.062257   0.000000
    24  H    2.517329   2.459836   1.764551   0.000000
    25  H    4.312027   3.839516   2.444125   2.519690   0.000000
    26  H    3.846698   2.704371   3.060398   2.491740   1.767956
    27  H    5.653357   6.060687   4.090833   5.695024   4.454505
                   26         27
    26  H    0.000000
    27  H    5.378443   0.000000
 Symmetry turned off by external request.
 Stoichiometry    C9H13N3O2
 Framework group  C1[X(C9H13N3O2)]
 Deg. of freedom    75
 Full point group                 C1      NOp   1
 Rotational constants (GHZ):           1.6800899           0.4193403           0.3721430

 **********************************************************************

            Population analysis using the SCF Density.

 **********************************************************************

 Alpha  occ. eigenvalues --  -20.59236 -20.58903 -15.84722 -15.64136 -15.56108
 Alpha  occ. eigenvalues --  -11.35016 -11.29622 -11.29557 -11.28625 -11.27133
 Alpha  occ. eigenvalues --  -11.23728 -11.23207 -11.22691 -11.22089  -1.57127
 Alpha  occ. eigenvalues --   -1.36717  -1.30979  -1.23067  -1.14701  -1.09817
 Alpha  occ. eigenvalues --   -1.02805  -1.01306  -0.94480  -0.89685  -0.85565
 Alpha  occ. eigenvalues --   -0.82448  -0.78612  -0.77412  -0.75201  -0.72022
 Alpha  occ. eigenvalues --   -0.69775  -0.69442  -0.67821  -0.64892  -0.63780
 Alpha  occ. eigenvalues --   -0.62368  -0.60280  -0.57700  -0.57001  -0.55077
 Alpha  occ. eigenvalues --   -0.54583  -0.50761  -0.50110  -0.48656  -0.48103
 Alpha  occ. eigenvalues --   -0.47373  -0.46147  -0.46044  -0.43679  -0.41695
 Alpha  occ. eigenvalues --   -0.39844  -0.33827
 Alpha virt. eigenvalues --    0.07470   0.11801   0.17307   0.21849   0.24114
 Alpha virt. eigenvalues --    0.25667   0.27134   0.28694   0.29045   0.29636
 Alpha virt. eigenvalues --    0.30684   0.31799   0.32037   0.32767   0.33951
 Alpha virt. eigenvalues --    0.34387   0.35853   0.37314   0.38581   0.40293
 Alpha virt. eigenvalues --    0.41385   0.42444   0.45026   0.46118   0.46733
 Alpha virt. eigenvalues --    0.47079   0.49008   0.53998   0.57582   0.59407
 Alpha virt. eigenvalues --    0.63920   0.69545   0.69909   0.72861   0.74243
 Alpha virt. eigenvalues --    0.74870   0.75781   0.76677   0.78661   0.79441
 Alpha virt. eigenvalues --    0.81388   0.84693   0.85719   0.85807   0.88529
 Alpha virt. eigenvalues --    0.89425   0.91053   0.92110   0.92853   0.94527
 Alpha virt. eigenvalues --    0.95644   0.98040   0.99641   1.01677   1.02471
 Alpha virt. eigenvalues --    1.03153   1.05872   1.06971   1.07902   1.09012
 Alpha virt. eigenvalues --    1.10283   1.11426   1.11857   1.12443   1.13918
 Alpha virt. eigenvalues --    1.14766   1.14991   1.15833   1.16904   1.18727
 Alpha virt. eigenvalues --    1.19137   1.21340   1.22580   1.23915   1.24540
 Alpha virt. eigenvalues --    1.24831   1.26040   1.26909   1.27483   1.29558
 Alpha virt. eigenvalues --    1.30006   1.33127   1.36073   1.37186   1.40862
 Alpha virt. eigenvalues --    1.41852   1.46487   1.48738   1.51703   1.54289
 Alpha virt. eigenvalues --    1.56379   1.58770   1.59556   1.63471   1.65632
 Alpha virt. eigenvalues --    1.68036   1.68632   1.72992   1.75228   1.77365
 Alpha virt. eigenvalues --    1.81581   1.84598   1.87689   1.90657   1.93499
 Alpha virt. eigenvalues --    1.95813   1.96961   1.99721   2.01569   2.02521
 Alpha virt. eigenvalues --    2.05109   2.05604   2.08499   2.09566   2.12395
 Alpha virt. eigenvalues --    2.13263   2.15298   2.18819   2.20012   2.22451
 Alpha virt. eigenvalues --    2.22635   2.24493   2.25495   2.28216   2.29549
 Alpha virt. eigenvalues --    2.31998   2.33728   2.34700   2.36399   2.38473
 Alpha virt. eigenvalues --    2.40486   2.41933   2.43874   2.45146   2.47368
 Alpha virt. eigenvalues --    2.50719   2.51955   2.53118   2.55572   2.61514
 Alpha virt. eigenvalues --    2.62313   2.65197   2.67627   2.70324   2.70498
 Alpha virt. eigenvalues --    2.72271   2.72651   2.76991   2.78444   2.83812
 Alpha virt. eigenvalues --    2.88566   2.88958   2.92947   2.93139   2.96064
 Alpha virt. eigenvalues --    2.99439   3.01346   3.04321   3.05736   3.07679
 Alpha virt. eigenvalues --    3.09418   3.15052   3.21220   3.25220   3.27462
 Alpha virt. eigenvalues --    3.33457   3.37801   3.38795   3.52166   3.65809
 Alpha virt. eigenvalues --    4.13688   4.28070   4.34731   4.38931   4.46304
 Alpha virt. eigenvalues --    4.56310   4.61874   4.62354   4.73464   4.79744
 Alpha virt. eigenvalues --    4.99415   5.00899   5.05025   5.11166
          Condensed to atoms (all electrons):
               1          2          3          4          5          6
     1  O    8.316135   0.307022  -0.082585  -0.085478   0.004640  -0.000016
     2  N    0.307022   5.722038   0.301304   0.264214  -0.053633   0.000970
     3  O   -0.082585   0.301304   8.353647  -0.092670   0.003637   0.000785
     4  C   -0.085478   0.264214  -0.092670   5.225756   0.560301  -0.047275
     5  C    0.004640  -0.053633   0.003637   0.560301   4.709956   0.317406
     6  N   -0.000016   0.000970   0.000785  -0.047275   0.317406   7.195546
     7  C    0.000004  -0.000140   0.000002   0.004636  -0.030203   0.169293
     8  H   -0.000000   0.000002  -0.000000  -0.000262   0.003099  -0.050668
     9  C   -0.000000  -0.000004  -0.000000   0.000856   0.000621  -0.061650
    10  C    0.000000   0.000000   0.000000  -0.000038  -0.000052   0.003748
    11  C   -0.000000  -0.000000  -0.000000  -0.000028   0.000025  -0.000190
    12  C   -0.000000   0.000002  -0.000000  -0.000127  -0.000176   0.003873
    13  C   -0.000025  -0.000039  -0.000004  -0.011556  -0.000576  -0.047709
    14  H   -0.000004  -0.000105   0.000001   0.002647   0.006075  -0.006961
    15  N    0.000382   0.002362  -0.000016  -0.063541  -0.006389   0.001596
    16  C    0.000823  -0.027265   0.002548   0.328488  -0.050331  -0.001860
    17  H    0.000220  -0.007231   0.017389  -0.023147   0.374521  -0.034187
    18  H    0.000001  -0.000050   0.000012   0.001507  -0.031445   0.338686
    19  H    0.000001  -0.000004   0.000000  -0.001226   0.001234  -0.000354
    20  H    0.000000  -0.000000   0.000000  -0.000079   0.000153  -0.000426
    21  H   -0.000000   0.000000   0.000000   0.000001   0.000001  -0.000077
    22  H   -0.000000   0.000000  -0.000000  -0.000000  -0.000003  -0.000117
    23  H    0.000000  -0.000000   0.000000   0.000041  -0.000000  -0.000030
    24  H    0.000000   0.000000   0.000000   0.000000  -0.000000   0.000006
    25  H    0.000000  -0.000000   0.000000   0.000024   0.000000  -0.000090
    26  H    0.000000  -0.000000   0.000000   0.000006  -0.000002  -0.000060
    27  H    0.006139  -0.000884   0.000019  -0.063429   0.002216   0.000016
               7          8          9         10         11         12
     1  O    0.000004  -0.000000  -0.000000   0.000000  -0.000000  -0.000000
     2  N   -0.000140   0.000002  -0.000004   0.000000  -0.000000   0.000002
     3  O    0.000002  -0.000000  -0.000000   0.000000  -0.000000  -0.000000
     4  C    0.004636  -0.000262   0.000856  -0.000038  -0.000028  -0.000127
     5  C   -0.030203   0.003099   0.000621  -0.000052   0.000025  -0.000176
     6  N    0.169293  -0.050668  -0.061650   0.003748  -0.000190   0.003873
     7  C    5.017673   0.418400   0.350542  -0.054682  -0.009031  -0.061074
     8  H    0.418400   0.538084  -0.055046   0.000775  -0.000325  -0.002227
     9  C    0.350542  -0.055046   5.158186   0.324783  -0.050407  -0.005343
    10  C   -0.054682   0.000775   0.324783   5.119314   0.337007  -0.060988
    11  C   -0.009031  -0.000325  -0.050407   0.337007   5.119897   0.335978
    12  C   -0.061074  -0.002227  -0.005343  -0.060988   0.335978   5.118626
    13  C    0.338593  -0.037911  -0.060240  -0.000282  -0.050689   0.372001
    14  H   -0.046592  -0.000744   0.004421  -0.000405   0.004196  -0.036335
    15  N   -0.057978   0.003900  -0.014618   0.001560  -0.013049  -0.082067
    16  C   -0.001779   0.000010  -0.001271  -0.000029   0.000029   0.002608
    17  H    0.001616  -0.000045  -0.000070   0.000001   0.000000   0.000000
    18  H   -0.021224  -0.004478   0.001330  -0.000083   0.000004  -0.000114
    19  H   -0.036852   0.004361   0.390228  -0.032071  -0.002211   0.000689
    20  H   -0.042419  -0.002078   0.399488  -0.035303   0.003931  -0.000415
    21  H    0.004600  -0.000076  -0.036361   0.402433  -0.034893   0.004348
    22  H   -0.004849   0.003559  -0.046954   0.397753  -0.045404  -0.001021
    23  H    0.000577   0.000035  -0.001957  -0.039016   0.399175  -0.037864
    24  H   -0.000130  -0.000102   0.004388  -0.038439   0.402342  -0.038689
    25  H    0.005151  -0.000025  -0.000423   0.004190  -0.033396   0.398269
    26  H   -0.003906   0.001685   0.000969  -0.002232  -0.041484   0.396730
    27  H   -0.000407   0.000009  -0.000058   0.000007   0.000012  -0.000036
              13         14         15         16         17         18
     1  O   -0.000025  -0.000004   0.000382   0.000823   0.000220   0.000001
     2  N   -0.000039  -0.000105   0.002362  -0.027265  -0.007231  -0.000050
     3  O   -0.000004   0.000001  -0.000016   0.002548   0.017389   0.000012
     4  C   -0.011556   0.002647  -0.063541   0.328488  -0.023147   0.001507
     5  C   -0.000576   0.006075  -0.006389  -0.050331   0.374521  -0.031445
     6  N   -0.047709  -0.006961   0.001596  -0.001860  -0.034187   0.338686
     7  C    0.338593  -0.046592  -0.057978  -0.001779   0.001616  -0.021224
     8  H   -0.037911  -0.000744   0.003900   0.000010  -0.000045  -0.004478
     9  C   -0.060240   0.004421  -0.014618  -0.001271  -0.000070   0.001330
    10  C   -0.000282  -0.000405   0.001560  -0.000029   0.000001  -0.000083
    11  C   -0.050689   0.004196  -0.013049   0.000029   0.000000   0.000004
    12  C    0.372001  -0.036335  -0.082067   0.002608   0.000000  -0.000114
    13  C    5.040137   0.403090   0.244800  -0.071098  -0.000009   0.002970
    14  H    0.403090   0.526794  -0.037372  -0.004543   0.000093  -0.000109
    15  N    0.244800  -0.037372   6.965103   0.585231  -0.000080  -0.000132
    16  C   -0.071098  -0.004543   0.585231   4.710003   0.002014  -0.000197
    17  H   -0.000009   0.000093  -0.000080   0.002014   0.376505  -0.002819
    18  H    0.002970  -0.000109  -0.000132  -0.000197  -0.002819   0.310606
    19  H   -0.007542   0.000106   0.007694   0.003003   0.000016  -0.000149
    20  H    0.004339  -0.000066   0.000126  -0.000036   0.000002   0.000806
    21  H   -0.000433   0.000010  -0.000041   0.000004  -0.000000   0.000001
    22  H    0.000045  -0.000055   0.000019  -0.000002   0.000000   0.000001
    23  H   -0.007525   0.000003   0.008591   0.000106   0.000000   0.000000
    24  H    0.004699  -0.000057   0.000135   0.000007   0.000000  -0.000000
    25  H   -0.035555  -0.002817   0.000410  -0.000022  -0.000000   0.000002
    26  H   -0.047421  -0.001046   0.004901  -0.000061   0.000000  -0.000000
    27  H    0.005059  -0.000174  -0.040306   0.403674  -0.000079   0.000001
              19         20         21         22         23         24
     1  O    0.000001   0.000000  -0.000000  -0.000000   0.000000   0.000000
     2  N   -0.000004  -0.000000   0.000000   0.000000  -0.000000   0.000000
     3  O    0.000000   0.000000   0.000000  -0.000000   0.000000   0.000000
     4  C   -0.001226  -0.000079   0.000001  -0.000000   0.000041   0.000000
     5  C    0.001234   0.000153   0.000001  -0.000003  -0.000000  -0.000000
     6  N   -0.000354  -0.000426  -0.000077  -0.000117  -0.000030   0.000006
     7  C   -0.036852  -0.042419   0.004600  -0.004849   0.000577  -0.000130
     8  H    0.004361  -0.002078  -0.000076   0.003559   0.000035  -0.000102
     9  C    0.390228   0.399488  -0.036361  -0.046954  -0.001957   0.004388
    10  C   -0.032071  -0.035303   0.402433   0.397753  -0.039016  -0.038439
    11  C   -0.002211   0.003931  -0.034893  -0.045404   0.399175   0.402342
    12  C    0.000689  -0.000415   0.004348  -0.001021  -0.037864  -0.038689
    13  C   -0.007542   0.004339  -0.000433   0.000045  -0.007525   0.004699
    14  H    0.000106  -0.000066   0.000010  -0.000055   0.000003  -0.000057
    15  N    0.007694   0.000126  -0.000041   0.000019   0.008591   0.000135
    16  C    0.003003  -0.000036   0.000004  -0.000002   0.000106   0.000007
    17  H    0.000016   0.000002  -0.000000   0.000000   0.000000   0.000000
    18  H   -0.000149   0.000806   0.000001   0.000001   0.000000  -0.000000
    19  H    0.504919  -0.024734  -0.002788   0.003959   0.001514  -0.000066
    20  H   -0.024734   0.541153  -0.002692  -0.002990  -0.000045  -0.000083
    21  H   -0.002788  -0.002692   0.524025  -0.027404  -0.002898  -0.002242
    22  H    0.003959  -0.002990  -0.027404   0.571320   0.004137  -0.003656
    23  H    0.001514  -0.000045  -0.002898   0.004137   0.498962  -0.025452
    24  H   -0.000066  -0.000083  -0.002242  -0.003656  -0.025452   0.538126
    25  H   -0.000029   0.000012  -0.000087  -0.000080  -0.002317  -0.002291
    26  H    0.000019  -0.000030  -0.000081   0.002380   0.004068  -0.003035
    27  H    0.000083   0.000000  -0.000000   0.000000  -0.000035  -0.000000
              25         26         27
     1  O    0.000000   0.000000   0.006139
     2  N   -0.000000  -0.000000  -0.000884
     3  O    0.000000   0.000000   0.000019
     4  C    0.000024   0.000006  -0.063429
     5  C    0.000000  -0.000002   0.002216
     6  N   -0.000090  -0.000060   0.000016
     7  C    0.005151  -0.003906  -0.000407
     8  H   -0.000025   0.001685   0.000009
     9  C   -0.000423   0.000969  -0.000058
    10  C    0.004190  -0.002232   0.000007
    11  C   -0.033396  -0.041484   0.000012
    12  C    0.398269   0.396730  -0.000036
    13  C   -0.035555  -0.047421   0.005059
    14  H   -0.002817  -0.001046  -0.000174
    15  N    0.000410   0.004901  -0.040306
    16  C   -0.000022  -0.000061   0.403674
    17  H   -0.000000   0.000000  -0.000079
    18  H    0.000002  -0.000000   0.000001
    19  H   -0.000029   0.000019   0.000083
    20  H    0.000012  -0.000030   0.000000
    21  H   -0.000087  -0.000081  -0.000000
    22  H   -0.000080   0.002380   0.000000
    23  H   -0.002317   0.004068  -0.000035
    24  H   -0.002291  -0.003035  -0.000000
    25  H    0.506111  -0.024083  -0.000013
    26  H   -0.024083   0.562346   0.000001
    27  H   -0.000013   0.000001   0.439266
 Mulliken charges:
               1
     1  O   -0.467261
     2  N    0.491442
     3  O   -0.504068
     4  C    0.000381
     5  C    0.188926
     6  N   -0.780255
     7  C    0.060178
     8  H    0.180067
     9  C   -0.301410
    10  C   -0.327953
    11  C   -0.321489
    12  C   -0.306650
    13  C   -0.037120
    14  H    0.189945
    15  N   -0.511224
    16  C    0.119948
    17  H    0.295288
    18  H    0.404874
    19  H    0.190199
    20  H    0.161386
    21  H    0.174648
    22  H    0.149361
    23  H    0.199934
    24  H    0.164540
    25  H    0.187057
    26  H    0.150335
    27  H    0.248920
 Sum of Mulliken charges =  -0.00000
 Mulliken charges with hydrogens summed into heavy atoms:
               1
     1  O   -0.467261
     2  N    0.491442
     3  O   -0.504068
     4  C    0.000381
     5  C    0.484215
     6  N   -0.375381
     7  C    0.240245
     9  C    0.050175
    10  C   -0.003944
    11  C    0.042985
    12  C    0.030742
    13  C    0.152825
    15  N   -0.511224
    16  C    0.368868
 Electronic spatial extent (au):  <R**2>=           3005.3349
 Charge=             -0.0000 electrons
 Dipole moment (field-independent basis, Debye):
    X=              5.4151    Y=              4.7956    Z=              1.2841  Tot=              7.3464
 Quadrupole moment (field-independent basis, Debye-Ang):
   XX=           -106.1353   YY=            -79.2249   ZZ=            -81.5002
   XY=             -1.7632   XZ=             -0.1385   YZ=              1.8573
 Traceless Quadrupole moment (field-independent basis, Debye-Ang):
   XX=            -17.1818   YY=              9.7286   ZZ=              7.4532
   XY=             -1.7632   XZ=             -0.1385   YZ=              1.8573
 Octapole moment (field-independent basis, Debye-Ang**2):
  XXX=             92.3751  YYY=             36.2590  ZZZ=             -1.4497  XYY=             -4.5794
  XXY=              9.5199  XXZ=              4.9674  XZZ=             -9.7569  YZZ=             -0.3859
  YYZ=              8.0261  XYZ=              0.2584
 Hexadecapole moment (field-independent basis, Debye-Ang**3):
 XXXX=          -3381.9682 YYYY=           -601.0584 ZZZZ=           -303.8126 XXXY=            -20.8016
 XXXZ=            -13.8167 YYYX=             -8.8845 YYYZ=             25.0024 ZZZX=              1.6738
 ZZZY=              7.0602 XXYY=           -627.7420 XXZZ=           -523.8144 YYZZ=           -157.3071
 XXYZ=             -4.3160 YYXZ=              1.6089 ZZXY=              4.7070
 N-N= 9.312436557091D+02 E-N=-3.409204814010D+03  KE= 6.596301729580D+02
 Unable to Open any file for archive entry.
 1\1\GINC-LOTUS\FOpt\RMP2-FC\6-31G(d)\C9H13N3O2\ALEXEY\01-Jul-2023\0\\#
 MP2/6-31G* SCF=Tight Opt=(ModRedun, MaxCycle=20 ) NoSymm\\MolName:\\0,
 1\O,-3.5068094614,-1.3900138521,-0.3721468206\N,-3.1211588102,-0.23211
 27225,-0.1191659031\O,-3.8953509157,0.7288278807,0.054966333\C,-1.6866
 432031,-0.0237191752,-0.0099275706\C,-1.3014075855,1.2607980904,0.2750
 972454\N,-0.0572245208,1.750101638,0.3866259232\C,1.2056227046,1.02385
 55237,0.3595244122\H,1.853315539,1.5528268431,1.0748998099\C,1.9091609
 274,1.0351785406,-0.9963070787\C,3.3075229666,0.4284811232,-0.83220515
 09\C,3.2595234822,-0.9677337356,-0.2058276665\C,2.4644247086,-0.978565
 9308,1.101587517\C,1.0547178164,-0.4248690324,0.8651206818\H,0.4781655
 052,-0.4036525973,1.8035251203\N,0.4082391755,-1.3178352991,-0.0912847
 259\C,-0.8390257577,-1.137914313,-0.3867312572\H,-2.0961897971,1.98767
 24956,0.4186378438\H,0.0019135464,2.7350455742,0.6166542907\H,1.315020
 0763,0.4578684034,-1.7126411861\H,1.9751912249,2.0631890988,-1.3737710
 86\H,3.8115228912,0.3905510104,-1.8047013923\H,3.9072596763,1.09467721
 79,-0.1958081078\H,2.781934798,-1.6644239661,-0.9017973696\H,4.2786870
 787,-1.331204573,-0.0286778304\H,2.3790608605,-2.0005101614,1.48535311
 13\H,2.9742566556,-0.380728612,1.869695816\H,-1.3007295818,-1.89280946
 95,-1.0226649589\\Version=ES64L-G16RevC.02\HF=-661.3004032\MP2=-663.33
 46493\RMSD=9.223e-09\RMSF=4.658e-05\Dipole=1.9790345,1.6917561,0.47230
 75\PG=C01 [X(C9H13N3O2)]\\@
 The archive entry for this job was punched.


 WE HAVE SEEN THAT MAN ON THE AVERAGE DOES NOT LIVE ABOVE
 TWO-AND-TWENTY YEARS.  DURING THESE TWO AND TWENTY
 YEARS HE IS LIABLE TO TWO AND TWENTY THOUSAND EVILS,
 MANY OF WHICH ARE INCURABLE.  YET EVEN IN THIS DREADFUL STATE
 MEN STILL STRUT AND POSE ON THE STAGE OF LIFE.
 THEY MAKE LOVE AT THE RISK OF DESTRUCTION,
 INTRIGUE, CARRY ON WAR, AND FORM PROJECTS, JUST AS IF THEY
 WERE TO LIVE IN LUXURY AND HAPPINESS FOR A THOUSAND
 AGES.

                                              -- VOLTAIRE
 Job cpu time:       0 days  1 hours  3 minutes  5.9 seconds.
 Elapsed time:       0 days  0 hours 19 minutes  5.7 seconds.
 File lengths (MBytes):  RWF=     36 Int=      0 D2E=      0 Chk=      7 Scr=      1
 Normal termination of Gaussian 16 at Sat Jul  1 12:14:20 2023.
