 Entering Gaussian System, Link 0=g16
 Initial command:
 /home/alexey/programs//g16/l1.exe "/home/alexey/tmp/Gau-1322323.inp" -scrdir="/home/alexey/tmp/"
 Entering Link 1 = /home/alexey/programs//g16/l1.exe PID=   1322325.
  
 Copyright (c) 1988-2021, Gaussian, Inc.  All Rights Reserved.
  
 This is part of the Gaussian(R) 16 program.  It is based on
 the Gaussian(R) 09 system (copyright 2009, Gaussian, Inc.),
 the Gaussian(R) 03 system (copyright 2003, Gaussian, Inc.),
 the Gaussian(R) 98 system (copyright 1998, Gaussian, Inc.),
 the Gaussian(R) 94 system (copyright 1995, Gaussian, Inc.),
 the Gaussian 92(TM) system (copyright 1992, Gaussian, Inc.),
 the Gaussian 90(TM) system (copyright 1990, Gaussian, Inc.),
 the Gaussian 88(TM) system (copyright 1988, Gaussian, Inc.),
 the Gaussian 86(TM) system (copyright 1986, Carnegie Mellon
 University), and the Gaussian 82(TM) system (copyright 1983,
 Carnegie Mellon University). Gaussian is a federally registered
 trademark of Gaussian, Inc.
  
 This software contains proprietary and confidential information,
 including trade secrets, belonging to Gaussian, Inc.
  
 This software is provided under written license and may be
 used, copied, transmitted, or stored only in accord with that
 written license.
  
 The following legend is applicable only to US Government
 contracts under FAR:
  
                    RESTRICTED RIGHTS LEGEND
  
 Use, reproduction and disclosure by the US Government is
 subject to restrictions as set forth in subparagraphs (a)
 and (c) of the Commercial Computer Software - Restricted
 Rights clause in FAR 52.227-19.
  
 Gaussian, Inc.
 340 Quinnipiac St., Bldg. 40, Wallingford CT 06492
  
  
 ---------------------------------------------------------------
 Warning -- This program may not be used in any manner that
 competes with the business of Gaussian, Inc. or will provide
 assistance to any competitor of Gaussian, Inc.  The licensee
 of this program is prohibited from giving any competitor of
 Gaussian, Inc. access to this program.  By using this program,
 the user acknowledges that Gaussian, Inc. is engaged in the
 business of creating and licensing software in the field of
 computational chemistry and represents and warrants to the
 licensee that it is not a competitor of Gaussian, Inc. and that
 it will not use this program in any manner prohibited above.
 ---------------------------------------------------------------
  

 Cite this work as:
 Gaussian 16, Revision C.02,
 M. J. Frisch, G. W. Trucks, H. B. Schlegel, G. E. Scuseria, 
 M. A. Robb, J. R. Cheeseman, G. Scalmani, V. Barone, 
 G. A. Petersson, H. Nakatsuji, X. Li, M. Caricato, A. V. Marenich, 
 J. Bloino, B. G. Janesko, R. Gomperts, B. Mennucci, H. P. Hratchian, 
 J. V. Ortiz, A. F. Izmaylov, J. L. Sonnenberg, D. Williams-Young, 
 F. Ding, F. Lipparini, F. Egidi, J. Goings, B. Peng, A. Petrone, 
 T. Henderson, D. Ranasinghe, V. G. Zakrzewski, J. Gao, N. Rega, 
 G. Zheng, W. Liang, M. Hada, M. Ehara, K. Toyota, R. Fukuda, 
 J. Hasegawa, M. Ishida, T. Nakajima, Y. Honda, O. Kitao, H. Nakai, 
 T. Vreven, K. Throssell, J. A. Montgomery, Jr., J. E. Peralta, 
 F. Ogliaro, M. J. Bearpark, J. J. Heyd, E. N. Brothers, K. N. Kudin, 
 V. N. Staroverov, T. A. Keith, R. Kobayashi, J. Normand, 
 K. Raghavachari, A. P. Rendell, J. C. Burant, S. S. Iyengar, 
 J. Tomasi, M. Cossi, J. M. Millam, M. Klene, C. Adamo, R. Cammi, 
 J. W. Ochterski, R. L. Martin, K. Morokuma, O. Farkas, 
 J. B. Foresman, and D. J. Fox, Gaussian, Inc., Wallingford CT, 2019.
 
 ******************************************
 Gaussian 16:  ES64L-G16RevC.02  7-Dec-2021
                 1-Jul-2023 
 ******************************************
 %mem=8GB
 %NPROCS=4
 Will use up to    4 processors via shared memory.
 %NoSave
 ---------------------------------------------------------
 #MP2/6-31G* SCF=Tight Opt=(ModRedun, MaxCycle=20 ) NoSymm
 ---------------------------------------------------------
 1/6=20,18=120,19=15,38=1/1,3;
 2/9=110,12=2,15=1,17=6,18=5,40=1/2;
 3/5=1,6=6,7=1,11=9,25=1,30=1,71=1/1,2,3;
 4//1;
 5/5=2,32=2,38=5/2;
 8/6=4,10=2/1;
 9/15=2,16=-3/6;
 10/5=1,31=1/2;
 6/7=2,8=2,9=2,10=2/1;
 7/12=2,30=1/1,2,3,16;
 1/6=20,18=20,19=15/3(2);
 2/9=110,15=1/2;
 99//99;
 2/9=110,15=1/2;
 3/5=1,6=6,7=1,11=9,25=1,30=1,71=1/1,2,3;
 4/5=5,16=3,69=1/1;
 5/5=2,32=2,38=5/2;
 8/6=4,10=2/1;
 9/15=2,16=-3/6;
 10/5=1,31=1/2;
 7/12=2,30=1/1,2,3,16;
 1/6=20,18=20,19=15/3(-8);
 2/9=110,15=1/2;
 6/7=2,8=2,9=2,10=2/1;
 99/9=10/99;
 --------
 MolName:
 --------
 Symbolic Z-matrix:
 Charge =  0 Multiplicity = 1
 8                    0    -3.64951  -1.44867  -0.18983 
 7                    0    -3.25064  -0.29671  -0.03018 
 8                    0    -4.01995   0.6527    0.1249 
 6                    0    -1.75608   0.0093   -0.04171 
 6                    0    -1.36809   1.31691   0.27486 
 7                    0    -0.07971   1.77071   0.3909 
 6                    0     1.19868   0.99683   0.36189 
 1                    0     1.86207   1.49257   1.11742 
 6                    0     1.96499   1.0496   -0.98338 
 6                    0     3.3759    0.46073  -0.79329 
 6                    0     3.31109  -0.95634  -0.20189 
 6                    0     2.46101  -0.99134   1.08652 
 6                    0     1.02519  -0.45287   0.8391 
 1                    0     0.47526  -0.49288   1.80856 
 7                    0     0.36908  -1.3196   -0.14278 
 6                    0    -0.87174  -1.1147   -0.44151 
 1                    0    -2.1556    2.05575   0.49769 
 1                    0     0.15308   2.75296   0.22571 
 1                    0     1.41574   0.47537  -1.75956 
 1                    0     2.05333   2.10019  -1.33284 
 1                    0     3.91188   0.43796  -1.76734 
 1                    0     3.95302   1.1123   -0.09972 
 1                    0     2.86385  -1.64344  -0.9553 
 1                    0     4.33822  -1.32216   0.0158 
 1                    0     2.40054  -2.03832   1.45652 
 1                    0     2.95504  -0.3826    1.87256 
 1                    0    -1.37464  -1.86225  -1.07408 
 
 The following ModRedundant input section has been read:
 A       1       2       4 F                                                   
 D       1       2       4      16 F                                           
 D       7      13      15      16 F                                           
 D       7       9      10      11 F                                           
 D       9      10      11      12 F                                           
 D       6       7      13      15 F                                           
 

 GradGradGradGradGradGradGradGradGradGradGradGradGradGradGradGradGradGrad
 Berny optimization.
 Initialization pass.
                           ----------------------------
                           !    Initial Parameters    !
                           ! (Angstroms and Degrees)  !
 --------------------------                            --------------------------
 ! Name  Definition              Value          Derivative Info.                !
 --------------------------------------------------------------------------------
 ! R1    R(1,2)                  1.2295         estimate D2E/DX2                !
 ! R2    R(2,3)                  1.2318         estimate D2E/DX2                !
 ! R3    R(2,4)                  1.5256         estimate D2E/DX2                !
 ! R4    R(4,5)                  1.4002         estimate D2E/DX2                !
 ! R5    R(4,16)                 1.485          estimate D2E/DX2                !
 ! R6    R(5,6)                  1.3709         estimate D2E/DX2                !
 ! R7    R(5,17)                 1.1026         estimate D2E/DX2                !
 ! R8    R(6,7)                  1.4947         estimate D2E/DX2                !
 ! R9    R(6,18)                 1.0229         estimate D2E/DX2                !
 ! R10   R(7,8)                  1.121          estimate D2E/DX2                !
 ! R11   R(7,9)                  1.5491         estimate D2E/DX2                !
 ! R12   R(7,13)                 1.5361         estimate D2E/DX2                !
 ! R13   R(9,10)                 1.5406         estimate D2E/DX2                !
 ! R14   R(9,19)                 1.1108         estimate D2E/DX2                !
 ! R15   R(9,20)                 1.1107         estimate D2E/DX2                !
 ! R16   R(10,11)                1.5369         estimate D2E/DX2                !
 ! R17   R(10,21)                1.112          estimate D2E/DX2                !
 ! R18   R(10,22)                1.1129         estimate D2E/DX2                !
 ! R19   R(11,12)                1.544          estimate D2E/DX2                !
 ! R20   R(11,23)                1.1134         estimate D2E/DX2                !
 ! R21   R(11,24)                1.1118         estimate D2E/DX2                !
 ! R22   R(12,13)                1.5533         estimate D2E/DX2                !
 ! R23   R(12,25)                1.1121         estimate D2E/DX2                !
 ! R24   R(12,26)                1.1102         estimate D2E/DX2                !
 ! R25   R(13,14)                1.1153         estimate D2E/DX2                !
 ! R26   R(13,15)                1.4649         estimate D2E/DX2                !
 ! R27   R(15,16)                1.2926         estimate D2E/DX2                !
 ! R28   R(16,27)                1.1009         estimate D2E/DX2                !
 ! A1    A(1,2,3)              122.4051         estimate D2E/DX2                !
 ! A2    A(1,2,4)              120.3165         Frozen                          !
 ! A3    A(3,2,4)              117.2706         estimate D2E/DX2                !
 ! A4    A(2,4,5)              117.1977         estimate D2E/DX2                !
 ! A5    A(2,4,16)             115.6965         estimate D2E/DX2                !
 ! A6    A(5,4,16)             127.063          estimate D2E/DX2                !
 ! A7    A(4,5,6)              126.0641         estimate D2E/DX2                !
 ! A8    A(4,5,17)             118.2655         estimate D2E/DX2                !
 ! A9    A(6,5,17)             115.6152         estimate D2E/DX2                !
 ! A10   A(5,6,7)              129.1086         estimate D2E/DX2                !
 ! A11   A(5,6,18)             121.2044         estimate D2E/DX2                !
 ! A12   A(7,6,18)             107.4221         estimate D2E/DX2                !
 ! A13   A(6,7,8)              105.3135         estimate D2E/DX2                !
 ! A14   A(6,7,9)              114.9808         estimate D2E/DX2                !
 ! A15   A(6,7,13)             112.7073         estimate D2E/DX2                !
 ! A16   A(8,7,9)              106.11           estimate D2E/DX2                !
 ! A17   A(8,7,13)             105.9512         estimate D2E/DX2                !
 ! A18   A(9,7,13)             110.9659         estimate D2E/DX2                !
 ! A19   A(7,9,10)             109.442          estimate D2E/DX2                !
 ! A20   A(7,9,19)             110.1574         estimate D2E/DX2                !
 ! A21   A(7,9,20)             110.1691         estimate D2E/DX2                !
 ! A22   A(10,9,19)            109.9654         estimate D2E/DX2                !
 ! A23   A(10,9,20)            109.1183         estimate D2E/DX2                !
 ! A24   A(19,9,20)            107.9659         estimate D2E/DX2                !
 ! A25   A(9,10,11)            111.1791         estimate D2E/DX2                !
 ! A26   A(9,10,21)            109.9473         estimate D2E/DX2                !
 ! A27   A(9,10,22)            109.1478         estimate D2E/DX2                !
 ! A28   A(11,10,21)           109.786          estimate D2E/DX2                !
 ! A29   A(11,10,22)           108.7758         estimate D2E/DX2                !
 ! A30   A(21,10,22)           107.9339         estimate D2E/DX2                !
 ! A31   A(10,11,12)           111.4216         estimate D2E/DX2                !
 ! A32   A(10,11,23)           108.9986         estimate D2E/DX2                !
 ! A33   A(10,11,24)           109.8618         estimate D2E/DX2                !
 ! A34   A(12,11,23)           109.2388         estimate D2E/DX2                !
 ! A35   A(12,11,24)           109.742          estimate D2E/DX2                !
 ! A36   A(23,11,24)           107.4884         estimate D2E/DX2                !
 ! A37   A(11,12,13)           111.602          estimate D2E/DX2                !
 ! A38   A(11,12,25)           109.2031         estimate D2E/DX2                !
 ! A39   A(11,12,26)           109.4751         estimate D2E/DX2                !
 ! A40   A(13,12,25)           109.2142         estimate D2E/DX2                !
 ! A41   A(13,12,26)           109.5142         estimate D2E/DX2                !
 ! A42   A(25,12,26)           107.7496         estimate D2E/DX2                !
 ! A43   A(7,13,12)            105.7986         estimate D2E/DX2                !
 ! A44   A(7,13,14)            111.0756         estimate D2E/DX2                !
 ! A45   A(7,13,15)            113.6262         estimate D2E/DX2                !
 ! A46   A(12,13,14)           107.7517         estimate D2E/DX2                !
 ! A47   A(12,13,15)           108.4019         estimate D2E/DX2                !
 ! A48   A(14,13,15)           109.9116         estimate D2E/DX2                !
 ! A49   A(13,15,16)           119.411          estimate D2E/DX2                !
 ! A50   A(4,16,15)            129.0064         estimate D2E/DX2                !
 ! A51   A(4,16,27)            113.3679         estimate D2E/DX2                !
 ! A52   A(15,16,27)           117.6245         estimate D2E/DX2                !
 ! D1    D(1,2,4,5)           -173.9516         estimate D2E/DX2                !
 ! D2    D(1,2,4,16)             8.2581         Frozen                          !
 ! D3    D(3,2,4,5)              7.0386         estimate D2E/DX2                !
 ! D4    D(3,2,4,16)          -170.7517         estimate D2E/DX2                !
 ! D5    D(2,4,5,6)            176.1739         estimate D2E/DX2                !
 ! D6    D(2,4,5,17)            -0.9942         estimate D2E/DX2                !
 ! D7    D(16,4,5,6)            -6.3215         estimate D2E/DX2                !
 ! D8    D(16,4,5,17)          176.5103         estimate D2E/DX2                !
 ! D9    D(2,4,16,15)         -154.868          estimate D2E/DX2                !
 ! D10   D(2,4,16,27)           24.7223         estimate D2E/DX2                !
 ! D11   D(5,4,16,15)           27.5951         estimate D2E/DX2                !
 ! D12   D(5,4,16,27)         -152.8145         estimate D2E/DX2                !
 ! D13   D(4,5,6,7)             -7.2371         estimate D2E/DX2                !
 ! D14   D(4,5,6,18)           153.4173         estimate D2E/DX2                !
 ! D15   D(17,5,6,7)           169.9969         estimate D2E/DX2                !
 ! D16   D(17,5,6,18)          -29.3487         estimate D2E/DX2                !
 ! D17   D(5,6,7,8)           -142.4071         estimate D2E/DX2                !
 ! D18   D(5,6,7,9)            101.172          estimate D2E/DX2                !
 ! D19   D(5,6,7,13)           -27.3539         estimate D2E/DX2                !
 ! D20   D(18,6,7,8)            54.8682         estimate D2E/DX2                !
 ! D21   D(18,6,7,9)           -61.5528         estimate D2E/DX2                !
 ! D22   D(18,6,7,13)          169.9213         estimate D2E/DX2                !
 ! D23   D(6,7,9,10)           168.7099         estimate D2E/DX2                !
 ! D24   D(6,7,9,19)           -70.2726         estimate D2E/DX2                !
 ! D25   D(6,7,9,20)            48.7318         estimate D2E/DX2                !
 ! D26   D(8,7,9,10)            52.7445         estimate D2E/DX2                !
 ! D27   D(8,7,9,19)           173.7619         estimate D2E/DX2                !
 ! D28   D(8,7,9,20)           -67.2337         estimate D2E/DX2                !
 ! D29   D(13,7,9,10)          -61.9011         estimate D2E/DX2                !
 ! D30   D(13,7,9,19)           59.1163         estimate D2E/DX2                !
 ! D31   D(13,7,9,20)          178.1207         estimate D2E/DX2                !
 ! D32   D(6,7,13,12)         -166.1715         estimate D2E/DX2                !
 ! D33   D(6,7,13,14)          -49.5164         estimate D2E/DX2                !
 ! D34   D(6,7,13,15)           75.0217         Frozen                          !
 ! D35   D(8,7,13,12)          -51.5034         estimate D2E/DX2                !
 ! D36   D(8,7,13,14)           65.1517         estimate D2E/DX2                !
 ! D37   D(8,7,13,15)         -170.3102         estimate D2E/DX2                !
 ! D38   D(9,7,13,12)           63.2414         estimate D2E/DX2                !
 ! D39   D(9,7,13,14)          179.8965         estimate D2E/DX2                !
 ! D40   D(9,7,13,15)          -55.5654         estimate D2E/DX2                !
 ! D41   D(7,9,10,11)           54.8127         Frozen                          !
 ! D42   D(7,9,10,21)          176.6033         estimate D2E/DX2                !
 ! D43   D(7,9,10,22)          -65.1825         estimate D2E/DX2                !
 ! D44   D(19,9,10,11)         -66.3211         estimate D2E/DX2                !
 ! D45   D(19,9,10,21)          55.4695         estimate D2E/DX2                !
 ! D46   D(19,9,10,22)         173.6837         estimate D2E/DX2                !
 ! D47   D(20,9,10,11)         175.4327         estimate D2E/DX2                !
 ! D48   D(20,9,10,21)         -62.7767         estimate D2E/DX2                !
 ! D49   D(20,9,10,22)          55.4376         estimate D2E/DX2                !
 ! D50   D(9,10,11,12)         -52.8227         Frozen                          !
 ! D51   D(9,10,11,23)          67.8031         estimate D2E/DX2                !
 ! D52   D(9,10,11,24)        -174.6611         estimate D2E/DX2                !
 ! D53   D(21,10,11,12)       -174.7072         estimate D2E/DX2                !
 ! D54   D(21,10,11,23)        -54.0814         estimate D2E/DX2                !
 ! D55   D(21,10,11,24)         63.4544         estimate D2E/DX2                !
 ! D56   D(22,10,11,12)         67.3929         estimate D2E/DX2                !
 ! D57   D(22,10,11,23)       -171.9813         estimate D2E/DX2                !
 ! D58   D(22,10,11,24)        -54.4456         estimate D2E/DX2                !
 ! D59   D(10,11,12,13)         56.604          estimate D2E/DX2                !
 ! D60   D(10,11,12,25)        177.4501         estimate D2E/DX2                !
 ! D61   D(10,11,12,26)        -64.8023         estimate D2E/DX2                !
 ! D62   D(23,11,12,13)        -63.8808         estimate D2E/DX2                !
 ! D63   D(23,11,12,25)         56.9653         estimate D2E/DX2                !
 ! D64   D(23,11,12,26)        174.7129         estimate D2E/DX2                !
 ! D65   D(24,11,12,13)        178.5118         estimate D2E/DX2                !
 ! D66   D(24,11,12,25)        -60.6421         estimate D2E/DX2                !
 ! D67   D(24,11,12,26)         57.1055         estimate D2E/DX2                !
 ! D68   D(11,12,13,7)         -60.3145         estimate D2E/DX2                !
 ! D69   D(11,12,13,14)       -179.1947         estimate D2E/DX2                !
 ! D70   D(11,12,13,15)         61.8994         estimate D2E/DX2                !
 ! D71   D(25,12,13,7)         178.846          estimate D2E/DX2                !
 ! D72   D(25,12,13,14)         59.9658         estimate D2E/DX2                !
 ! D73   D(25,12,13,15)        -58.9402         estimate D2E/DX2                !
 ! D74   D(26,12,13,7)          61.0692         estimate D2E/DX2                !
 ! D75   D(26,12,13,14)        -57.811          estimate D2E/DX2                !
 ! D76   D(26,12,13,15)       -176.717          estimate D2E/DX2                !
 ! D77   D(7,13,15,16)         -67.1602         Frozen                          !
 ! D78   D(12,13,15,16)        175.536          estimate D2E/DX2                !
 ! D79   D(14,13,15,16)         58.0027         estimate D2E/DX2                !
 ! D80   D(13,15,16,4)           7.8054         estimate D2E/DX2                !
 ! D81   D(13,15,16,27)       -171.7702         estimate D2E/DX2                !
 --------------------------------------------------------------------------------
 Trust Radius=3.00D-01 FncErr=1.00D-07 GrdErr=1.00D-07 EigMax=2.50D+02 EigMin=1.00D-04
 Number of steps in this run=     20 maximum allowed number of steps=    162.
 GradGradGradGradGradGradGradGradGradGradGradGradGradGradGradGradGradGrad

                          Input orientation:                          
 ---------------------------------------------------------------------
 Center     Atomic      Atomic             Coordinates (Angstroms)
 Number     Number       Type             X           Y           Z
 ---------------------------------------------------------------------
      1          8           0       -3.649510   -1.448670   -0.189830
      2          7           0       -3.250640   -0.296710   -0.030180
      3          8           0       -4.019950    0.652700    0.124900
      4          6           0       -1.756080    0.009300   -0.041710
      5          6           0       -1.368090    1.316910    0.274860
      6          7           0       -0.079710    1.770710    0.390900
      7          6           0        1.198680    0.996830    0.361890
      8          1           0        1.862070    1.492570    1.117420
      9          6           0        1.964990    1.049600   -0.983380
     10          6           0        3.375900    0.460730   -0.793290
     11          6           0        3.311090   -0.956340   -0.201890
     12          6           0        2.461010   -0.991340    1.086520
     13          6           0        1.025190   -0.452870    0.839100
     14          1           0        0.475260   -0.492880    1.808560
     15          7           0        0.369080   -1.319600   -0.142780
     16          6           0       -0.871740   -1.114700   -0.441510
     17          1           0       -2.155600    2.055750    0.497690
     18          1           0        0.153080    2.752960    0.225710
     19          1           0        1.415740    0.475370   -1.759560
     20          1           0        2.053330    2.100190   -1.332840
     21          1           0        3.911880    0.437960   -1.767340
     22          1           0        3.953020    1.112300   -0.099720
     23          1           0        2.863850   -1.643440   -0.955300
     24          1           0        4.338220   -1.322160    0.015800
     25          1           0        2.400540   -2.038320    1.456520
     26          1           0        2.955040   -0.382600    1.872560
     27          1           0       -1.374640   -1.862250   -1.074080
 ---------------------------------------------------------------------
                    Distance matrix (angstroms):
                    1          2          3          4          5
     1  O    0.000000
     2  N    1.229470   0.000000
     3  O    2.156858   1.231774   0.000000
     4  C    2.394304   1.525610   2.359413   0.000000
     5  C    3.615141   2.498162   2.737887   1.400213   0.000000
     6  N    4.842017   3.808718   4.104411   2.469804   1.370884
     7  C    5.458004   4.650098   5.235331   3.141451   2.588114
     8  H    6.382579   5.536995   6.024005   4.078564   3.342858
     9  C    6.196264   5.470278   6.099616   3.976849   3.572680
    10  C    7.305228   6.713202   7.455100   5.206331   4.937553
    11  C    6.978000   6.597037   7.512653   5.160846   5.223953
    12  C    6.259127   5.861098   6.755029   4.478619   4.544097
    13  C    4.889083   4.366092   5.214001   2.953793   3.029567
    14  H    4.681968   4.159541   4.934975   2.941864   3.004249
    15  N    4.020937   3.763158   4.819253   2.508485   3.184865
    16  C    2.809072   2.549013   3.654552   1.485016   2.583075
    17  H    3.871099   2.647986   2.362906   2.153724   1.102592
    18  H    5.682082   4.577256   4.672840   3.353219   2.092514
    19  H    5.641165   5.036066   5.755811   3.637124   3.549192
    20  H    6.813462   5.964407   6.411315   4.533260   3.860614
    21  H    7.951260   7.406697   8.157243   5.940313   5.728980
    22  H    8.022789   7.340495   7.989364   5.814963   5.338201
    23  H    6.561078   6.329022   7.336606   4.990987   5.309075
    24  H    7.991378   7.657967   8.589003   6.238316   6.292359
    25  H    6.297719   6.097485   7.087841   4.869798   5.182322
    26  H    7.000717   6.491399   7.264754   5.100261   4.912274
    27  H    2.475476   2.657070   3.841899   2.171171   3.453511
                    6          7          8          9         10
     6  N    0.000000
     7  C    1.494661   0.000000
     8  H    2.091818   1.121013   0.000000
     9  C    2.566991   1.549118   2.149459   0.000000
    10  C    3.880669   2.522326   2.647109   1.540639   0.000000
    11  C    4.391552   2.931723   3.136463   2.538997   1.536894
    12  C    3.816814   2.464018   2.555287   2.948891   2.545431
    13  C    2.523092   1.536053   2.136017   2.542061   3.004197
    14  H    2.727928   2.198960   2.518517   3.520436   4.011572
    15  N    3.168003   2.511728   3.424241   2.977691   3.554392
    16  C    3.105770   3.064417   4.086788   3.608996   4.544026
    17  H    2.098088   3.520078   4.104011   4.492791   5.899848
    18  H    1.022885   2.048369   2.303123   2.765204   4.084024
    19  H    2.922115   2.195355   3.083978   1.110797   2.185433
    20  H    2.762190   2.195436   2.531710   1.110705   2.174427
    21  H    4.729378   3.493910   3.692663   2.186110   1.112010
    22  H    4.115474   2.795140   2.449103   2.176476   1.112947
    23  H    4.704596   3.388039   3.890281   2.839226   2.171629
    24  H    5.405983   3.918444   3.907376   3.500832   2.181601
    25  H    4.668607   3.443083   3.587774   3.959554   3.501175
    26  H    4.005218   2.696248   2.298061   3.344815   2.827558
    27  H    4.125701   4.105889   5.151095   4.431729   5.295537
                   11         12         13         14         15
    11  C    0.000000
    12  C    1.543976   0.000000
    13  C    2.561734   1.553302   0.000000
    14  H    3.506941   2.170946   1.115292   0.000000
    15  N    2.964941   2.448490   1.464851   2.121902   0.000000
    16  C    4.192680   3.668421   2.382504   2.695159   1.292617
    17  H    6.280669   5.562784   4.065361   3.890414   4.263473
    18  H    4.890274   4.481888   3.378486   3.625561   4.094898
    19  H    2.840507   3.368085   2.786968   3.814904   2.632754
    20  H    3.493334   3.946779   3.506068   4.368376   3.993483
    21  H    2.180746   3.506057   3.989998   5.046175   4.275470
    22  H    2.168360   2.838760   3.450120   4.279363   4.331353
    23  H    1.113444   2.180950   2.831607   3.829892   2.643660
    24  H    1.111849   2.186276   3.522734   4.338681   3.972307
    25  H    2.179474   1.112081   2.187795   2.493796   2.683496
    26  H    2.181580   1.110175   2.190274   2.483056   3.409803
    27  H    4.851541   4.487637   3.377246   3.688756   2.049963
                   16         17         18         19         20
    16  C    0.000000
    17  H    3.547132   0.000000
    18  H    4.056382   2.426948   0.000000
    19  H    3.081906   4.510792   3.274603   0.000000
    20  H    4.436893   4.589979   2.542860   1.796845   0.000000
    21  H    5.201115   6.675471   4.843558   2.496432   2.531009
    22  H    5.324909   6.209850   4.151772   3.098151   2.470897
    23  H    3.807647   6.402348   5.298244   2.689463   3.848928
    24  H    5.234105   7.335679   5.845174   3.863147   4.330362
    25  H    3.894022   6.199934   5.433446   4.199005   5.002834
    26  H    4.531571   5.827046   4.516064   4.037060   4.153543
    27  H    1.100856   4.293144   5.032251   3.704129   5.245843
                   21         22         23         24         25
    21  H    0.000000
    22  H    1.799273   0.000000
    23  H    2.467793   3.084220   0.000000
    24  H    2.541530   2.467452   1.794442   0.000000
    25  H    4.336979   3.841677   2.487461   2.518564   0.000000
    26  H    3.851978   2.668441   3.097552   2.498703   1.794984
    27  H    5.806795   6.179101   4.245796   5.840916   4.548288
                   26         27
    26  H    0.000000
    27  H    5.442259   0.000000
 Symmetry turned off by external request.
 Stoichiometry    C9H13N3O2
 Framework group  C1[X(C9H13N3O2)]
 Deg. of freedom    75
 Full point group                 C1      NOp   1
 Rotational constants (GHZ):           1.6746090           0.3998781           0.3549001
 Standard basis: 6-31G(d) (6D, 7F)
   236 basis functions,   444 primitive gaussians,   236 cartesian basis functions
    52 alpha electrons       52 beta electrons
       nuclear repulsion energy       917.3880927954 Hartrees.
 NAtoms=   27 NActive=   27 NUniq=   27 SFac= 1.00D+00 NAtFMM=   60 NAOKFM=F Big=F
 Integral buffers will be    131072 words long.
 Raffenetti 1 integral format.
 Two-electron integral symmetry is turned off.
 One-electron integrals computed using PRISM.
 NBasis=   236 RedAO= T EigKep=  1.27D-03  NBF=   236
 NBsUse=   236 1.00D-06 EigRej= -1.00D+00 NBFU=   236
 ExpMin= 1.61D-01 ExpMax= 5.48D+03 ExpMxC= 8.25D+02 IAcc=3 IRadAn=         5 AccDes= 0.00D+00
 Harris functional with IExCor=  205 and IRadAn=       5 diagonalized for initial guess.
 HarFok:  IExCor=  205 AccDes= 0.00D+00 IRadAn=         5 IDoV= 1 UseB2=F ITyADJ=14
 ICtDFT=  3500011 ScaDFX=  1.000000  1.000000  1.000000  1.000000
 FoFCou: FMM=F IPFlag=           0 FMFlag=      100000 FMFlg1=           0
         NFxFlg=           0 DoJE=T BraDBF=F KetDBF=T FulRan=T
         wScrn=  0.000000 ICntrl=       500 IOpCl=  0 I1Cent=   200000004 NGrid=           0
         NMat0=    1 NMatS0=      1 NMatT0=    0 NMatD0=    1 NMtDS0=    0 NMtDT0=    0
 Symmetry not used in FoFCou.
 Keep R1 ints in memory in canonical form, NReq=397720213.
 Requested convergence on RMS density matrix=1.00D-08 within 128 cycles.
 Requested convergence on MAX density matrix=1.00D-06.
 Requested convergence on             energy=1.00D-06.
 No special actions if energy rises.
 SCF Done:  E(RHF) =  -661.280420444     A.U. after   16 cycles
            NFock= 16  Conv=0.84D-08     -V/T= 2.0037
 ExpMin= 1.61D-01 ExpMax= 5.48D+03 ExpMxC= 8.25D+02 IAcc=3 IRadAn=         5 AccDes= 0.00D+00
 HarFok:  IExCor=  205 AccDes= 0.00D+00 IRadAn=         5 IDoV=-2 UseB2=F ITyADJ=14
 ICtDFT= 12500011 ScaDFX=  1.000000  1.000000  1.000000  1.000000
 Range of M.O.s used for correlation:    15   236
 NBasis=   236 NAE=    52 NBE=    52 NFC=    14 NFV=     0
 NROrb=    222 NOA=    38 NOB=    38 NVA=   184 NVB=   184
 Fully direct method using O(ONN) memory.
 JobTyp=1 Pass  1:  I=  15 to  52 NPSUse=  4 ParTrn=T ParDer=T DoDerP=T.
 Spin components of T(2) and E(2):
     alpha-alpha T2 =       0.9193639810D-01 E2=     -0.2717156116D+00
     alpha-beta  T2 =       0.4995679812D+00 E2=     -0.1493580746D+01
     beta-beta   T2 =       0.9193639810D-01 E2=     -0.2717156116D+00
 ANorm=    0.1297474769D+01
 E2 =    -0.2037011970D+01 EUMP2 =    -0.66331743241366D+03
          IDoAtm=111111111111111111111111111
          Differentiating once with respect to electric field.
                with respect to dipole field.
          Differentiating once with respect to nuclear coordinates.
 Keep R1 ints in memory in canonical form, NReq=397723379.
          There are     1 degrees of freedom in the 1st order CPHF.  IDoFFX=0 NUNeed=     1.
 LinEq1:  Iter=  0 NonCon=     1 RMS=4.60D-03 Max=1.04D-01 NDo=     1
 AX will form     1 AO Fock derivatives at one time.
 LinEq1:  Iter=  1 NonCon=     1 RMS=1.56D-03 Max=2.89D-02 NDo=     1
 LinEq1:  Iter=  2 NonCon=     1 RMS=6.41D-04 Max=1.69D-02 NDo=     1
 LinEq1:  Iter=  3 NonCon=     1 RMS=2.96D-04 Max=9.32D-03 NDo=     1
 LinEq1:  Iter=  4 NonCon=     1 RMS=9.10D-05 Max=2.17D-03 NDo=     1
 LinEq1:  Iter=  5 NonCon=     1 RMS=3.78D-05 Max=1.87D-03 NDo=     1
 LinEq1:  Iter=  6 NonCon=     1 RMS=1.53D-05 Max=5.83D-04 NDo=     1
 LinEq1:  Iter=  7 NonCon=     1 RMS=5.79D-06 Max=8.54D-05 NDo=     1
 LinEq1:  Iter=  8 NonCon=     1 RMS=2.25D-06 Max=4.76D-05 NDo=     1
 LinEq1:  Iter=  9 NonCon=     1 RMS=7.58D-07 Max=1.98D-05 NDo=     1
 LinEq1:  Iter= 10 NonCon=     1 RMS=3.79D-07 Max=1.57D-05 NDo=     1
 LinEq1:  Iter= 11 NonCon=     1 RMS=1.47D-07 Max=5.25D-06 NDo=     1
 LinEq1:  Iter= 12 NonCon=     1 RMS=5.44D-08 Max=9.79D-07 NDo=     1
 LinEq1:  Iter= 13 NonCon=     1 RMS=1.72D-08 Max=3.58D-07 NDo=     1
 LinEq1:  Iter= 14 NonCon=     1 RMS=5.59D-09 Max=1.51D-07 NDo=     1
 LinEq1:  Iter= 15 NonCon=     1 RMS=2.06D-09 Max=4.89D-08 NDo=     1
 LinEq1:  Iter= 16 NonCon=     1 RMS=7.72D-10 Max=1.25D-08 NDo=     1
 LinEq1:  Iter= 17 NonCon=     1 RMS=2.58D-10 Max=3.87D-09 NDo=     1
 LinEq1:  Iter= 18 NonCon=     1 RMS=8.92D-11 Max=1.06D-09 NDo=     1
 LinEq1:  Iter= 19 NonCon=     0 RMS=3.01D-11 Max=4.61D-10 NDo=     1
 Linear equations converged to 1.000D-10 1.000D-09 after    19 iterations.
 End of Minotr F.D. properties file   721 does not exist.
 End of Minotr F.D. properties file   722 does not exist.
 End of Minotr F.D. properties file   788 does not exist.

 **********************************************************************

            Population analysis using the SCF Density.

 **********************************************************************

 Alpha  occ. eigenvalues --  -20.59808 -20.59083 -15.85191 -15.63448 -15.56833
 Alpha  occ. eigenvalues --  -11.36010 -11.30451 -11.30161 -11.30124 -11.27721
 Alpha  occ. eigenvalues --  -11.24663 -11.23904 -11.23423 -11.22873  -1.58496
 Alpha  occ. eigenvalues --   -1.37694  -1.28663  -1.22758  -1.13342  -1.08450
 Alpha  occ. eigenvalues --   -1.01849  -1.00725  -0.93767  -0.88914  -0.84968
 Alpha  occ. eigenvalues --   -0.81566  -0.77995  -0.76990  -0.74383  -0.71164
 Alpha  occ. eigenvalues --   -0.70212  -0.69701  -0.67431  -0.64417  -0.63285
 Alpha  occ. eigenvalues --   -0.61676  -0.60418  -0.57469  -0.56501  -0.54910
 Alpha  occ. eigenvalues --   -0.53631  -0.50762  -0.49401  -0.48576  -0.47770
 Alpha  occ. eigenvalues --   -0.47538  -0.46156  -0.45707  -0.43832  -0.42145
 Alpha  occ. eigenvalues --   -0.39942  -0.33816
 Alpha virt. eigenvalues --    0.07218   0.11848   0.18095   0.21356   0.23407
 Alpha virt. eigenvalues --    0.24235   0.26268   0.27775   0.28528   0.28845
 Alpha virt. eigenvalues --    0.29896   0.31041   0.31820   0.32257   0.33330
 Alpha virt. eigenvalues --    0.33747   0.34143   0.35455   0.37576   0.38671
 Alpha virt. eigenvalues --    0.40621   0.41714   0.44282   0.45195   0.45603
 Alpha virt. eigenvalues --    0.46095   0.49852   0.53300   0.57437   0.58954
 Alpha virt. eigenvalues --    0.63077   0.69087   0.69187   0.72134   0.74002
 Alpha virt. eigenvalues --    0.74826   0.75695   0.75830   0.77757   0.79252
 Alpha virt. eigenvalues --    0.80554   0.83619   0.84944   0.85345   0.87963
 Alpha virt. eigenvalues --    0.89075   0.90151   0.90760   0.91804   0.93916
 Alpha virt. eigenvalues --    0.95215   0.97175   0.98833   1.00346   1.01978
 Alpha virt. eigenvalues --    1.02786   1.05090   1.06480   1.07039   1.08610
 Alpha virt. eigenvalues --    1.09654   1.10442   1.11310   1.12012   1.13223
 Alpha virt. eigenvalues --    1.13812   1.14167   1.15393   1.16366   1.17235
 Alpha virt. eigenvalues --    1.17953   1.19996   1.21248   1.22271   1.23005
 Alpha virt. eigenvalues --    1.23855   1.24182   1.25633   1.27117   1.27521
 Alpha virt. eigenvalues --    1.29419   1.31131   1.32663   1.35994   1.39555
 Alpha virt. eigenvalues --    1.42654   1.45910   1.47308   1.49385   1.52664
 Alpha virt. eigenvalues --    1.54713   1.55461   1.60378   1.61538   1.65726
 Alpha virt. eigenvalues --    1.68590   1.70255   1.72699   1.73477   1.76955
 Alpha virt. eigenvalues --    1.77711   1.79809   1.84303   1.89181   1.92543
 Alpha virt. eigenvalues --    1.93830   1.96247   1.97609   1.98935   2.00784
 Alpha virt. eigenvalues --    2.02898   2.03760   2.06307   2.08870   2.12279
 Alpha virt. eigenvalues --    2.12829   2.13839   2.17696   2.18786   2.19437
 Alpha virt. eigenvalues --    2.20820   2.21986   2.24014   2.25130   2.26307
 Alpha virt. eigenvalues --    2.29130   2.32219   2.33488   2.35574   2.35870
 Alpha virt. eigenvalues --    2.38461   2.39679   2.41577   2.43391   2.46417
 Alpha virt. eigenvalues --    2.49040   2.50251   2.50680   2.56772   2.57286
 Alpha virt. eigenvalues --    2.60713   2.62765   2.65877   2.68538   2.68730
 Alpha virt. eigenvalues --    2.69665   2.70136   2.74343   2.77139   2.81722
 Alpha virt. eigenvalues --    2.84864   2.86911   2.89828   2.91116   2.95108
 Alpha virt. eigenvalues --    2.97480   2.98429   3.01630   3.03306   3.05634
 Alpha virt. eigenvalues --    3.06971   3.12697   3.19293   3.22738   3.27489
 Alpha virt. eigenvalues --    3.30556   3.33720   3.37188   3.43260   3.59982
 Alpha virt. eigenvalues --    4.09506   4.23289   4.32035   4.36366   4.43089
 Alpha virt. eigenvalues --    4.52559   4.59590   4.60083   4.70808   4.77550
 Alpha virt. eigenvalues --    4.96433   4.99212   5.02817   5.09906
          Condensed to atoms (all electrons):
               1          2          3          4          5          6
     1  O    8.296740   0.318281  -0.094991  -0.074789   0.003201  -0.000010
     2  N    0.318281   5.688048   0.306786   0.263281  -0.042950   0.000842
     3  O   -0.094991   0.306786   8.336794  -0.089063   0.007608   0.000498
     4  C   -0.074789   0.263281  -0.089063   5.239146   0.571224  -0.048470
     5  C    0.003201  -0.042950   0.007608   0.571224   4.664893   0.307788
     6  N   -0.000010   0.000842   0.000498  -0.048470   0.307788   7.189807
     7  C    0.000002  -0.000091   0.000002   0.004220  -0.029385   0.197922
     8  H   -0.000000   0.000002  -0.000000  -0.000182   0.002299  -0.049924
     9  C   -0.000000  -0.000003   0.000000   0.000469   0.001657  -0.056185
    10  C   -0.000000   0.000000  -0.000000  -0.000019  -0.000062   0.003331
    11  C   -0.000000  -0.000000  -0.000000  -0.000014   0.000015  -0.000154
    12  C   -0.000000   0.000002  -0.000000  -0.000101  -0.000128   0.003602
    13  C   -0.000015  -0.000034  -0.000003  -0.010557   0.000530  -0.044429
    14  H   -0.000003  -0.000055   0.000000   0.002966   0.004808  -0.005573
    15  N    0.000165   0.001660  -0.000016  -0.061586  -0.003647   0.001885
    16  C    0.004478  -0.029963   0.002152   0.316491  -0.041391  -0.001326
    17  H    0.000111  -0.004054   0.011998  -0.026166   0.376342  -0.033951
    18  H    0.000000  -0.000033   0.000008   0.000941  -0.024337   0.328266
    19  H    0.000000   0.000000   0.000000  -0.000774   0.000664   0.000631
    20  H    0.000000  -0.000000   0.000000  -0.000027   0.000029  -0.001703
    21  H   -0.000000  -0.000000   0.000000   0.000000   0.000001  -0.000059
    22  H   -0.000000   0.000000  -0.000000  -0.000000  -0.000002  -0.000098
    23  H    0.000000  -0.000000   0.000000   0.000025  -0.000000  -0.000024
    24  H    0.000000   0.000000   0.000000   0.000000  -0.000000   0.000004
    25  H    0.000000  -0.000000   0.000000   0.000019  -0.000001  -0.000071
    26  H    0.000000  -0.000000   0.000000   0.000006  -0.000001  -0.000067
    27  H    0.005560  -0.000313   0.000012  -0.066849   0.002114   0.000041
               7          8          9         10         11         12
     1  O    0.000002  -0.000000  -0.000000  -0.000000  -0.000000  -0.000000
     2  N   -0.000091   0.000002  -0.000003   0.000000  -0.000000   0.000002
     3  O    0.000002  -0.000000   0.000000  -0.000000  -0.000000  -0.000000
     4  C    0.004220  -0.000182   0.000469  -0.000019  -0.000014  -0.000101
     5  C   -0.029385   0.002299   0.001657  -0.000062   0.000015  -0.000128
     6  N    0.197922  -0.049924  -0.056185   0.003331  -0.000154   0.003602
     7  C    5.005105   0.416624   0.340722  -0.049309  -0.007723  -0.064127
     8  H    0.416624   0.547067  -0.060480   0.001466  -0.000329  -0.002842
     9  C    0.340722  -0.060480   5.181180   0.317964  -0.053062  -0.006212
    10  C   -0.049309   0.001466   0.317964   5.126718   0.332744  -0.060171
    11  C   -0.007723  -0.000329  -0.053062   0.332744   5.123979   0.330677
    12  C   -0.064127  -0.002842  -0.006212  -0.060171   0.330677   5.136919
    13  C    0.331965  -0.040285  -0.050472  -0.001721  -0.047891   0.368242
    14  H   -0.040334  -0.000933   0.003862  -0.000390   0.003955  -0.040720
    15  N   -0.058359   0.004045  -0.012864   0.001458  -0.007752  -0.074157
    16  C   -0.002259   0.000017  -0.000876  -0.000026   0.000002   0.002518
    17  H    0.001409  -0.000018  -0.000065   0.000001   0.000000   0.000001
    18  H   -0.028401  -0.002674   0.000851  -0.000121   0.000011  -0.000136
    19  H   -0.035019   0.004094   0.385987  -0.032552  -0.002260   0.000626
    20  H   -0.041678  -0.001850   0.397232  -0.037348   0.004137  -0.000362
    21  H    0.004043  -0.000080  -0.035834   0.400161  -0.035831   0.004211
    22  H   -0.004226   0.003509  -0.045693   0.395978  -0.045615  -0.001227
    23  H    0.000430   0.000033  -0.002005  -0.040086   0.396694  -0.036617
    24  H   -0.000140  -0.000098   0.004396  -0.038480   0.400308  -0.037867
    25  H    0.004982  -0.000005  -0.000369   0.004096  -0.033900   0.395431
    26  H   -0.004454   0.001603   0.001044  -0.002405  -0.042322   0.394659
    27  H   -0.000399   0.000009  -0.000059   0.000005   0.000005  -0.000019
              13         14         15         16         17         18
     1  O   -0.000015  -0.000003   0.000165   0.004478   0.000111   0.000000
     2  N   -0.000034  -0.000055   0.001660  -0.029963  -0.004054  -0.000033
     3  O   -0.000003   0.000000  -0.000016   0.002152   0.011998   0.000008
     4  C   -0.010557   0.002966  -0.061586   0.316491  -0.026166   0.000941
     5  C    0.000530   0.004808  -0.003647  -0.041391   0.376342  -0.024337
     6  N   -0.044429  -0.005573   0.001885  -0.001326  -0.033951   0.328266
     7  C    0.331965  -0.040334  -0.058359  -0.002259   0.001409  -0.028401
     8  H   -0.040285  -0.000933   0.004045   0.000017  -0.000018  -0.002674
     9  C   -0.050472   0.003862  -0.012864  -0.000876  -0.000065   0.000851
    10  C   -0.001721  -0.000390   0.001458  -0.000026   0.000001  -0.000121
    11  C   -0.047891   0.003955  -0.007752   0.000002   0.000000   0.000011
    12  C    0.368242  -0.040720  -0.074157   0.002518   0.000001  -0.000136
    13  C    5.023958   0.402348   0.240565  -0.070012  -0.000041   0.003678
    14  H    0.402348   0.519329  -0.035829  -0.004837   0.000063   0.000010
    15  N    0.240565  -0.035829   6.936304   0.587312  -0.000060  -0.000119
    16  C   -0.070012  -0.004837   0.587312   4.706039   0.001690  -0.000207
    17  H   -0.000041   0.000063  -0.000060   0.001690   0.384635  -0.001881
    18  H    0.003678   0.000010  -0.000119  -0.000207  -0.001881   0.323821
    19  H   -0.006256   0.000065   0.006960   0.002529   0.000011  -0.000127
    20  H    0.003863  -0.000049   0.000079  -0.000031  -0.000001   0.002864
    21  H   -0.000377   0.000009  -0.000030   0.000002  -0.000000  -0.000000
    22  H    0.000319  -0.000044   0.000003  -0.000001   0.000000   0.000002
    23  H   -0.005865   0.000008   0.006782   0.000062   0.000000   0.000000
    24  H    0.004143  -0.000058   0.000044   0.000005   0.000000  -0.000000
    25  H   -0.034447  -0.002659   0.000777  -0.000059  -0.000000   0.000002
    26  H   -0.044835  -0.000902   0.004187  -0.000055   0.000000  -0.000001
    27  H    0.004876  -0.000172  -0.039334   0.402519  -0.000059   0.000002
              19         20         21         22         23         24
     1  O    0.000000   0.000000  -0.000000  -0.000000   0.000000   0.000000
     2  N    0.000000  -0.000000  -0.000000   0.000000  -0.000000   0.000000
     3  O    0.000000   0.000000   0.000000  -0.000000   0.000000   0.000000
     4  C   -0.000774  -0.000027   0.000000  -0.000000   0.000025   0.000000
     5  C    0.000664   0.000029   0.000001  -0.000002  -0.000000  -0.000000
     6  N    0.000631  -0.001703  -0.000059  -0.000098  -0.000024   0.000004
     7  C   -0.035019  -0.041678   0.004043  -0.004226   0.000430  -0.000140
     8  H    0.004094  -0.001850  -0.000080   0.003509   0.000033  -0.000098
     9  C    0.385987   0.397232  -0.035834  -0.045693  -0.002005   0.004396
    10  C   -0.032552  -0.037348   0.400161   0.395978  -0.040086  -0.038480
    11  C   -0.002260   0.004137  -0.035831  -0.045615   0.396694   0.400308
    12  C    0.000626  -0.000362   0.004211  -0.001227  -0.036617  -0.037867
    13  C   -0.006256   0.003863  -0.000377   0.000319  -0.005865   0.004143
    14  H    0.000065  -0.000049   0.000009  -0.000044   0.000008  -0.000058
    15  N    0.006960   0.000079  -0.000030   0.000003   0.006782   0.000044
    16  C    0.002529  -0.000031   0.000002  -0.000001   0.000062   0.000005
    17  H    0.000011  -0.000001  -0.000000   0.000000   0.000000   0.000000
    18  H   -0.000127   0.002864  -0.000000   0.000002   0.000000  -0.000000
    19  H    0.506652  -0.024011  -0.002593   0.003755   0.001641  -0.000070
    20  H   -0.024011   0.550055  -0.002616  -0.002965  -0.000049  -0.000090
    21  H   -0.002593  -0.002616   0.525898  -0.024679  -0.002811  -0.002060
    22  H    0.003755  -0.002965  -0.024679   0.568775   0.004060  -0.003596
    23  H    0.001641  -0.000049  -0.002811   0.004060   0.509486  -0.024977
    24  H   -0.000070  -0.000090  -0.002060  -0.003596  -0.024977   0.540910
    25  H   -0.000027   0.000011  -0.000086  -0.000082  -0.002091  -0.002379
    26  H    0.000023  -0.000035  -0.000074   0.002464   0.003820  -0.002765
    27  H    0.000077  -0.000000  -0.000000   0.000000  -0.000021  -0.000000
              25         26         27
     1  O    0.000000   0.000000   0.005560
     2  N   -0.000000  -0.000000  -0.000313
     3  O    0.000000   0.000000   0.000012
     4  C    0.000019   0.000006  -0.066849
     5  C   -0.000001  -0.000001   0.002114
     6  N   -0.000071  -0.000067   0.000041
     7  C    0.004982  -0.004454  -0.000399
     8  H   -0.000005   0.001603   0.000009
     9  C   -0.000369   0.001044  -0.000059
    10  C    0.004096  -0.002405   0.000005
    11  C   -0.033900  -0.042322   0.000005
    12  C    0.395431   0.394659  -0.000019
    13  C   -0.034447  -0.044835   0.004876
    14  H   -0.002659  -0.000902  -0.000172
    15  N    0.000777   0.004187  -0.039334
    16  C   -0.000059  -0.000055   0.402519
    17  H   -0.000000   0.000000  -0.000059
    18  H    0.000002  -0.000001   0.000002
    19  H   -0.000027   0.000023   0.000077
    20  H    0.000011  -0.000035  -0.000000
    21  H   -0.000086  -0.000074  -0.000000
    22  H   -0.000082   0.002464   0.000000
    23  H   -0.002091   0.003820  -0.000021
    24  H   -0.002379  -0.002765  -0.000000
    25  H    0.510166  -0.023093  -0.000010
    26  H   -0.023093   0.561015   0.000001
    27  H   -0.000010   0.000001   0.452378
 Mulliken charges:
               1
     1  O   -0.458730
     2  N    0.498593
     3  O   -0.481786
     4  C   -0.020193
     5  C    0.198732
     6  N   -0.792575
     7  C    0.058478
     8  H    0.178932
     9  C   -0.311186
    10  C   -0.321231
    11  C   -0.315675
    12  C   -0.312200
    13  C   -0.027245
    14  H    0.195134
    15  N   -0.498473
    16  C    0.125228
    17  H    0.290034
    18  H    0.397580
    19  H    0.189973
    20  H    0.154544
    21  H    0.172803
    22  H    0.149365
    23  H    0.191508
    24  H    0.162770
    25  H    0.183795
    26  H    0.152187
    27  H    0.239639
 Sum of Mulliken charges =  -0.00000
 Mulliken charges with hydrogens summed into heavy atoms:
               1
     1  O   -0.458730
     2  N    0.498593
     3  O   -0.481786
     4  C   -0.020193
     5  C    0.488767
     6  N   -0.394995
     7  C    0.237410
     9  C    0.033330
    10  C    0.000936
    11  C    0.038603
    12  C    0.023782
    13  C    0.167889
    15  N   -0.498473
    16  C    0.364867
 Electronic spatial extent (au):  <R**2>=           3128.2117
 Charge=             -0.0000 electrons
 Dipole moment (field-independent basis, Debye):
    X=              5.4455    Y=              4.5230    Z=              0.5287  Tot=              7.0986
 Quadrupole moment (field-independent basis, Debye-Ang):
   XX=           -105.8596   YY=            -80.1806   ZZ=            -82.2447
   XY=             -1.9009   XZ=              0.8297   YZ=              0.0676
 Traceless Quadrupole moment (field-independent basis, Debye-Ang):
   XX=            -16.4313   YY=              9.2477   ZZ=              7.1836
   XY=             -1.9009   XZ=              0.8297   YZ=              0.0676
 Octapole moment (field-independent basis, Debye-Ang**2):
  XXX=            103.5588  YYY=             37.2587  ZZZ=             -5.0731  XYY=             -1.3411
  XXY=             12.1735  XXZ=              0.0053  XZZ=             -8.2636  YZZ=             -2.7968
  YYZ=              0.9568  XYZ=             -1.4354
 Hexadecapole moment (field-independent basis, Debye-Ang**3):
 XXXX=          -3570.0903 YYYY=           -620.0527 ZZZZ=           -298.9209 XXXY=            -45.9089
 XXXZ=             23.0374 YYYX=            -23.6316 YYYZ=             11.2742 ZZZX=             19.6347
 ZZZY=              8.5650 XXYY=           -657.4141 XXZZ=           -543.7442 YYZZ=           -164.6291
 XXYZ=              2.3091 YYXZ=              9.4364 ZZXY=              1.5529
 N-N= 9.173880927954D+02 E-N=-3.380786648486D+03  KE= 6.588639224083D+02
 Calling FoFJK, ICntrl=  10002127 FMM=F ISym2X=0 I1Cent= 0 IOpClX= 0 NMat=1 NMatS=1 NMatT=0.
 -------------------------------------------------------------------
 Center     Atomic                   Forces (Hartrees/Bohr)
 Number     Number              X              Y              Z
 -------------------------------------------------------------------
      1        8           0.010360962   -0.021412702   -0.003679082
      2        7           0.031268617    0.019940709   -0.000541776
      3        8          -0.006794638    0.019770823    0.004398848
      4        6          -0.001735618    0.001593149    0.007990220
      5        6           0.001750052   -0.016591488   -0.004943981
      6        7           0.014598985   -0.010718958   -0.006633654
      7        6          -0.004519179    0.005167508    0.002924714
      8        1          -0.010133685   -0.001666266   -0.007657499
      9        6          -0.003961012    0.000217170   -0.002138425
     10        6           0.002844206   -0.000888312    0.000994680
     11        6          -0.001045054   -0.004607802   -0.002408572
     12        6           0.000816169   -0.008751728   -0.002893525
     13        6           0.008801783   -0.001944523    0.004435038
     14        1           0.000871507    0.004451257   -0.009859740
     15        7           0.000437514    0.000298199    0.001387297
     16        6          -0.019423923    0.007903398    0.003862185
     17        1           0.007269035   -0.006015088   -0.006297335
     18        1          -0.017693282   -0.001673123    0.006139442
     19        1           0.003105901    0.005868762    0.007707299
     20        1          -0.003249004   -0.007346073    0.002592760
     21        1          -0.004365791    0.002406211    0.009619586
     22        1          -0.003992300   -0.003966168   -0.007407654
     23        1           0.003982969    0.006120091    0.009307587
     24        1          -0.009379378    0.002633183   -0.002128767
     25        1          -0.000781442    0.010603201   -0.002410057
     26        1          -0.004777750   -0.004793338   -0.004366560
     27        1           0.005744353    0.003401908    0.002006970
 -------------------------------------------------------------------
 Cartesian Forces:  Max     0.031268617 RMS     0.008260828

 GradGradGradGradGradGradGradGradGradGradGradGradGradGradGradGradGradGrad
 Berny optimization.
 FormGI is forming the generalized inverse of G from B-inverse, IUseBI=4.
 Internal  Forces:  Max     0.037795044 RMS     0.007218481
 Search for a local minimum.
 Step number   1 out of a maximum of   20
 All quantities printed in internal units (Hartrees-Bohrs-Radians)
 Mixed Optimization -- RFO/linear search
 Second derivative matrix not updated -- first step.
 ITU=  0
     Eigenvalues ---    0.00232   0.00770   0.01050   0.01149   0.01200
     Eigenvalues ---    0.01489   0.01532   0.01606   0.01976   0.02018
     Eigenvalues ---    0.02084   0.02688   0.03663   0.04506   0.04695
     Eigenvalues ---    0.04838   0.05081   0.05138   0.05304   0.05892
     Eigenvalues ---    0.06265   0.07216   0.07700   0.07725   0.07871
     Eigenvalues ---    0.07993   0.08050   0.08055   0.10459   0.11738
     Eigenvalues ---    0.12267   0.13474   0.15245   0.15724   0.15990
     Eigenvalues ---    0.16000   0.20086   0.21956   0.23161   0.24981
     Eigenvalues ---    0.25000   0.25369   0.26201   0.26651   0.27979
     Eigenvalues ---    0.28084   0.28471   0.29833   0.31461   0.31695
     Eigenvalues ---    0.32046   0.32238   0.32290   0.32381   0.32388
     Eigenvalues ---    0.32405   0.32516   0.32525   0.32581   0.33397
     Eigenvalues ---    0.33461   0.33588   0.35367   0.43881   0.44154
     Eigenvalues ---    0.49178   0.67014   0.90351   0.913071000.00000
     Eigenvalues --- 1000.000001000.000001000.000001000.000001000.00000
     Eigenvalues --- 1000.000001000.000001000.000001000.000001000.00000
     Eigenvalues --- 1000.000001000.000001000.000001000.000001000.00000
     Eigenvalues --- 1000.000001000.000001000.000001000.000001000.00000
     Eigenvalues --- 1000.000001000.000001000.000001000.000001000.00000
     Eigenvalues --- 1000.000001000.000001000.000001000.000001000.00000
     Eigenvalues --- 1000.000001000.000001000.000001000.000001000.00000
     Eigenvalues --- 1000.000001000.000001000.000001000.000001000.00000
     Eigenvalues --- 1000.000001000.000001000.000001000.000001000.00000
     Eigenvalues --- 1000.000001000.000001000.000001000.000001000.00000
     Eigenvalues --- 1000.000001000.000001000.000001000.000001000.00000
     Eigenvalues --- 1000.000001000.000001000.000001000.000001000.00000
     Eigenvalues --- 1000.000001000.000001000.000001000.000001000.00000
     Eigenvalues --- 1000.000001000.000001000.000001000.000001000.00000
     Eigenvalues --- 1000.000001000.000001000.000001000.000001000.00000
     Eigenvalues --- 1000.000001000.000001000.000001000.000001000.00000
     Eigenvalues --- 1000.000001000.000001000.000001000.000001000.00000
     Eigenvalues --- 1000.000001000.000001000.000001000.000001000.00000
     Eigenvalues --- 1000.00000
 RFO step:  Lambda=-2.38974053D-02 EMin= 2.31527274D-03
 Linear search not attempted -- first point.
 Iteration  1 RMS(Cart)=  0.05594989 RMS(Int)=  0.00115693
 Iteration  2 RMS(Cart)=  0.00124652 RMS(Int)=  0.00023313
 Iteration  3 RMS(Cart)=  0.00000115 RMS(Int)=  0.00023313
 Iteration  4 RMS(Cart)=  0.00000000 RMS(Int)=  0.00023313
 Iteration  1 RMS(Cart)=  0.00004070 RMS(Int)=  0.00002447
 Iteration  2 RMS(Cart)=  0.00001632 RMS(Int)=  0.00002716
 Iteration  3 RMS(Cart)=  0.00000755 RMS(Int)=  0.00002992
 Iteration  4 RMS(Cart)=  0.00000429 RMS(Int)=  0.00003158
 Iteration  5 RMS(Cart)=  0.00000297 RMS(Int)=  0.00003258
 Iteration  6 RMS(Cart)=  0.00000232 RMS(Int)=  0.00003325
 Iteration  7 RMS(Cart)=  0.00000192 RMS(Int)=  0.00003373
 Iteration  8 RMS(Cart)=  0.00000161 RMS(Int)=  0.00003410
 Iteration  9 RMS(Cart)=  0.00000137 RMS(Int)=  0.00003440
 Iteration 10 RMS(Cart)=  0.00000117 RMS(Int)=  0.00003465
 Iteration 11 RMS(Cart)=  0.00000099 RMS(Int)=  0.00003486
 Variable       Old X    -DE/DX   Delta X   Delta X   Delta X     New X
                                 (Linear)    (Quad)   (Total)
    R1        2.32336   0.01718   0.00000   0.01833   0.01833   2.34170
    R2        2.32772   0.02004   0.00000   0.02160   0.02160   2.34932
    R3        2.88298  -0.03780   0.00000  -0.11729  -0.11729   2.76569
    R4        2.64602  -0.03567   0.00000  -0.07705  -0.07682   2.56919
    R5        2.80627  -0.02066   0.00000  -0.05897  -0.05874   2.74753
    R6        2.59060  -0.02471   0.00000  -0.04784  -0.04775   2.54284
    R7        2.08360  -0.01050   0.00000  -0.02933  -0.02933   2.05427
    R8        2.82450  -0.01920   0.00000  -0.05325  -0.05335   2.77115
    R9        1.93297  -0.00662   0.00000  -0.01432  -0.01432   1.91866
   R10        2.11841  -0.01189   0.00000  -0.03514  -0.03514   2.08327
   R11        2.92741  -0.01299   0.00000  -0.04423  -0.04426   2.88315
   R12        2.90272  -0.00446   0.00000  -0.00881  -0.00882   2.89390
   R13        2.91139  -0.00462   0.00000  -0.01435  -0.01437   2.89702
   R14        2.09910  -0.00996   0.00000  -0.02852  -0.02852   2.07058
   R15        2.09893  -0.00802   0.00000  -0.02298  -0.02298   2.07595
   R16        2.90431  -0.00183   0.00000  -0.00716  -0.00720   2.89710
   R17        2.10139  -0.01058   0.00000  -0.03042  -0.03042   2.07097
   R18        2.10316  -0.00901   0.00000  -0.02598  -0.02598   2.07719
   R19        2.91769  -0.00910   0.00000  -0.02882  -0.02879   2.88890
   R20        2.10410  -0.01167   0.00000  -0.03371  -0.03371   2.07039
   R21        2.10109  -0.00995   0.00000  -0.02859  -0.02859   2.07250
   R22        2.93531  -0.01060   0.00000  -0.03642  -0.03641   2.89891
   R23        2.10153  -0.01074   0.00000  -0.03089  -0.03089   2.07063
   R24        2.09793  -0.00785   0.00000  -0.02244  -0.02244   2.07549
   R25        2.10760  -0.00916   0.00000  -0.02660  -0.02660   2.08100
   R26        2.76817  -0.00545   0.00000  -0.01156  -0.01188   2.75629
   R27        2.44269  -0.00562   0.00000  -0.00766  -0.00770   2.43500
   R28        2.08032  -0.00609   0.00000  -0.01692  -0.01692   2.06340
    A1        2.13637   0.01870   0.00000   0.03118   0.03081   2.16718
    A2        2.09992  -0.02047   0.00000   0.00000  -0.00000   2.09992
    A3        2.04676   0.00179   0.00000  -0.03055  -0.03093   2.01583
    A4        2.04549  -0.00965   0.00000  -0.03285  -0.03320   2.01229
    A5        2.01928  -0.00088   0.00000  -0.00079  -0.00119   2.01810
    A6        2.21767   0.01048   0.00000   0.03242   0.03265   2.25032
    A7        2.20023   0.00565   0.00000   0.01715   0.01744   2.21767
    A8        2.06412  -0.00301   0.00000  -0.00929  -0.00953   2.05459
    A9        2.01787  -0.00260   0.00000  -0.00698  -0.00723   2.01063
   A10        2.25337  -0.00504   0.00000  -0.01710  -0.01717   2.23620
   A11        2.11542  -0.01282   0.00000  -0.07309  -0.07346   2.04195
   A12        1.87487   0.01808   0.00000   0.09776   0.09792   1.97279
   A13        1.83807  -0.00168   0.00000  -0.01802  -0.01783   1.82024
   A14        2.00679  -0.00110   0.00000  -0.01277  -0.01279   1.99401
   A15        1.96711   0.00110   0.00000   0.00195   0.00148   1.96859
   A16        1.85197   0.00270   0.00000   0.02396   0.02380   1.87576
   A17        1.84920   0.00085   0.00000   0.01848   0.01829   1.86749
   A18        1.93672  -0.00156   0.00000  -0.00934  -0.00902   1.92770
   A19        1.91012   0.00015   0.00000  -0.00477  -0.00491   1.90521
   A20        1.92261  -0.00074   0.00000  -0.01303  -0.01299   1.90962
   A21        1.92281  -0.00165   0.00000  -0.00697  -0.00696   1.91585
   A22        1.91926  -0.00040   0.00000   0.00569   0.00564   1.92490
   A23        1.90447   0.00305   0.00000   0.02443   0.02444   1.92892
   A24        1.88436  -0.00038   0.00000  -0.00492  -0.00518   1.87918
   A25        1.94044  -0.00087   0.00000   0.00558   0.00546   1.94590
   A26        1.91894  -0.00071   0.00000  -0.00691  -0.00692   1.91202
   A27        1.90499   0.00031   0.00000  -0.00294  -0.00300   1.90199
   A28        1.91613   0.00079   0.00000   0.00711   0.00716   1.92328
   A29        1.89850   0.00172   0.00000   0.01118   0.01120   1.90970
   A30        1.88380  -0.00122   0.00000  -0.01450  -0.01458   1.86922
   A31        1.94467   0.00065   0.00000   0.00507   0.00519   1.94987
   A32        1.90238   0.00061   0.00000   0.00590   0.00585   1.90824
   A33        1.91745   0.00039   0.00000   0.00526   0.00524   1.92269
   A34        1.90658  -0.00114   0.00000  -0.01418  -0.01423   1.89235
   A35        1.91536  -0.00048   0.00000   0.00015   0.00006   1.91542
   A36        1.87603  -0.00006   0.00000  -0.00257  -0.00260   1.87342
   A37        1.94782  -0.00301   0.00000  -0.01808  -0.01810   1.92972
   A38        1.90595   0.00254   0.00000   0.01688   0.01673   1.92269
   A39        1.91070   0.00141   0.00000   0.01323   0.01320   1.92391
   A40        1.90615   0.00021   0.00000  -0.00302  -0.00286   1.90329
   A41        1.91138  -0.00021   0.00000  -0.00470  -0.00465   1.90674
   A42        1.88058  -0.00087   0.00000  -0.00382  -0.00401   1.87657
   A43        1.84653   0.00462   0.00000   0.02345   0.02349   1.87002
   A44        1.93863  -0.00438   0.00000  -0.03107  -0.03148   1.90715
   A45        1.98315   0.00080   0.00000   0.01146   0.01166   1.99481
   A46        1.88062   0.00224   0.00000   0.03007   0.03037   1.91099
   A47        1.89197  -0.00391   0.00000  -0.02832  -0.02837   1.86360
   A48        1.91832   0.00085   0.00000  -0.00327  -0.00314   1.91518
   A49        2.08411  -0.00680   0.00000  -0.01658  -0.01693   2.06718
   A50        2.25159  -0.00445   0.00000  -0.01869  -0.01873   2.23286
   A51        1.97864   0.00531   0.00000   0.02622   0.02574   2.00439
   A52        2.05294  -0.00085   0.00000  -0.00724  -0.00771   2.04523
    D1       -3.03603  -0.00071   0.00000  -0.03081  -0.03019  -3.06622
    D2        0.14413   0.00038   0.00000   0.00000  -0.00000   0.14413
    D3        0.12285  -0.00193   0.00000  -0.07132  -0.07101   0.05184
    D4       -2.98018  -0.00084   0.00000  -0.04051  -0.04082  -3.02100
    D5        3.07481   0.00062   0.00000   0.01642   0.01633   3.09115
    D6       -0.01735  -0.00042   0.00000  -0.00599  -0.00614  -0.02349
    D7       -0.11033  -0.00097   0.00000  -0.01947  -0.01983  -0.13016
    D8        3.08069  -0.00201   0.00000  -0.04187  -0.04230   3.03838
    D9       -2.70296  -0.00203   0.00000  -0.04525  -0.04592  -2.74887
   D10        0.43149   0.00036   0.00000   0.00363   0.00328   0.43477
   D11        0.48163  -0.00026   0.00000  -0.00912  -0.00897   0.47266
   D12       -2.66712   0.00212   0.00000   0.03976   0.04023  -2.62689
   D13       -0.12631  -0.00014   0.00000   0.02084   0.02105  -0.10526
   D14        2.67764   0.00385   0.00000   0.06878   0.06776   2.74540
   D15        2.96701   0.00086   0.00000   0.04264   0.04296   3.00997
   D16       -0.51223   0.00485   0.00000   0.09058   0.08967  -0.42256
   D17       -2.48547  -0.00068   0.00000  -0.01703  -0.01663  -2.50210
   D18        1.76578  -0.00230   0.00000  -0.02774  -0.02740   1.73839
   D19       -0.47742  -0.00011   0.00000  -0.00465  -0.00464  -0.48205
   D20        0.95763  -0.00004   0.00000  -0.03618  -0.03671   0.92092
   D21       -1.07430  -0.00166   0.00000  -0.04689  -0.04747  -1.12177
   D22        2.96569   0.00054   0.00000  -0.02380  -0.02471   2.94098
   D23        2.94454   0.00230   0.00000   0.02517   0.02506   2.96960
   D24       -1.22649   0.00143   0.00000   0.02091   0.02082  -1.20567
   D25        0.85053  -0.00053   0.00000   0.00237   0.00235   0.85288
   D26        0.92056   0.00319   0.00000   0.03858   0.03857   0.95914
   D27        3.03272   0.00232   0.00000   0.03432   0.03433   3.06705
   D28       -1.17345   0.00036   0.00000   0.01578   0.01587  -1.15758
   D29       -1.08038   0.00145   0.00000   0.00812   0.00811  -1.07226
   D30        1.03177   0.00058   0.00000   0.00387   0.00388   1.03565
   D31        3.10879  -0.00138   0.00000  -0.01467  -0.01459   3.09420
   D32       -2.90024  -0.00097   0.00000  -0.01298  -0.01275  -2.91299
   D33       -0.86422   0.00210   0.00000   0.02030   0.02015  -0.84408
   D34        1.30938   0.00036   0.00000   0.00000  -0.00001   1.30937
   D35       -0.89890  -0.00192   0.00000  -0.02262  -0.02251  -0.92142
   D36        1.13711   0.00115   0.00000   0.01066   0.01038   1.14750
   D37       -2.97247  -0.00059   0.00000  -0.00964  -0.00977  -2.98225
   D38        1.10377   0.00097   0.00000   0.01125   0.01135   1.11512
   D39        3.13979   0.00404   0.00000   0.04453   0.04425  -3.09915
   D40       -0.96980   0.00230   0.00000   0.02423   0.02409  -0.94571
   D41        0.95666   0.00067   0.00000   0.00000   0.00001   0.95667
   D42        3.08231   0.00060   0.00000   0.00800   0.00796   3.09027
   D43       -1.13765  -0.00112   0.00000  -0.01545  -0.01542  -1.15307
   D44       -1.15752   0.00174   0.00000   0.01557   0.01564  -1.14188
   D45        0.96812   0.00167   0.00000   0.02357   0.02360   0.99172
   D46        3.03135  -0.00005   0.00000   0.00012   0.00022   3.03157
   D47        3.06188   0.00062   0.00000   0.00358   0.00355   3.06543
   D48       -1.09566   0.00055   0.00000   0.01159   0.01150  -1.08416
   D49        0.96757  -0.00118   0.00000  -0.01186  -0.01188   0.95569
   D50       -0.92193  -0.00080   0.00000   0.00000   0.00001  -0.92192
   D51        1.18339  -0.00141   0.00000  -0.01058  -0.01059   1.17280
   D52       -3.04841  -0.00091   0.00000  -0.00719  -0.00723  -3.05564
   D53       -3.04922   0.00014   0.00000   0.00017   0.00019  -3.04903
   D54       -0.94390  -0.00047   0.00000  -0.01041  -0.01041  -0.95430
   D55        1.10749   0.00003   0.00000  -0.00702  -0.00704   1.10045
   D56        1.17623   0.00015   0.00000   0.00704   0.00707   1.18330
   D57       -3.00164  -0.00046   0.00000  -0.00354  -0.00353  -3.00517
   D58       -0.95025   0.00005   0.00000  -0.00015  -0.00016  -0.95042
   D59        0.98793  -0.00085   0.00000  -0.01169  -0.01173   0.97620
   D60        3.09709  -0.00082   0.00000  -0.01578  -0.01593   3.08116
   D61       -1.13101   0.00042   0.00000  -0.00290  -0.00287  -1.13388
   D62       -1.11493  -0.00127   0.00000  -0.01291  -0.01290  -1.12783
   D63        0.99423  -0.00124   0.00000  -0.01700  -0.01710   0.97713
   D64        3.04932   0.00000   0.00000  -0.00412  -0.00404   3.04528
   D65        3.11562  -0.00025   0.00000  -0.00155  -0.00155   3.11407
   D66       -1.05840  -0.00022   0.00000  -0.00564  -0.00575  -1.06415
   D67        0.99668   0.00103   0.00000   0.00724   0.00731   1.00399
   D68       -1.05269   0.00002   0.00000  -0.00030  -0.00021  -1.05290
   D69       -3.12754   0.00159   0.00000   0.00857   0.00822  -3.11932
   D70        1.08035   0.00149   0.00000   0.01128   0.01119   1.09154
   D71        3.12145  -0.00137   0.00000  -0.00781  -0.00765   3.11380
   D72        1.04660   0.00020   0.00000   0.00106   0.00077   1.04737
   D73       -1.02870   0.00010   0.00000   0.00377   0.00375  -1.02495
   D74        1.06586  -0.00031   0.00000   0.00131   0.00150   1.06736
   D75       -1.00899   0.00125   0.00000   0.01018   0.00993  -0.99907
   D76       -3.08429   0.00115   0.00000   0.01289   0.01291  -3.07139
   D77       -1.17217   0.00399   0.00000   0.00000  -0.00001  -1.17217
   D78        3.06368   0.00036   0.00000  -0.01728  -0.01715   3.04653
   D79        1.01234  -0.00054   0.00000  -0.03515  -0.03540   0.97693
   D80        0.13623   0.00181   0.00000   0.02050   0.02017   0.15639
   D81       -2.99796  -0.00068   0.00000  -0.03026  -0.03013  -3.02809
         Item               Value     Threshold  Converged?
 Maximum Force            0.037795     0.000450     NO 
 RMS     Force            0.007039     0.000300     NO 
 Maximum Displacement     0.333265     0.001800     NO 
 RMS     Displacement     0.056119     0.001200     NO 
 Predicted change in Energy=-1.337392D-02
 GradGradGradGradGradGradGradGradGradGradGradGradGradGradGradGradGradGrad

                          Input orientation:                          
 ---------------------------------------------------------------------
 Center     Atomic      Atomic             Coordinates (Angstroms)
 Number     Number       Type             X           Y           Z
 ---------------------------------------------------------------------
      1          8           0       -3.552826   -1.411241   -0.228044
      2          7           0       -3.122479   -0.262963   -0.049697
      3          8           0       -3.843594    0.729625    0.151113
      4          6           0       -1.681369   -0.008160   -0.034606
      5          6           0       -1.320319    1.269112    0.259704
      6          7           0       -0.069915    1.748784    0.390412
      7          6           0        1.192603    1.003108    0.369520
      8          1           0        1.824368    1.516736    1.112747
      9          6           0        1.926640    1.051134   -0.967129
     10          6           0        3.327955    0.454209   -0.793359
     11          6           0        3.267159   -0.958776   -0.201652
     12          6           0        2.443937   -0.997977    1.085909
     13          6           0        1.034050   -0.445205    0.841102
     14          1           0        0.464687   -0.460300    1.783585
     15          7           0        0.399198   -1.327034   -0.131910
     16          6           0       -0.840460   -1.129049   -0.422421
     17          1           0       -2.113763    1.991310    0.434643
     18          1           0        0.056499    2.747693    0.259826
     19          1           0        1.361281    0.482340   -1.713730
     20          1           0        1.991473    2.090005   -1.318337
     21          1           0        3.841986    0.437343   -1.761093
     22          1           0        3.913342    1.104243   -0.127762
     23          1           0        2.805975   -1.636772   -0.928271
     24          1           0        4.280185   -1.330229   -0.005191
     25          1           0        2.365722   -2.027433    1.452970
     26          1           0        2.934745   -0.404226    1.868748
     27          1           0       -1.325069   -1.864277   -1.068056
 ---------------------------------------------------------------------
                    Distance matrix (angstroms):
                    1          2          3          4          5
     1  O    0.000000
     2  N    1.239173   0.000000
     3  O    2.193540   1.243206   0.000000
     4  C    2.346999   1.463540   2.292168   0.000000
     5  C    3.522255   2.385533   2.582587   1.359559   0.000000
     6  N    4.743302   3.682251   3.916197   2.421627   1.345615
     7  C    5.357729   4.516482   5.048343   3.073386   2.529346
     8  H    6.267773   5.384227   5.802591   3.991481   3.267729
     9  C    6.052609   5.297371   5.886376   3.874201   3.477840
    10  C    7.151547   6.532646   7.238714   5.087516   4.835230
    11  C    6.835029   6.429209   7.316963   5.041776   5.120672
    12  C    6.152920   5.728424   6.587222   4.387875   4.471234
    13  C    4.807882   4.254818   5.064358   2.886413   2.969842
    14  H    4.592532   4.033314   4.758379   2.848826   2.915360
    15  N    3.954089   3.679839   4.723476   2.465290   3.138483
    16  C    2.733924   2.469137   3.578047   1.453932   2.539042
    17  H    3.753321   2.516713   2.159758   2.098819   1.087073
    18  H    5.528288   4.389277   4.392623   3.271330   2.020353
    19  H    5.471870   4.840309   5.534394   3.509669   3.421174
    20  H    6.647309   5.770478   6.169110   4.420411   3.759261
    21  H    7.775008   7.205767   7.925282   5.804024   5.605787
    22  H    7.879174   7.167853   7.770982   5.704990   5.250572
    23  H    6.401213   6.148643   7.140145   4.856673   5.184761
    24  H    7.836599   7.479336   8.382315   6.106460   6.179999
    25  H    6.183422   5.957492   6.917499   4.761228   5.087041
    26  H    6.891966   6.355340   7.083908   5.008806   4.847128
    27  H    2.423585   2.613799   3.815451   2.154098   3.403101
                    6          7          8          9         10
     6  N    0.000000
     7  C    1.466431   0.000000
     8  H    2.040569   1.102419   0.000000
     9  C    2.513138   1.525696   2.133806   0.000000
    10  C    3.823971   2.492650   2.650090   1.533036   0.000000
    11  C    4.337912   2.911874   3.152373   2.534302   1.533082
    12  C    3.787858   2.466454   2.590052   2.946425   2.534162
    13  C    2.497089   1.531385   2.132512   2.511065   2.956756
    14  H    2.665855   2.161251   2.491471   3.462393   3.959200
    15  N    3.154924   2.512068   3.415744   2.947262   3.491125
    16  C    3.088099   3.050673   4.056874   3.564652   4.474369
    17  H    2.058662   3.451498   4.024167   4.378784   5.786446
    18  H    1.015309   2.084788   2.316913   2.807340   4.131790
    19  H    2.842467   2.153969   3.045225   1.095705   2.171561
    20  H    2.699180   2.160648   2.503344   1.098546   2.176606
    21  H    4.653152   3.446569   3.673531   2.162330   1.095912
    22  H    4.068202   2.767659   2.464310   2.157393   1.099201
    23  H    4.633752   3.355026   3.882515   2.828353   2.159367
    24  H    5.344174   3.888191   3.922504   3.483589   2.170754
    25  H    4.617485   3.425529   3.601382   3.940463   3.482877
    26  H    3.981069   2.695057   2.344050   3.343135   2.824595
    27  H    4.093501   4.077645   5.109413   4.368457   5.205906
                   11         12         13         14         15
    11  C    0.000000
    12  C    1.528739   0.000000
    13  C    2.517512   1.534037   0.000000
    14  H    3.470374   2.166398   1.101216   0.000000
    15  N    2.892349   2.402566   1.458565   2.103482   0.000000
    16  C    4.117070   3.616560   2.361762   2.648980   1.288544
    17  H    6.169457   5.489319   4.001318   3.805055   4.200877
    18  H    4.925364   4.518000   3.389408   3.574867   4.107834
    19  H    2.827644   3.346859   2.737625   3.731443   2.588744
    20  H    3.488471   3.939640   3.465130   4.296167   3.952102
    21  H    2.170583   3.481395   3.928717   4.977616   4.197625
    22  H    2.163113   2.837512   3.410250   4.241964   4.273211
    23  H    1.095603   2.143841   2.773126   3.770926   2.553959
    24  H    1.096720   2.161642   3.469419   4.302850   3.883057
    25  H    2.166192   1.095733   2.156658   2.485789   2.620996
    26  H    2.169004   1.098303   2.161105   2.472161   3.359048
    27  H    4.760162   4.426674   3.350237   3.647771   2.034231
                   16         17         18         19         20
    16  C    0.000000
    17  H    3.477427   0.000000
    18  H    4.037217   2.304932   0.000000
    19  H    3.018563   4.355276   3.275547   0.000000
    20  H    4.380048   4.464935   2.582107   1.771458   0.000000
    21  H    5.115753   6.535061   4.873577   2.481565   2.520263
    22  H    5.260518   6.117939   4.210272   3.068399   2.466329
    23  H    3.716202   6.262934   5.309871   2.682298   3.834636
    24  H    5.141552   7.218632   5.877007   3.837253   4.319787
    25  H    3.821490   6.103529   5.436720   4.163634   4.977298
    26  H    4.475153   5.769115   4.561526   4.011974   4.155534
    27  H    1.091902   4.212564   4.994223   3.624911   5.167053
                   21         22         23         24         25
    21  H    0.000000
    22  H    1.765678   0.000000
    23  H    2.463506   3.062718   0.000000
    24  H    2.529728   2.465006   1.766166   0.000000
    25  H    4.310995   3.834219   2.452906   2.505493   0.000000
    26  H    3.834980   2.686854   3.059259   2.485827   1.769593
    27  H    5.698790   6.094030   4.139664   5.730075   4.472597
                   26         27
    26  H    0.000000
    27  H    5.376111   0.000000
 Symmetry turned off by external request.
 Stoichiometry    C9H13N3O2
 Framework group  C1[X(C9H13N3O2)]
 Deg. of freedom    75
 Full point group                 C1      NOp   1
 Rotational constants (GHZ):           1.6893729           0.4204690           0.3714001
 Standard basis: 6-31G(d) (6D, 7F)
   236 basis functions,   444 primitive gaussians,   236 cartesian basis functions
    52 alpha electrons       52 beta electrons
       nuclear repulsion energy       931.8068114047 Hartrees.
 NAtoms=   27 NActive=   27 NUniq=   27 SFac= 1.00D+00 NAtFMM=   60 NAOKFM=F Big=F
 Integral buffers will be    131072 words long.
 Raffenetti 1 integral format.
 Two-electron integral symmetry is turned off.
 One-electron integrals computed using PRISM.
 NBasis=   236 RedAO= T EigKep=  9.91D-04  NBF=   236
 NBsUse=   236 1.00D-06 EigRej= -1.00D+00 NBFU=   236
 Initial guess from the checkpoint file:  "/home/alexey/tmp/Gau-1322325.chk"
 B after Tr=     0.053963    0.007627    0.000866
         Rot=    0.999997   -0.001231    0.000376    0.001946 Ang=  -0.27 deg.
 ExpMin= 1.61D-01 ExpMax= 5.48D+03 ExpMxC= 8.25D+02 IAcc=3 IRadAn=         5 AccDes= 0.00D+00
 Harris functional with IExCor=  205 and IRadAn=       5 diagonalized for initial guess.
 HarFok:  IExCor=  205 AccDes= 0.00D+00 IRadAn=         5 IDoV= 1 UseB2=F ITyADJ=14
 ICtDFT=  3500011 ScaDFX=  1.000000  1.000000  1.000000  1.000000
 FoFCou: FMM=F IPFlag=           0 FMFlag=      100000 FMFlg1=           0
         NFxFlg=           0 DoJE=T BraDBF=F KetDBF=T FulRan=T
         wScrn=  0.000000 ICntrl=       500 IOpCl=  0 I1Cent=   200000004 NGrid=           0
         NMat0=    1 NMatS0=      1 NMatT0=    0 NMatD0=    1 NMtDS0=    0 NMtDT0=    0
 Symmetry not used in FoFCou.
 Keep R1 ints in memory in canonical form, NReq=397720213.
 Requested convergence on RMS density matrix=1.00D-08 within 128 cycles.
 Requested convergence on MAX density matrix=1.00D-06.
 Requested convergence on             energy=1.00D-06.
 No special actions if energy rises.
 SCF Done:  E(RHF) =  -661.297456468     A.U. after   15 cycles
            NFock= 15  Conv=0.53D-08     -V/T= 2.0024
 ExpMin= 1.61D-01 ExpMax= 5.48D+03 ExpMxC= 8.25D+02 IAcc=3 IRadAn=         5 AccDes= 0.00D+00
 HarFok:  IExCor=  205 AccDes= 0.00D+00 IRadAn=         5 IDoV=-2 UseB2=F ITyADJ=14
 ICtDFT= 12500011 ScaDFX=  1.000000  1.000000  1.000000  1.000000
 Range of M.O.s used for correlation:    15   236
 NBasis=   236 NAE=    52 NBE=    52 NFC=    14 NFV=     0
 NROrb=    222 NOA=    38 NOB=    38 NVA=   184 NVB=   184
 Fully direct method using O(ONN) memory.
 JobTyp=1 Pass  1:  I=  15 to  52 NPSUse=  4 ParTrn=T ParDer=T DoDerP=T.
 Spin components of T(2) and E(2):
     alpha-alpha T2 =       0.9122157320D-01 E2=     -0.2722861867D+00
     alpha-beta  T2 =       0.4912102274D+00 E2=     -0.1487914573D+01
     beta-beta   T2 =       0.9122157320D-01 E2=     -0.2722861867D+00
 ANorm=    0.1293697559D+01
 E2 =    -0.2032486947D+01 EUMP2 =    -0.66332994341496D+03
          IDoAtm=111111111111111111111111111
          Differentiating once with respect to electric field.
                with respect to dipole field.
          Differentiating once with respect to nuclear coordinates.
 Keep R1 ints in memory in canonical form, NReq=397723379.
          There are     1 degrees of freedom in the 1st order CPHF.  IDoFFX=0 NUNeed=     1.
 LinEq1:  Iter=  0 NonCon=     1 RMS=4.57D-03 Max=1.04D-01 NDo=     1
 AX will form     1 AO Fock derivatives at one time.
 LinEq1:  Iter=  1 NonCon=     1 RMS=1.54D-03 Max=2.74D-02 NDo=     1
 LinEq1:  Iter=  2 NonCon=     1 RMS=6.47D-04 Max=1.74D-02 NDo=     1
 LinEq1:  Iter=  3 NonCon=     1 RMS=2.84D-04 Max=8.52D-03 NDo=     1
 LinEq1:  Iter=  4 NonCon=     1 RMS=8.86D-05 Max=2.09D-03 NDo=     1
 LinEq1:  Iter=  5 NonCon=     1 RMS=3.73D-05 Max=1.78D-03 NDo=     1
 LinEq1:  Iter=  6 NonCon=     1 RMS=1.43D-05 Max=5.43D-04 NDo=     1
 LinEq1:  Iter=  7 NonCon=     1 RMS=5.38D-06 Max=7.22D-05 NDo=     1
[...]
    16  C    0.000000
    17  H    3.464946   0.000000
    18  H    4.084733   2.234890   0.000000
    19  H    2.989908   4.300962   3.509498   0.000000
    20  H    4.373061   4.444286   2.878317   1.768590   0.000000
    21  H    5.096253   6.508990   5.083537   2.498995   2.520904
    22  H    5.247280   6.099787   4.310984   3.070180   2.461460
    23  H    3.696273   6.237306   5.419988   2.704157   3.842959
    24  H    5.134044   7.203226   5.935317   3.849491   4.317071
    25  H    3.821344   6.094717   5.370086   4.171386   4.985022
    26  H    4.493280   5.785843   4.485106   4.035699   4.182086
    27  H    1.090387   4.214060   5.077003   3.588147   5.150957
                   21         22         23         24         25
    21  H    0.000000
    22  H    1.758830   0.000000
    23  H    2.469400   3.062263   0.000000
    24  H    2.517403   2.459834   1.764515   0.000000
    25  H    4.312005   3.839537   2.444158   2.519687   0.000000
    26  H    3.846679   2.704399   3.060407   2.491797   1.767942
    27  H    5.658899   6.063887   4.096570   5.699416   4.455305
                   26         27
    26  H    0.000000
    27  H    5.378533   0.000000
 Symmetry turned off by external request.
 Stoichiometry    C9H13N3O2
 Framework group  C1[X(C9H13N3O2)]
 Deg. of freedom    75
 Full point group                 C1      NOp   1
 Rotational constants (GHZ):           1.6801008           0.4184757           0.3716392

 **********************************************************************

            Population analysis using the SCF Density.

 **********************************************************************

 Alpha  occ. eigenvalues --  -20.59359 -20.58400 -15.84625 -15.64262 -15.56132
 Alpha  occ. eigenvalues --  -11.35143 -11.29684 -11.29601 -11.28706 -11.27171
 Alpha  occ. eigenvalues --  -11.23781 -11.23246 -11.22724 -11.22122  -1.57024
 Alpha  occ. eigenvalues --   -1.36305  -1.31074  -1.23129  -1.14799  -1.09903
 Alpha  occ. eigenvalues --   -1.02881  -1.01362  -0.94686  -0.89631  -0.85619
 Alpha  occ. eigenvalues --   -0.82477  -0.78655  -0.77368  -0.75297  -0.72014
 Alpha  occ. eigenvalues --   -0.69602  -0.69307  -0.67872  -0.64954  -0.63798
 Alpha  occ. eigenvalues --   -0.62432  -0.60318  -0.57757  -0.57042  -0.55118
 Alpha  occ. eigenvalues --   -0.54630  -0.50796  -0.50166  -0.48821  -0.48126
 Alpha  occ. eigenvalues --   -0.47139  -0.46172  -0.45996  -0.43466  -0.41784
 Alpha  occ. eigenvalues --   -0.39881  -0.33864
 Alpha virt. eigenvalues --    0.07305   0.11833   0.17239   0.21821   0.24104
 Alpha virt. eigenvalues --    0.25646   0.27103   0.28633   0.29007   0.29604
 Alpha virt. eigenvalues --    0.30671   0.31742   0.32017   0.32738   0.33914
 Alpha virt. eigenvalues --    0.34347   0.35758   0.37205   0.38533   0.40377
 Alpha virt. eigenvalues --    0.41504   0.42369   0.44732   0.45938   0.46737
 Alpha virt. eigenvalues --    0.47052   0.49329   0.53883   0.57475   0.59321
 Alpha virt. eigenvalues --    0.63645   0.69469   0.69821   0.72787   0.74188
 Alpha virt. eigenvalues --    0.74798   0.75720   0.76615   0.78657   0.79381
 Alpha virt. eigenvalues --    0.81303   0.84673   0.85629   0.85853   0.88503
 Alpha virt. eigenvalues --    0.89401   0.91055   0.92055   0.92811   0.94470
 Alpha virt. eigenvalues --    0.95834   0.97999   0.99559   1.01609   1.02458
 Alpha virt. eigenvalues --    1.03208   1.05847   1.07042   1.07999   1.08954
 Alpha virt. eigenvalues --    1.10293   1.11489   1.11822   1.12526   1.13879
 Alpha virt. eigenvalues --    1.14725   1.14967   1.15840   1.16826   1.18688
 Alpha virt. eigenvalues --    1.19116   1.21373   1.22650   1.23885   1.24700
 Alpha virt. eigenvalues --    1.24988   1.25698   1.26993   1.27418   1.29632
 Alpha virt. eigenvalues --    1.29910   1.32721   1.35849   1.37223   1.40606
 Alpha virt. eigenvalues --    1.41381   1.45887   1.48876   1.52036   1.54211
 Alpha virt. eigenvalues --    1.56553   1.58750   1.59411   1.63375   1.65732
 Alpha virt. eigenvalues --    1.68250   1.68621   1.73185   1.74950   1.77156
 Alpha virt. eigenvalues --    1.81476   1.84434   1.87500   1.90694   1.93557
 Alpha virt. eigenvalues --    1.95753   1.97136   1.99942   2.01566   2.02415
 Alpha virt. eigenvalues --    2.05129   2.05331   2.08823   2.09550   2.12699
 Alpha virt. eigenvalues --    2.13298   2.15264   2.18720   2.19975   2.22456
 Alpha virt. eigenvalues --    2.22560   2.24630   2.25444   2.28163   2.29494
 Alpha virt. eigenvalues --    2.31776   2.33558   2.34741   2.36191   2.38422
 Alpha virt. eigenvalues --    2.40392   2.41844   2.44362   2.45142   2.47270
 Alpha virt. eigenvalues --    2.50727   2.51923   2.53080   2.55511   2.61534
 Alpha virt. eigenvalues --    2.62218   2.65020   2.67403   2.70276   2.70491
 Alpha virt. eigenvalues --    2.72161   2.72726   2.76349   2.78520   2.84569
 Alpha virt. eigenvalues --    2.88693   2.89080   2.92465   2.92928   2.95885
 Alpha virt. eigenvalues --    2.99101   3.01272   3.04090   3.05461   3.07436
 Alpha virt. eigenvalues --    3.09379   3.15006   3.21258   3.25153   3.28004
 Alpha virt. eigenvalues --    3.33293   3.37488   3.38782   3.52117   3.65849
 Alpha virt. eigenvalues --    4.13008   4.27944   4.34819   4.38941   4.46351
 Alpha virt. eigenvalues --    4.56138   4.61799   4.62328   4.73442   4.79784
 Alpha virt. eigenvalues --    4.99401   5.00867   5.05050   5.11162
          Condensed to atoms (all electrons):
               1          2          3          4          5          6
     1  O    8.308328   0.312081  -0.087950  -0.079995   0.004248  -0.000012
     2  N    0.312081   5.729497   0.297294   0.262900  -0.049821   0.000983
     3  O   -0.087950   0.297294   8.364386  -0.094268   0.002594   0.000888
     4  C   -0.079995   0.262900  -0.094268   5.220313   0.564901  -0.048683
     5  C    0.004248  -0.049821   0.002594   0.564901   4.703992   0.316718
     6  N   -0.000012   0.000983   0.000888  -0.048683   0.316718   7.197462
     7  C    0.000003  -0.000135   0.000002   0.004949  -0.029995   0.168467
     8  H   -0.000000   0.000002  -0.000000  -0.000278   0.003073  -0.050675
     9  C   -0.000000  -0.000004  -0.000000   0.000880   0.000586  -0.061609
    10  C    0.000000   0.000000   0.000000  -0.000039  -0.000050   0.003748
    11  C   -0.000000  -0.000000  -0.000000  -0.000027   0.000025  -0.000189
    12  C   -0.000000   0.000002  -0.000000  -0.000130  -0.000173   0.003869
    13  C   -0.000018  -0.000048  -0.000004  -0.011859  -0.000420  -0.047794
    14  H   -0.000003  -0.000105   0.000001   0.002655   0.006002  -0.006926
    15  N    0.000338   0.002295  -0.000019  -0.063424  -0.006088   0.001612
    16  C    0.002538  -0.030424   0.002825   0.324080  -0.050826  -0.001956
    17  H    0.000195  -0.007237   0.017656  -0.021044   0.372749  -0.034288
    18  H    0.000001  -0.000047   0.000011   0.001516  -0.031588   0.338614
    19  H    0.000000  -0.000005   0.000000  -0.001248   0.001244  -0.000360
    20  H    0.000000  -0.000000   0.000000  -0.000080   0.000151  -0.000445
    21  H   -0.000000   0.000000   0.000000   0.000001   0.000001  -0.000077
    22  H   -0.000000   0.000000  -0.000000  -0.000000  -0.000003  -0.000117
    23  H    0.000000  -0.000000   0.000000   0.000040  -0.000000  -0.000031
    24  H    0.000000   0.000000   0.000000   0.000000  -0.000000   0.000006
    25  H    0.000000  -0.000000   0.000000   0.000024   0.000000  -0.000090
    26  H    0.000000  -0.000000   0.000000   0.000006  -0.000002  -0.000059
    27  H    0.006860  -0.000933   0.000043  -0.065082   0.002176   0.000013
               7          8          9         10         11         12
     1  O    0.000003  -0.000000  -0.000000   0.000000  -0.000000  -0.000000
     2  N   -0.000135   0.000002  -0.000004   0.000000  -0.000000   0.000002
     3  O    0.000002  -0.000000  -0.000000   0.000000  -0.000000  -0.000000
     4  C    0.004949  -0.000278   0.000880  -0.000039  -0.000027  -0.000130
     5  C   -0.029995   0.003073   0.000586  -0.000050   0.000025  -0.000173
     6  N    0.168467  -0.050675  -0.061609   0.003748  -0.000189   0.003869
     7  C    5.019361   0.418337   0.350467  -0.054680  -0.009058  -0.061037
     8  H    0.418337   0.537563  -0.054975   0.000778  -0.000321  -0.002242
     9  C    0.350467  -0.054975   5.158300   0.324803  -0.050422  -0.005354
    10  C   -0.054680   0.000778   0.324803   5.119271   0.336993  -0.061008
    11  C   -0.009058  -0.000321  -0.050422   0.336993   5.119983   0.335985
    12  C   -0.061037  -0.002242  -0.005354  -0.061008   0.335985   5.118541
    13  C    0.337989  -0.037762  -0.060225  -0.000291  -0.050720   0.371856
    14  H   -0.046733  -0.000728   0.004414  -0.000404   0.004195  -0.036246
    15  N   -0.058118   0.003894  -0.014618   0.001565  -0.013028  -0.081938
    16  C   -0.001861   0.000010  -0.001271  -0.000028   0.000023   0.002684
    17  H    0.001560  -0.000043  -0.000068   0.000001   0.000000   0.000000
    18  H   -0.021185  -0.004475   0.001320  -0.000083   0.000004  -0.000114
    19  H   -0.036880   0.004355   0.390255  -0.032041  -0.002206   0.000685
    20  H   -0.042446  -0.002075   0.399506  -0.035271   0.003928  -0.000415
    21  H    0.004602  -0.000076  -0.036372   0.402457  -0.034877   0.004347
    22  H   -0.004855   0.003555  -0.046950   0.397773  -0.045388  -0.001018
    23  H    0.000580   0.000034  -0.001959  -0.039019   0.399185  -0.037855
    24  H   -0.000129  -0.000102   0.004388  -0.038430   0.402376  -0.038673
    25  H    0.005159  -0.000025  -0.000422   0.004188  -0.033379   0.398295
    26  H   -0.003916   0.001685   0.000971  -0.002232  -0.041488   0.396746
    27  H   -0.000405   0.000009  -0.000059   0.000007   0.000011  -0.000037
              13         14         15         16         17         18
     1  O   -0.000018  -0.000003   0.000338   0.002538   0.000195   0.000001
     2  N   -0.000048  -0.000105   0.002295  -0.030424  -0.007237  -0.000047
     3  O   -0.000004   0.000001  -0.000019   0.002825   0.017656   0.000011
     4  C   -0.011859   0.002655  -0.063424   0.324080  -0.021044   0.001516
     5  C   -0.000420   0.006002  -0.006088  -0.050826   0.372749  -0.031588
     6  N   -0.047794  -0.006926   0.001612  -0.001956  -0.034288   0.338614
     7  C    0.337989  -0.046733  -0.058118  -0.001861   0.001560  -0.021185
     8  H   -0.037762  -0.000728   0.003894   0.000010  -0.000043  -0.004475
     9  C   -0.060225   0.004414  -0.014618  -0.001271  -0.000068   0.001320
    10  C   -0.000291  -0.000404   0.001565  -0.000028   0.000001  -0.000083
    11  C   -0.050720   0.004195  -0.013028   0.000023   0.000000   0.000004
    12  C    0.371856  -0.036246  -0.081938   0.002684   0.000000  -0.000114
    13  C    5.040570   0.403310   0.245879  -0.071716  -0.000010   0.002973
    14  H    0.403310   0.526589  -0.037436  -0.004655   0.000091  -0.000108
    15  N    0.245879  -0.037436   6.963082   0.585617  -0.000079  -0.000133
    16  C   -0.071716  -0.004655   0.585617   4.719901   0.002065  -0.000194
    17  H   -0.000010   0.000091  -0.000079   0.002065   0.372823  -0.002828
    18  H    0.002973  -0.000108  -0.000133  -0.000194  -0.002828   0.310244
    19  H   -0.007515   0.000107   0.007682   0.003008   0.000016  -0.000149
    20  H    0.004337  -0.000066   0.000127  -0.000037   0.000002   0.000820
    21  H   -0.000433   0.000010  -0.000041   0.000004  -0.000000   0.000001
    22  H    0.000045  -0.000055   0.000019  -0.000002   0.000000   0.000001
    23  H   -0.007524   0.000002   0.008570   0.000101   0.000000   0.000000
    24  H    0.004701  -0.000057   0.000134   0.000007   0.000000  -0.000000
    25  H   -0.035563  -0.002825   0.000421  -0.000021  -0.000000   0.000002
    26  H   -0.047420  -0.001046   0.004891  -0.000063   0.000000  -0.000000
    27  H    0.005084  -0.000173  -0.039572   0.403875  -0.000079   0.000001
              19         20         21         22         23         24
     1  O    0.000000   0.000000  -0.000000  -0.000000   0.000000   0.000000
     2  N   -0.000005  -0.000000   0.000000   0.000000  -0.000000   0.000000
     3  O    0.000000   0.000000   0.000000  -0.000000   0.000000   0.000000
     4  C   -0.001248  -0.000080   0.000001  -0.000000   0.000040   0.000000
     5  C    0.001244   0.000151   0.000001  -0.000003  -0.000000  -0.000000
     6  N   -0.000360  -0.000445  -0.000077  -0.000117  -0.000031   0.000006
     7  C   -0.036880  -0.042446   0.004602  -0.004855   0.000580  -0.000129
     8  H    0.004355  -0.002075  -0.000076   0.003555   0.000034  -0.000102
     9  C    0.390255   0.399506  -0.036372  -0.046950  -0.001959   0.004388
    10  C   -0.032041  -0.035271   0.402457   0.397773  -0.039019  -0.038430
    11  C   -0.002206   0.003928  -0.034877  -0.045388   0.399185   0.402376
    12  C    0.000685  -0.000415   0.004347  -0.001018  -0.037855  -0.038673
    13  C   -0.007515   0.004337  -0.000433   0.000045  -0.007524   0.004701
    14  H    0.000107  -0.000066   0.000010  -0.000055   0.000002  -0.000057
    15  N    0.007682   0.000127  -0.000041   0.000019   0.008570   0.000134
    16  C    0.003008  -0.000037   0.000004  -0.000002   0.000101   0.000007
    17  H    0.000016   0.000002  -0.000000   0.000000   0.000000   0.000000
    18  H   -0.000149   0.000820   0.000001   0.000001   0.000000  -0.000000
    19  H    0.504625  -0.024713  -0.002788   0.003956   0.001513  -0.000066
    20  H   -0.024713   0.540966  -0.002691  -0.002987  -0.000045  -0.000083
    21  H   -0.002788  -0.002691   0.523748  -0.027373  -0.002895  -0.002241
    22  H    0.003956  -0.002987  -0.027373   0.571117   0.004135  -0.003654
    23  H    0.001513  -0.000045  -0.002895   0.004135   0.498869  -0.025434
    24  H   -0.000066  -0.000083  -0.002241  -0.003654  -0.025434   0.537856
    25  H   -0.000029   0.000012  -0.000086  -0.000080  -0.002315  -0.002292
    26  H    0.000019  -0.000030  -0.000081   0.002379   0.004066  -0.003034
    27  H    0.000086   0.000000  -0.000000   0.000000  -0.000035  -0.000000
              25         26         27
     1  O    0.000000   0.000000   0.006860
     2  N   -0.000000  -0.000000  -0.000933
     3  O    0.000000   0.000000   0.000043
     4  C    0.000024   0.000006  -0.065082
     5  C    0.000000  -0.000002   0.002176
     6  N   -0.000090  -0.000059   0.000013
     7  C    0.005159  -0.003916  -0.000405
     8  H   -0.000025   0.001685   0.000009
     9  C   -0.000422   0.000971  -0.000059
    10  C    0.004188  -0.002232   0.000007
    11  C   -0.033379  -0.041488   0.000011
    12  C    0.398295   0.396746  -0.000037
    13  C   -0.035563  -0.047420   0.005084
    14  H   -0.002825  -0.001046  -0.000173
    15  N    0.000421   0.004891  -0.039572
    16  C   -0.000021  -0.000063   0.403875
    17  H   -0.000000   0.000000  -0.000079
    18  H    0.000002  -0.000000   0.000001
    19  H   -0.000029   0.000019   0.000086
    20  H    0.000012  -0.000030   0.000000
    21  H   -0.000086  -0.000081  -0.000000
    22  H   -0.000080   0.002379   0.000000
    23  H   -0.002315   0.004066  -0.000035
    24  H   -0.002292  -0.003034  -0.000000
    25  H    0.505896  -0.024068  -0.000013
    26  H   -0.024068   0.562251   0.000001
    27  H   -0.000013   0.000001   0.439746
 Mulliken charges:
               1
     1  O   -0.466613
     2  N    0.483707
     3  O   -0.503458
     4  C    0.003893
     5  C    0.190507
     6  N   -0.779070
     7  C    0.059957
     8  H    0.180483
     9  C   -0.301583
    10  C   -0.328010
    11  C   -0.321608
    12  C   -0.306770
    13  C   -0.037423
    14  H    0.190189
    15  N   -0.511631
    16  C    0.116314
    17  H    0.298518
    18  H    0.405397
    19  H    0.190447
    20  H    0.161535
    21  H    0.174861
    22  H    0.149501
    23  H    0.200018
    24  H    0.164728
    25  H    0.187209
    26  H    0.150424
    27  H    0.248477
 Sum of Mulliken charges =  -0.00000
 Mulliken charges with hydrogens summed into heavy atoms:
               1
     1  O   -0.466613
     2  N    0.483707
     3  O   -0.503458
     4  C    0.003893
     5  C    0.489025
     6  N   -0.373672
     7  C    0.240440
     9  C    0.050398
    10  C   -0.003647
    11  C    0.043138
    12  C    0.030863
    13  C    0.152766
    15  N   -0.511631
    16  C    0.364792
 Electronic spatial extent (au):  <R**2>=           3009.6903
 Charge=             -0.0000 electrons
 Dipole moment (field-independent basis, Debye):
    X=              5.5369    Y=              4.7697    Z=              1.3185  Tot=              7.4260
 Quadrupole moment (field-independent basis, Debye-Ang):
   XX=           -106.6912   YY=            -79.1107   ZZ=            -81.5256
   XY=             -1.6044   XZ=             -0.3043   YZ=              1.8070
 Traceless Quadrupole moment (field-independent basis, Debye-Ang):
   XX=            -17.5820   YY=              9.9985   ZZ=              7.5836
   XY=             -1.6044   XZ=             -0.3043   YZ=              1.8070
 Octapole moment (field-independent basis, Debye-Ang**2):
  XXX=             95.3943  YYY=             36.4609  ZZZ=             -1.1405  XYY=             -4.7149
  XXY=              9.2319  XXZ=              5.8145  XZZ=             -9.5273  YZZ=             -0.2732
  YYZ=              8.2484  XYZ=              0.4044
 Hexadecapole moment (field-independent basis, Debye-Ang**3):
 XXXX=          -3397.2328 YYYY=           -600.1481 ZZZZ=           -304.4723 XXXY=            -21.4389
 XXXZ=            -20.4716 YYYX=             -9.5632 YYYZ=             24.3499 ZZZX=             -1.6413
 ZZZY=              6.4806 XXYY=           -627.9888 XXZZ=           -525.2022 YYZZ=           -157.3817
 XXYZ=             -5.0189 YYXZ=              0.1089 ZZXY=              4.2635
 N-N= 9.309935392201D+02 E-N=-3.408694130102D+03  KE= 6.596320573066D+02
 Unable to Open any file for archive entry.
 1\1\GINC-LOTUS\FOpt\RMP2-FC\6-31G(d)\C9H13N3O2\ALEXEY\01-Jul-2023\0\\#
 MP2/6-31G* SCF=Tight Opt=(ModRedun, MaxCycle=20 ) NoSymm\\MolName:\\0,
 1\O,-3.5537187873,-1.3788337085,-0.3981521657\N,-3.1145867215,-0.24461
 65083,-0.1347989373\O,-3.8714087005,0.7341028485,0.0442404916\C,-1.685
 7531795,-0.0240652726,-0.0047884435\C,-1.3028016965,1.2617097461,0.278
 2777297\N,-0.0576490595,1.747118192,0.3920266959\C,1.2061478989,1.0219
 922074,0.3629775361\H,1.8536677483,1.5516623375,1.0779363255\C,1.90783
 02987,1.035332648,-0.9937873625\C,3.3071527893,0.4302841423,-0.8316688
 556\C,3.2615384958,-0.966436057,-0.2062376845\C,2.4678784485,-0.979133
 9996,1.1020297212\C,1.0572049951,-0.4271407014,0.8672760347\H,0.481458
 5427,-0.4077991722,1.806140367\N,0.4106875052,-1.3202567565,-0.0890359
 275\C,-0.8372475579,-1.1378873962,-0.3800834381\H,-2.0959545322,1.9902
 957458,0.4173999906\H,0.0023392629,2.7328871383,0.6185358975\H,1.31356
 69595,0.457649825,-1.7096726243\H,1.9721168075,2.0636634122,-1.3706403
 42\H,3.8099303441,0.3936677613,-1.8048193868\H,3.9068207113,1.09677397
 19,-0.1955532429\H,2.7840611113,-1.6632155074,-0.9021800076\H,4.281321
 2767,-1.3287737386,-0.0304734589\H,2.384193598,-2.0013990553,1.4852132
 468\H,2.9777395204,-0.3811263235,1.8699716313\H,-1.3045260792,-1.89445
 57792,-1.0111137905\\Version=ES64L-G16RevC.02\HF=-661.2997265\MP2=-663
 .3338766\RMSD=8.571e-09\RMSF=2.570e-03\Dipole=2.0207963,1.689289,0.484
 5736\PG=C01 [X(C9H13N3O2)]\\@
 The archive entry for this job was punched.


 SOME PHYSICISTS WOULD PREFER TO COME BACK TO THE IDEA OF AN OBJECTIVE
 REAL WORLD WHOSE SMALLEST PARTS EXIST OBJECTIVELY IN THE SAME SENSE AS
 STONES OR TREES EXIST INDEPENDENTLY OF WHETHER WE OBSERVE THEM.
 THIS, HOWEVER, IS IMPOSSIBLE.  -- WERNER HEISENBERG
 Job cpu time:       0 days  1 hours  4 minutes 51.9 seconds.
 Elapsed time:       0 days  0 hours 19 minutes 32.6 seconds.
 File lengths (MBytes):  RWF=     36 Int=      0 D2E=      0 Chk=      7 Scr=      1
 Normal termination of Gaussian 16 at Sat Jul  1 12:34:14 2023.
