 Entering Gaussian System, Link 0=g16
 Initial command:
 /home/alexey/programs//g16/l1.exe "/home/alexey/tmp/Gau-1324750.inp" -scrdir="/home/alexey/tmp/"
 Entering Link 1 = /home/alexey/programs//g16/l1.exe PID=   1324752.
  
 Copyright (c) 1988-2021, Gaussian, Inc.  All Rights Reserved.
  
 This is part of the Gaussian(R) 16 program.  It is based on
 the Gaussian(R) 09 system (copyright 2009, Gaussian, Inc.),
 the Gaussian(R) 03 system (copyright 2003, Gaussian, Inc.),
 the Gaussian(R) 98 system (copyright 1998, Gaussian, Inc.),
 the Gaussian(R) 94 system (copyright 1995, Gaussian, Inc.),
 the Gaussian 92(TM) system (copyright 1992, Gaussian, Inc.),
 the Gaussian 90(TM) system (copyright 1990, Gaussian, Inc.),
 the Gaussian 88(TM) system (copyright 1988, Gaussian, Inc.),
 the Gaussian 86(TM) system (copyright 1986, Carnegie Mellon
 University), and the Gaussian 82(TM) system (copyright 1983,
 Carnegie Mellon University). Gaussian is a federally registered
 trademark of Gaussian, Inc.
  
 This software contains proprietary and confidential information,
 including trade secrets, belonging to Gaussian, Inc.
  
 This software is provided under written license and may be
 used, copied, transmitted, or stored only in accord with that
 written license.
  
 The following legend is applicable only to US Government
 contracts under FAR:
  
                    RESTRICTED RIGHTS LEGEND
  
 Use, reproduction and disclosure by the US Government is
 subject to restrictions as set forth in subparagraphs (a)
 and (c) of the Commercial Computer Software - Restricted
 Rights clause in FAR 52.227-19.
  
 Gaussian, Inc.
 340 Quinnipiac St., Bldg. 40, Wallingford CT 06492
  
  
 ---------------------------------------------------------------
 Warning -- This program may not be used in any manner that
 competes with the business of Gaussian, Inc. or will provide
 assistance to any competitor of Gaussian, Inc.  The licensee
 of this program is prohibited from giving any competitor of
 Gaussian, Inc. access to this program.  By using this program,
 the user acknowledges that Gaussian, Inc. is engaged in the
 business of creating and licensing software in the field of
 computational chemistry and represents and warrants to the
 licensee that it is not a competitor of Gaussian, Inc. and that
 it will not use this program in any manner prohibited above.
 ---------------------------------------------------------------
  

 Cite this work as:
 Gaussian 16, Revision C.02,
 M. J. Frisch, G. W. Trucks, H. B. Schlegel, G. E. Scuseria, 
 M. A. Robb, J. R. Cheeseman, G. Scalmani, V. Barone, 
 G. A. Petersson, H. Nakatsuji, X. Li, M. Caricato, A. V. Marenich, 
 J. Bloino, B. G. Janesko, R. Gomperts, B. Mennucci, H. P. Hratchian, 
 J. V. Ortiz, A. F. Izmaylov, J. L. Sonnenberg, D. Williams-Young, 
 F. Ding, F. Lipparini, F. Egidi, J. Goings, B. Peng, A. Petrone, 
 T. Henderson, D. Ranasinghe, V. G. Zakrzewski, J. Gao, N. Rega, 
 G. Zheng, W. Liang, M. Hada, M. Ehara, K. Toyota, R. Fukuda, 
 J. Hasegawa, M. Ishida, T. Nakajima, Y. Honda, O. Kitao, H. Nakai, 
 T. Vreven, K. Throssell, J. A. Montgomery, Jr., J. E. Peralta, 
 F. Ogliaro, M. J. Bearpark, J. J. Heyd, E. N. Brothers, K. N. Kudin, 
 V. N. Staroverov, T. A. Keith, R. Kobayashi, J. Normand, 
 K. Raghavachari, A. P. Rendell, J. C. Burant, S. S. Iyengar, 
 J. Tomasi, M. Cossi, J. M. Millam, M. Klene, C. Adamo, R. Cammi, 
 J. W. Ochterski, R. L. Martin, K. Morokuma, O. Farkas, 
 J. B. Foresman, and D. J. Fox, Gaussian, Inc., Wallingford CT, 2019.
 
 ******************************************
 Gaussian 16:  ES64L-G16RevC.02  7-Dec-2021
                 1-Jul-2023 
 ******************************************
 %mem=8GB
 %NPROCS=4
 Will use up to    4 processors via shared memory.
 %NoSave
 ---------------------------------------------------------
 #MP2/6-31G* SCF=Tight Opt=(ModRedun, MaxCycle=20 ) NoSymm
 ---------------------------------------------------------
 1/6=20,18=120,19=15,38=1/1,3;
 2/9=110,12=2,15=1,17=6,18=5,40=1/2;
 3/5=1,6=6,7=1,11=9,25=1,30=1,71=1/1,2,3;
 4//1;
 5/5=2,32=2,38=5/2;
 8/6=4,10=2/1;
 9/15=2,16=-3/6;
 10/5=1,31=1/2;
 6/7=2,8=2,9=2,10=2/1;
 7/12=2,30=1/1,2,3,16;
 1/6=20,18=20,19=15/3(2);
 2/9=110,15=1/2;
 99//99;
 2/9=110,15=1/2;
 3/5=1,6=6,7=1,11=9,25=1,30=1,71=1/1,2,3;
 4/5=5,16=3,69=1/1;
 5/5=2,32=2,38=5/2;
 8/6=4,10=2/1;
 9/15=2,16=-3/6;
 10/5=1,31=1/2;
 7/12=2,30=1/1,2,3,16;
 1/6=20,18=20,19=15/3(-8);
 2/9=110,15=1/2;
 6/7=2,8=2,9=2,10=2/1;
 99/9=10/99;
 --------
 MolName:
 --------
 Symbolic Z-matrix:
 Charge =  0 Multiplicity = 1
 8                    0    -3.69059  -1.44932  -0.19695 
 7                    0    -3.24272  -0.31559  -0.04043 
 8                    0    -3.99832   0.64582   0.10968 
 6                    0    -1.7545    0.01219  -0.04312 
 6                    0    -1.36643   1.32012   0.27557 
 7                    0    -0.07795   1.77276   0.39452 
 6                    0     1.19987   0.998     0.3644 
 1                    0     1.86383   1.49246   1.12027 
 6                    0     1.96586   1.05149  -0.98102 
 6                    0     3.37635   0.4613   -0.79186 
 6                    0     3.31056  -0.95629  -0.20181 
 6                    0     2.46078  -0.99186   1.08677 
 6                    0     1.02532  -0.45207   0.84013 
 1                    0     0.47551  -0.49256   1.80964 
 7                    0     0.36833  -1.31754  -0.14238 
 6                    0    -0.8724   -1.11185  -0.44093 
 1                    0    -2.15403   2.05906   0.49741 
 1                    0     0.15566   2.75518   0.23154 
 1                    0     1.41596   0.47846  -1.75762 
 1                    0     2.05495   2.10235  -1.32947 
 1                    0     3.91208   0.43905  -1.76606 
 1                    0     3.95416   1.11174  -0.0978 
 1                    0     2.86263  -1.64232  -0.95579 
 1                    0     4.33746  -1.32312   0.01528 
 1                    0     2.39961  -2.03914   1.45581 
 1                    0     2.95545  -0.38423   1.87326 
 1                    0    -1.37641  -1.86005  -1.07205 
 
 The following ModRedundant input section has been read:
 A       1       2       4 F                                                   
 D       1       2       4      16 F                                           
 D       7      13      15      16 F                                           
 D       7       9      10      11 F                                           
 D       9      10      11      12 F                                           
 D       6       7      13      15 F                                           
 

 GradGradGradGradGradGradGradGradGradGradGradGradGradGradGradGradGradGrad
 Berny optimization.
 Initialization pass.
                           ----------------------------
                           !    Initial Parameters    !
                           ! (Angstroms and Degrees)  !
 --------------------------                            --------------------------
 ! Name  Definition              Value          Derivative Info.                !
 --------------------------------------------------------------------------------
 ! R1    R(1,2)                  1.229          estimate D2E/DX2                !
 ! R2    R(2,3)                  1.232          estimate D2E/DX2                !
 ! R3    R(2,4)                  1.5239         estimate D2E/DX2                !
 ! R4    R(4,5)                  1.401          estimate D2E/DX2                !
 ! R5    R(4,16)                 1.4832         estimate D2E/DX2                !
 ! R6    R(5,6)                  1.3708         estimate D2E/DX2                !
 ! R7    R(5,17)                 1.1025         estimate D2E/DX2                !
 ! R8    R(6,7)                  1.4947         estimate D2E/DX2                !
 ! R9    R(6,18)                 1.0229         estimate D2E/DX2                !
 ! R10   R(7,8)                  1.121          estimate D2E/DX2                !
 ! R11   R(7,9)                  1.5491         estimate D2E/DX2                !
 ! R12   R(7,13)                 1.5361         estimate D2E/DX2                !
 ! R13   R(9,10)                 1.5406         estimate D2E/DX2                !
 ! R14   R(9,19)                 1.1108         estimate D2E/DX2                !
 ! R15   R(9,20)                 1.1107         estimate D2E/DX2                !
 ! R16   R(10,11)                1.5369         estimate D2E/DX2                !
 ! R17   R(10,21)                1.112          estimate D2E/DX2                !
 ! R18   R(10,22)                1.1129         estimate D2E/DX2                !
 ! R19   R(11,12)                1.544          estimate D2E/DX2                !
 ! R20   R(11,23)                1.1134         estimate D2E/DX2                !
 ! R21   R(11,24)                1.1119         estimate D2E/DX2                !
 ! R22   R(12,13)                1.5533         estimate D2E/DX2                !
 ! R23   R(12,25)                1.1121         estimate D2E/DX2                !
 ! R24   R(12,26)                1.1102         estimate D2E/DX2                !
 ! R25   R(13,14)                1.1153         estimate D2E/DX2                !
 ! R26   R(13,15)                1.4649         estimate D2E/DX2                !
 ! R27   R(15,16)                1.2926         estimate D2E/DX2                !
 ! R28   R(16,27)                1.101          estimate D2E/DX2                !
 ! A1    A(1,2,3)              120.7904         estimate D2E/DX2                !
 ! A2    A(1,2,4)              123.6477         Frozen                          !
 ! A3    A(3,2,4)              115.5517         estimate D2E/DX2                !
 ! A4    A(2,4,5)              118.0934         estimate D2E/DX2                !
 ! A5    A(2,4,16)             114.7259         estimate D2E/DX2                !
 ! A6    A(5,4,16)             127.1411         estimate D2E/DX2                !
 ! A7    A(4,5,6)              126.0393         estimate D2E/DX2                !
 ! A8    A(4,5,17)             118.2678         estimate D2E/DX2                !
 ! A9    A(6,5,17)             115.6377         estimate D2E/DX2                !
 ! A10   A(5,6,7)              129.0986         estimate D2E/DX2                !
 ! A11   A(5,6,18)             121.196          estimate D2E/DX2                !
 ! A12   A(7,6,18)             107.4208         estimate D2E/DX2                !
 ! A13   A(6,7,8)              105.3156         estimate D2E/DX2                !
 ! A14   A(6,7,9)              114.9824         estimate D2E/DX2                !
 ! A15   A(6,7,13)             112.7024         estimate D2E/DX2                !
 ! A16   A(8,7,9)              106.112          estimate D2E/DX2                !
 ! A17   A(8,7,13)             105.9541         estimate D2E/DX2                !
 ! A18   A(9,7,13)             110.9632         estimate D2E/DX2                !
 ! A19   A(7,9,10)             109.4408         estimate D2E/DX2                !
 ! A20   A(7,9,19)             110.1579         estimate D2E/DX2                !
 ! A21   A(7,9,20)             110.1696         estimate D2E/DX2                !
 ! A22   A(10,9,19)            109.9651         estimate D2E/DX2                !
 ! A23   A(10,9,20)            109.1186         estimate D2E/DX2                !
 ! A24   A(19,9,20)            107.9661         estimate D2E/DX2                !
 ! A25   A(9,10,11)            111.1794         estimate D2E/DX2                !
 ! A26   A(9,10,21)            109.9481         estimate D2E/DX2                !
 ! A27   A(9,10,22)            109.1471         estimate D2E/DX2                !
 ! A28   A(11,10,21)           109.7862         estimate D2E/DX2                !
 ! A29   A(11,10,22)           108.7756         estimate D2E/DX2                !
 ! A30   A(21,10,22)           107.9334         estimate D2E/DX2                !
 ! A31   A(10,11,12)           111.4217         estimate D2E/DX2                !
 ! A32   A(10,11,23)           108.9987         estimate D2E/DX2                !
 ! A33   A(10,11,24)           109.8611         estimate D2E/DX2                !
 ! A34   A(12,11,23)           109.2408         estimate D2E/DX2                !
 ! A35   A(12,11,24)           109.7416         estimate D2E/DX2                !
 ! A36   A(23,11,24)           107.4871         estimate D2E/DX2                !
 ! A37   A(11,12,13)           111.5989         estimate D2E/DX2                !
 ! A38   A(11,12,25)           109.2036         estimate D2E/DX2                !
 ! A39   A(11,12,26)           109.4757         estimate D2E/DX2                !
 ! A40   A(13,12,25)           109.2154         estimate D2E/DX2                !
 ! A41   A(13,12,26)           109.5155         estimate D2E/DX2                !
 ! A42   A(25,12,26)           107.7493         estimate D2E/DX2                !
 ! A43   A(7,13,12)            105.7964         estimate D2E/DX2                !
 ! A44   A(7,13,14)            111.0704         estimate D2E/DX2                !
 ! A45   A(7,13,15)            113.6386         estimate D2E/DX2                !
 ! A46   A(12,13,14)           107.7538         estimate D2E/DX2                !
 ! A47   A(12,13,15)           108.3997         estimate D2E/DX2                !
 ! A48   A(14,13,15)           109.9064         estimate D2E/DX2                !
 ! A49   A(13,15,16)           119.431          estimate D2E/DX2                !
 ! A50   A(4,16,15)            129.0141         estimate D2E/DX2                !
 ! A51   A(4,16,27)            113.3605         estimate D2E/DX2                !
 ! A52   A(15,16,27)           117.6242         estimate D2E/DX2                !
 ! D1    D(1,2,4,5)           -173.8698         estimate D2E/DX2                !
 ! D2    D(1,2,4,16)             8.2578         Frozen                          !
 ! D3    D(3,2,4,5)              7.2855         estimate D2E/DX2                !
 ! D4    D(3,2,4,16)          -170.5869         estimate D2E/DX2                !
 ! D5    D(2,4,5,6)            176.1445         estimate D2E/DX2                !
 ! D6    D(2,4,5,17)            -1.0242         estimate D2E/DX2                !
 ! D7    D(16,4,5,6)            -6.2799         estimate D2E/DX2                !
 ! D8    D(16,4,5,17)          176.5514         estimate D2E/DX2                !
 ! D9    D(2,4,16,15)         -154.9645         estimate D2E/DX2                !
 ! D10   D(2,4,16,27)           24.6154         estimate D2E/DX2                !
 ! D11   D(5,4,16,15)           27.3902         estimate D2E/DX2                !
 ! D12   D(5,4,16,27)         -153.03           estimate D2E/DX2                !
 ! D13   D(4,5,6,7)             -7.0928         estimate D2E/DX2                !
 ! D14   D(4,5,6,18)           153.4799         estimate D2E/DX2                !
 ! D15   D(17,5,6,7)           170.1413         estimate D2E/DX2                !
 ! D16   D(17,5,6,18)          -29.286          estimate D2E/DX2                !
 ! D17   D(5,6,7,8)           -142.5558         estimate D2E/DX2                !
 ! D18   D(5,6,7,9)            101.0186         estimate D2E/DX2                !
 ! D19   D(5,6,7,13)           -27.5004         estimate D2E/DX2                !
 ! D20   D(18,6,7,8)            54.7932         estimate D2E/DX2                !
 ! D21   D(18,6,7,9)           -61.6323         estimate D2E/DX2                !
 ! D22   D(18,6,7,13)          169.8487         estimate D2E/DX2                !
 ! D23   D(6,7,9,10)           168.7148         estimate D2E/DX2                !
 ! D24   D(6,7,9,19)           -70.2685         estimate D2E/DX2                !
 ! D25   D(6,7,9,20)            48.7368         estimate D2E/DX2                !
 ! D26   D(8,7,9,10)            52.7446         estimate D2E/DX2                !
 ! D27   D(8,7,9,19)           173.7613         estimate D2E/DX2                !
 ! D28   D(8,7,9,20)           -67.2334         estimate D2E/DX2                !
 ! D29   D(13,7,9,10)          -61.9042         estimate D2E/DX2                !
 ! D30   D(13,7,9,19)           59.1126         estimate D2E/DX2                !
 ! D31   D(13,7,9,20)          178.1178         estimate D2E/DX2                !
 ! D32   D(6,7,13,12)         -166.1679         estimate D2E/DX2                !
 ! D33   D(6,7,13,14)          -49.5142         estimate D2E/DX2                !
 ! D34   D(6,7,13,15)           75.0224         Frozen                          !
 ! D35   D(8,7,13,12)          -51.4981         estimate D2E/DX2                !
 ! D36   D(8,7,13,14)           65.1556         estimate D2E/DX2                !
 ! D37   D(8,7,13,15)         -170.3077         estimate D2E/DX2                !
 ! D38   D(9,7,13,12)           63.2494         estimate D2E/DX2                !
 ! D39   D(9,7,13,14)          179.9031         estimate D2E/DX2                !
 ! D40   D(9,7,13,15)          -55.5603         estimate D2E/DX2                !
 ! D41   D(7,9,10,11)           54.8116         Frozen                          !
 ! D42   D(7,9,10,21)          176.6032         estimate D2E/DX2                !
 ! D43   D(7,9,10,22)          -65.183          estimate D2E/DX2                !
 ! D44   D(19,9,10,11)         -66.3219         estimate D2E/DX2                !
 ! D45   D(19,9,10,21)          55.4697         estimate D2E/DX2                !
 ! D46   D(19,9,10,22)         173.6835         estimate D2E/DX2                !
 ! D47   D(20,9,10,11)         175.4317         estimate D2E/DX2                !
 ! D48   D(20,9,10,21)         -62.7768         estimate D2E/DX2                !
 ! D49   D(20,9,10,22)          55.437          estimate D2E/DX2                !
 ! D50   D(9,10,11,12)         -52.8221         Frozen                          !
 ! D51   D(9,10,11,23)          67.8064         estimate D2E/DX2                !
 ! D52   D(9,10,11,24)        -174.6597         estimate D2E/DX2                !
 ! D53   D(21,10,11,12)       -174.7079         estimate D2E/DX2                !
 ! D54   D(21,10,11,23)        -54.0794         estimate D2E/DX2                !
 ! D55   D(21,10,11,24)         63.4545         estimate D2E/DX2                !
 ! D56   D(22,10,11,12)         67.3927         estimate D2E/DX2                !
 ! D57   D(22,10,11,23)       -171.9788         estimate D2E/DX2                !
 ! D58   D(22,10,11,24)        -54.4449         estimate D2E/DX2                !
 ! D59   D(10,11,12,13)         56.6072         estimate D2E/DX2                !
 ! D60   D(10,11,12,25)        177.453          estimate D2E/DX2                !
 ! D61   D(10,11,12,26)        -64.7991         estimate D2E/DX2                !
 ! D62   D(23,11,12,13)        -63.8792         estimate D2E/DX2                !
 ! D63   D(23,11,12,25)         56.9666         estimate D2E/DX2                !
 ! D64   D(23,11,12,26)        174.7146         estimate D2E/DX2                !
 ! D65   D(24,11,12,13)        178.5139         estimate D2E/DX2                !
 ! D66   D(24,11,12,25)        -60.6402         estimate D2E/DX2                !
 ! D67   D(24,11,12,26)         57.1077         estimate D2E/DX2                !
 ! D68   D(11,12,13,7)         -60.3218         estimate D2E/DX2                !
 ! D69   D(11,12,13,14)       -179.196          estimate D2E/DX2                !
 ! D70   D(11,12,13,15)         61.9042         estimate D2E/DX2                !
 ! D71   D(25,12,13,7)         178.8393         estimate D2E/DX2                !
 ! D72   D(25,12,13,14)         59.9651         estimate D2E/DX2                !
 ! D73   D(25,12,13,15)        -58.9347         estimate D2E/DX2                !
 ! D74   D(26,12,13,7)          61.0614         estimate D2E/DX2                !
 ! D75   D(26,12,13,14)        -57.8128         estimate D2E/DX2                !
 ! D76   D(26,12,13,15)       -176.7126         estimate D2E/DX2                !
 ! D77   D(7,13,15,16)         -67.1599         Frozen                          !
 ! D78   D(12,13,15,16)        175.533          estimate D2E/DX2                !
 ! D79   D(14,13,15,16)         58.0014         estimate D2E/DX2                !
 ! D80   D(13,15,16,4)           7.9432         estimate D2E/DX2                !
 ! D81   D(13,15,16,27)       -171.6215         estimate D2E/DX2                !
 --------------------------------------------------------------------------------
 Trust Radius=3.00D-01 FncErr=1.00D-07 GrdErr=1.00D-07 EigMax=2.50D+02 EigMin=1.00D-04
 Number of steps in this run=     20 maximum allowed number of steps=    162.
 GradGradGradGradGradGradGradGradGradGradGradGradGradGradGradGradGradGrad

                          Input orientation:                          
 ---------------------------------------------------------------------
 Center     Atomic      Atomic             Coordinates (Angstroms)
 Number     Number       Type             X           Y           Z
 ---------------------------------------------------------------------
      1          8           0       -3.690590   -1.449320   -0.196950
      2          7           0       -3.242720   -0.315590   -0.040430
      3          8           0       -3.998320    0.645820    0.109680
      4          6           0       -1.754500    0.012190   -0.043120
      5          6           0       -1.366430    1.320120    0.275570
      6          7           0       -0.077950    1.772760    0.394520
      7          6           0        1.199870    0.998000    0.364400
      8          1           0        1.863830    1.492460    1.120270
      9          6           0        1.965860    1.051490   -0.981020
     10          6           0        3.376350    0.461300   -0.791860
     11          6           0        3.310560   -0.956290   -0.201810
     12          6           0        2.460780   -0.991860    1.086770
     13          6           0        1.025320   -0.452070    0.840130
     14          1           0        0.475510   -0.492560    1.809640
     15          7           0        0.368330   -1.317540   -0.142380
     16          6           0       -0.872400   -1.111850   -0.440930
     17          1           0       -2.154030    2.059060    0.497410
     18          1           0        0.155660    2.755180    0.231540
     19          1           0        1.415960    0.478460   -1.757620
     20          1           0        2.054950    2.102350   -1.329470
     21          1           0        3.912080    0.439050   -1.766060
     22          1           0        3.954160    1.111740   -0.097800
     23          1           0        2.862630   -1.642320   -0.955790
     24          1           0        4.337460   -1.323120    0.015280
     25          1           0        2.399610   -2.039140    1.455810
     26          1           0        2.955450   -0.384230    1.873260
     27          1           0       -1.376410   -1.860050   -1.072050
 ---------------------------------------------------------------------
                    Distance matrix (angstroms):
                    1          2          3          4          5
     1  O    0.000000
     2  N    1.228995   0.000000
     3  O    2.139704   1.231980   0.000000
     4  C    2.430662   1.523892   2.336571   0.000000
     5  C    3.646203   2.509157   2.721956   1.401015   0.000000
     6  N    4.876762   3.816563   4.089062   2.470214   1.370844
     7  C    5.497371   4.650378   5.216329   3.141050   2.587962
     8  H    6.421894   5.540137   6.008568   4.078846   3.343322
     9  C    6.234119   5.466527   6.076647   3.975032   3.571461
    10  C    7.344796   6.706735   7.431862   5.204607   4.936693
    11  C    7.018490   6.586503   7.488892   5.159260   5.223425
    12  C    6.300521   5.853019   6.734736   4.478097   4.544319
    13  C    4.930502   4.360066   5.193831   2.953484   3.029827
    14  H    4.722095   4.156839   4.919444   2.942862   3.005316
    15  N    4.061425   3.748864   4.794366   2.506879   3.184545
    16  C    2.848790   2.532360   3.628216   1.483179   2.583005
    17  H    3.892542   2.667111   2.355629   2.154408   1.102524
    18  H    5.714461   4.588309   4.660451   3.353825   2.092389
    19  H    5.677048   5.028176   5.729681   3.634382   3.547386
    20  H    6.848955   5.964341   6.390204   4.531597   3.859259
    21  H    7.989283   7.398543   8.132379   5.938086   5.727757
    22  H    8.062944   7.337278   7.968818   5.813845   5.337743
    23  H    6.599832   6.314538   7.310502   4.988813   5.308224
    24  H    8.031846   7.647048   8.565679   6.236861   6.291965
    25  H    6.337984   6.086481   7.067856   4.869433   5.182726
    26  H    7.042019   6.487236   7.247492   5.100323   4.912847
    27  H    2.507973   2.633004   3.814483   2.169546   3.453934
                    6          7          8          9         10
     6  N    0.000000
     7  C    1.494652   0.000000
     8  H    2.091839   1.121014   0.000000
     9  C    2.567002   1.549115   2.149485   0.000000
    10  C    3.880672   2.522310   2.647121   1.540645   0.000000
    11  C    4.391506   2.931698   3.136447   2.539009   1.536896
    12  C    3.816737   2.463992   2.555253   2.948895   2.545426
    13  C    2.523022   1.536063   2.136065   2.542026   3.004160
    14  H    2.727738   2.198905   2.518525   3.520372   4.011549
    15  N    3.168183   2.511973   3.424457   2.977872   3.554473
    16  C    3.106461   3.065017   4.087387   3.609357   4.544208
    17  H    2.098252   3.520254   4.105142   4.491597   5.899166
    18  H    1.022881   2.048343   2.302639   2.765806   4.084370
    19  H    2.922103   2.195355   3.083996   1.110793   2.185433
    20  H    2.762252   2.195438   2.531742   1.110703   2.174435
    21  H    4.729400   3.493904   3.692682   2.186125   1.112010
    22  H    4.115488   2.795117   2.449106   2.176475   1.112949
    23  H    4.704585   3.388062   3.890305   2.839268   2.171635
    24  H    5.405936   3.918412   3.907344   3.500839   2.181596
    25  H    4.668535   3.443076   3.587735   3.959580   3.501177
    26  H    4.005096   2.696160   2.297954   3.344771   2.827533
    27  H    4.127243   4.107196   5.152159   4.433522   5.296782
                   11         12         13         14         15
    11  C    0.000000
    12  C    1.543966   0.000000
    13  C    2.561679   1.553303   0.000000
    14  H    3.506920   2.170976   1.115294   0.000000
    15  N    2.964920   2.448515   1.464923   2.121900   0.000000
    16  C    4.192676   3.668563   2.382806   2.695449   1.292614
    17  H    6.280365   5.563446   4.065894   3.891939   4.262987
    18  H    4.890419   4.481663   3.378334   3.624985   4.095375
    19  H    2.840521   3.368092   2.786896   3.814796   2.632897
    20  H    3.493344   3.946777   3.506047   4.368318   3.993685
    21  H    2.180752   3.506054   3.989950   5.046141   4.275524
    22  H    2.168360   2.838754   3.450119   4.279382   4.331462
    23  H    1.113447   2.180971   2.831560   3.829869   2.643606
    24  H    1.111852   2.186264   3.522695   4.338688   3.972264
    25  H    2.179472   1.112083   2.187813   2.493846   2.683471
    26  H    2.181575   1.110171   2.190288   2.483120   3.409848
    27  H    4.851988   4.487570   3.377447   3.688329   2.050054
                   16         17         18         19         20
    16  C    0.000000
    17  H    3.546509   0.000000
    18  H    4.057468   2.426919   0.000000
    19  H    3.082102   4.508690   3.275449   0.000000
    20  H    4.437337   4.588559   2.543667   1.796841   0.000000
    21  H    5.201203   6.674235   4.844126   2.496445   2.531029
    22  H    5.325202   6.209805   4.151862   3.098145   2.470894
    23  H    3.807483   6.401475   5.298627   2.689515   3.848966
    24  H    5.234062   7.335600   5.845233   3.863163   4.330364
    25  H    3.894039   6.200759   5.433199   4.199049   5.002851
    26  H    4.531814   5.828329   4.515525   4.037023   4.153488
    27  H    1.100973   4.292706   5.034574   3.706206   5.247962
                   21         22         23         24         25
    21  H    0.000000
    22  H    1.799270   0.000000
    23  H    2.467789   3.084223   0.000000
    24  H    2.541528   2.467438   1.794433   0.000000
    25  H    4.336985   3.841663   2.487502   2.518546   0.000000
    26  H    3.851958   2.668413   3.097568   2.498711   1.794979
    27  H    5.808239   6.180265   4.246220   5.841138   4.547579
                   26         27
    26  H    0.000000
    27  H    5.442234   0.000000
 Symmetry turned off by external request.
 Stoichiometry    C9H13N3O2
 Framework group  C1[X(C9H13N3O2)]
 Deg. of freedom    75
 Full point group                 C1      NOp   1
 Rotational constants (GHZ):           1.6736953           0.3994548           0.3545520
 Standard basis: 6-31G(d) (6D, 7F)
   236 basis functions,   444 primitive gaussians,   236 cartesian basis functions
    52 alpha electrons       52 beta electrons
       nuclear repulsion energy       917.2999256483 Hartrees.
 NAtoms=   27 NActive=   27 NUniq=   27 SFac= 1.00D+00 NAtFMM=   60 NAOKFM=F Big=F
 Integral buffers will be    131072 words long.
 Raffenetti 1 integral format.
 Two-electron integral symmetry is turned off.
 One-electron integrals computed using PRISM.
 NBasis=   236 RedAO= T EigKep=  1.27D-03  NBF=   236
 NBsUse=   236 1.00D-06 EigRej= -1.00D+00 NBFU=   236
 ExpMin= 1.61D-01 ExpMax= 5.48D+03 ExpMxC= 8.25D+02 IAcc=3 IRadAn=         5 AccDes= 0.00D+00
 Harris functional with IExCor=  205 and IRadAn=       5 diagonalized for initial guess.
 HarFok:  IExCor=  205 AccDes= 0.00D+00 IRadAn=         5 IDoV= 1 UseB2=F ITyADJ=14
 ICtDFT=  3500011 ScaDFX=  1.000000  1.000000  1.000000  1.000000
 FoFCou: FMM=F IPFlag=           0 FMFlag=      100000 FMFlg1=           0
         NFxFlg=           0 DoJE=T BraDBF=F KetDBF=T FulRan=T
         wScrn=  0.000000 ICntrl=       500 IOpCl=  0 I1Cent=   200000004 NGrid=           0
         NMat0=    1 NMatS0=      1 NMatT0=    0 NMatD0=    1 NMtDS0=    0 NMtDT0=    0
 Symmetry not used in FoFCou.
 Keep R1 ints in memory in canonical form, NReq=397720213.
 Requested convergence on RMS density matrix=1.00D-08 within 128 cycles.
 Requested convergence on MAX density matrix=1.00D-06.
 Requested convergence on             energy=1.00D-06.
 No special actions if energy rises.
 SCF Done:  E(RHF) =  -661.278136620     A.U. after   16 cycles
            NFock= 16  Conv=0.89D-08     -V/T= 2.0036
 ExpMin= 1.61D-01 ExpMax= 5.48D+03 ExpMxC= 8.25D+02 IAcc=3 IRadAn=         5 AccDes= 0.00D+00
 HarFok:  IExCor=  205 AccDes= 0.00D+00 IRadAn=         5 IDoV=-2 UseB2=F ITyADJ=14
 ICtDFT= 12500011 ScaDFX=  1.000000  1.000000  1.000000  1.000000
 Range of M.O.s used for correlation:    15   236
 NBasis=   236 NAE=    52 NBE=    52 NFC=    14 NFV=     0
 NROrb=    222 NOA=    38 NOB=    38 NVA=   184 NVB=   184
 Fully direct method using O(ONN) memory.
 JobTyp=1 Pass  1:  I=  15 to  52 NPSUse=  4 ParTrn=T ParDer=T DoDerP=T.
 Spin components of T(2) and E(2):
     alpha-alpha T2 =       0.9190575845D-01 E2=     -0.2716751236D+00
     alpha-beta  T2 =       0.4995039857D+00 E2=     -0.1493462185D+01
     beta-beta   T2 =       0.9190575845D-01 E2=     -0.2716751236D+00
 ANorm=    0.1297426492D+01
 E2 =    -0.2036812432D+01 EUMP2 =    -0.66331494905188D+03
          IDoAtm=111111111111111111111111111
          Differentiating once with respect to electric field.
                with respect to dipole field.
          Differentiating once with respect to nuclear coordinates.
 Keep R1 ints in memory in canonical form, NReq=397723379.
          There are     1 degrees of freedom in the 1st order CPHF.  IDoFFX=0 NUNeed=     1.
 LinEq1:  Iter=  0 NonCon=     1 RMS=4.60D-03 Max=9.32D-02 NDo=     1
 AX will form     1 AO Fock derivatives at one time.
 LinEq1:  Iter=  1 NonCon=     1 RMS=1.56D-03 Max=2.83D-02 NDo=     1
 LinEq1:  Iter=  2 NonCon=     1 RMS=6.44D-04 Max=1.52D-02 NDo=     1
 LinEq1:  Iter=  3 NonCon=     1 RMS=2.99D-04 Max=9.60D-03 NDo=     1
 LinEq1:  Iter=  4 NonCon=     1 RMS=9.19D-05 Max=2.27D-03 NDo=     1
 LinEq1:  Iter=  5 NonCon=     1 RMS=3.84D-05 Max=1.87D-03 NDo=     1
 LinEq1:  Iter=  6 NonCon=     1 RMS=1.53D-05 Max=5.87D-04 NDo=     1
 LinEq1:  Iter=  7 NonCon=     1 RMS=5.79D-06 Max=6.61D-05 NDo=     1
 LinEq1:  Iter=  8 NonCon=     1 RMS=2.18D-06 Max=5.25D-05 NDo=     1
 LinEq1:  Iter=  9 NonCon=     1 RMS=6.58D-07 Max=1.40D-05 NDo=     1
 LinEq1:  Iter= 10 NonCon=     1 RMS=2.48D-07 Max=8.77D-06 NDo=     1
 LinEq1:  Iter= 11 NonCon=     1 RMS=1.01D-07 Max=2.95D-06 NDo=     1
 LinEq1:  Iter= 12 NonCon=     1 RMS=4.97D-08 Max=1.56D-06 NDo=     1
 LinEq1:  Iter= 13 NonCon=     1 RMS=1.70D-08 Max=3.68D-07 NDo=     1
 LinEq1:  Iter= 14 NonCon=     1 RMS=5.83D-09 Max=1.50D-07 NDo=     1
 LinEq1:  Iter= 15 NonCon=     1 RMS=2.11D-09 Max=5.24D-08 NDo=     1
 LinEq1:  Iter= 16 NonCon=     1 RMS=7.86D-10 Max=1.16D-08 NDo=     1
 LinEq1:  Iter= 17 NonCon=     1 RMS=2.64D-10 Max=3.96D-09 NDo=     1
 LinEq1:  Iter= 18 NonCon=     1 RMS=9.11D-11 Max=1.11D-09 NDo=     1
 LinEq1:  Iter= 19 NonCon=     0 RMS=3.13D-11 Max=5.42D-10 NDo=     1
 Linear equations converged to 1.000D-10 1.000D-09 after    19 iterations.
 End of Minotr F.D. properties file   721 does not exist.
 End of Minotr F.D. properties file   722 does not exist.
 End of Minotr F.D. properties file   788 does not exist.

 **********************************************************************

            Population analysis using the SCF Density.

 **********************************************************************

 Alpha  occ. eigenvalues --  -20.59764 -20.58689 -15.85062 -15.63572 -15.56823
 Alpha  occ. eigenvalues --  -11.36171 -11.30435 -11.30274 -11.30173 -11.27756
 Alpha  occ. eigenvalues --  -11.24701 -11.23932 -11.23447 -11.22895  -1.58516
 Alpha  occ. eigenvalues --   -1.37320  -1.28751  -1.22792  -1.13412  -1.08525
 Alpha  occ. eigenvalues --   -1.01895  -1.00782  -0.93971  -0.88855  -0.85007
 Alpha  occ. eigenvalues --   -0.81592  -0.77958  -0.77022  -0.74450  -0.71222
 Alpha  occ. eigenvalues --   -0.70064  -0.69584  -0.67467  -0.64480  -0.63309
 Alpha  occ. eigenvalues --   -0.61710  -0.60473  -0.57518  -0.56534  -0.54941
 Alpha  occ. eigenvalues --   -0.53672  -0.50803  -0.49455  -0.48676  -0.47821
 Alpha  occ. eigenvalues --   -0.47247  -0.46146  -0.45722  -0.43601  -0.42201
 Alpha  occ. eigenvalues --   -0.39924  -0.33856
 Alpha virt. eigenvalues --    0.07061   0.11927   0.18005   0.21310   0.23392
 Alpha virt. eigenvalues --    0.24214   0.26239   0.27748   0.28489   0.28814
 Alpha virt. eigenvalues --    0.29849   0.30984   0.31784   0.32234   0.33313
 Alpha virt. eigenvalues --    0.33674   0.33962   0.35370   0.37558   0.38758
 Alpha virt. eigenvalues --    0.40591   0.41715   0.44125   0.45125   0.45547
 Alpha virt. eigenvalues --    0.46153   0.49930   0.53530   0.57271   0.58901
 Alpha virt. eigenvalues --    0.62687   0.69036   0.69131   0.72065   0.73984
 Alpha virt. eigenvalues --    0.74714   0.75724   0.75869   0.77736   0.79225
 Alpha virt. eigenvalues --    0.80600   0.83606   0.84850   0.85339   0.87938
 Alpha virt. eigenvalues --    0.89067   0.90124   0.90725   0.91752   0.93916
 Alpha virt. eigenvalues --    0.95262   0.97145   0.98807   1.00310   1.01995
 Alpha virt. eigenvalues --    1.02863   1.05098   1.06493   1.07086   1.08520
 Alpha virt. eigenvalues --    1.09747   1.10418   1.11244   1.12136   1.13184
 Alpha virt. eigenvalues --    1.13784   1.14173   1.15372   1.16370   1.17197
 Alpha virt. eigenvalues --    1.17931   1.19988   1.21261   1.22178   1.22996
 Alpha virt. eigenvalues --    1.23703   1.24370   1.25535   1.27190   1.27621
 Alpha virt. eigenvalues --    1.29489   1.30985   1.32237   1.35943   1.39352
 Alpha virt. eigenvalues --    1.42378   1.45497   1.47455   1.49404   1.52605
 Alpha virt. eigenvalues --    1.54741   1.55629   1.60285   1.61588   1.65391
 Alpha virt. eigenvalues --    1.68515   1.70219   1.72566   1.73506   1.76828
 Alpha virt. eigenvalues --    1.77739   1.79596   1.84245   1.89236   1.92455
 Alpha virt. eigenvalues --    1.93893   1.96372   1.97783   1.98828   2.00712
 Alpha virt. eigenvalues --    2.02820   2.03575   2.06789   2.08987   2.12719
 Alpha virt. eigenvalues --    2.12824   2.14028   2.17635   2.18648   2.19448
 Alpha virt. eigenvalues --    2.20893   2.21912   2.23948   2.25153   2.26233
 Alpha virt. eigenvalues --    2.29072   2.32167   2.33554   2.35529   2.35780
 Alpha virt. eigenvalues --    2.38288   2.39371   2.41446   2.43216   2.46873
 Alpha virt. eigenvalues --    2.49789   2.50111   2.50533   2.56761   2.57439
 Alpha virt. eigenvalues --    2.60661   2.62672   2.65785   2.68474   2.68599
 Alpha virt. eigenvalues --    2.69621   2.70100   2.73963   2.77207   2.82494
 Alpha virt. eigenvalues --    2.85136   2.87233   2.89460   2.90935   2.94969
 Alpha virt. eigenvalues --    2.97275   2.98402   3.00910   3.02983   3.05556
 Alpha virt. eigenvalues --    3.06908   3.12652   3.19331   3.22739   3.27699
 Alpha virt. eigenvalues --    3.30471   3.33547   3.36644   3.43774   3.60028
 Alpha virt. eigenvalues --    4.09051   4.23306   4.32048   4.36369   4.43044
 Alpha virt. eigenvalues --    4.52557   4.59504   4.59998   4.70770   4.77515
 Alpha virt. eigenvalues --    4.96471   4.99185   5.02823   5.09868
          Condensed to atoms (all electrons):
               1          2          3          4          5          6
     1  O    8.294658   0.324097  -0.102137  -0.069470   0.002876  -0.000007
     2  N    0.324097   5.696255   0.303740   0.260174  -0.038901   0.000836
     3  O   -0.102137   0.303740   8.345049  -0.090981   0.006995   0.000545
     4  C   -0.069470   0.260174  -0.090981   5.232694   0.575779  -0.049117
     5  C    0.002876  -0.038901   0.006995   0.575779   4.657849   0.307825
     6  N   -0.000007   0.000836   0.000545  -0.049117   0.307825   7.190233
     7  C    0.000002  -0.000089   0.000002   0.004309  -0.029490   0.197392
     8  H   -0.000000   0.000002  -0.000000  -0.000183   0.002300  -0.049881
     9  C   -0.000000  -0.000003   0.000000   0.000464   0.001648  -0.056185
    10  C   -0.000000   0.000000  -0.000000  -0.000019  -0.000062   0.003326
    11  C   -0.000000  -0.000000  -0.000000  -0.000015   0.000015  -0.000154
    12  C   -0.000000   0.000002  -0.000000  -0.000100  -0.000127   0.003604
    13  C   -0.000011  -0.000046  -0.000003  -0.010628   0.000614  -0.044518
    14  H   -0.000003  -0.000055   0.000001   0.002974   0.004796  -0.005572
    15  N    0.000147   0.001689  -0.000020  -0.061923  -0.003509   0.001890
    16  C    0.005396  -0.033997   0.002423   0.314109  -0.041734  -0.001402
    17  H    0.000097  -0.003996   0.012024  -0.025014   0.375278  -0.034075
    18  H    0.000000  -0.000032   0.000008   0.000940  -0.024302   0.328146
    19  H    0.000000   0.000000   0.000000  -0.000781   0.000669   0.000622
    20  H    0.000000  -0.000000   0.000000  -0.000027   0.000028  -0.001698
    21  H   -0.000000  -0.000000   0.000000   0.000000   0.000001  -0.000059
    22  H   -0.000000   0.000000  -0.000000  -0.000000  -0.000002  -0.000098
    23  H    0.000000  -0.000000   0.000000   0.000025  -0.000000  -0.000024
    24  H    0.000000   0.000000   0.000000   0.000000  -0.000000   0.000004
    25  H    0.000000  -0.000000   0.000000   0.000019  -0.000001  -0.000071
    26  H    0.000000  -0.000000   0.000000   0.000006  -0.000001  -0.000067
    27  H    0.005734  -0.000386   0.000026  -0.067856   0.002081   0.000037
               7          8          9         10         11         12
     1  O    0.000002  -0.000000  -0.000000  -0.000000  -0.000000  -0.000000
     2  N   -0.000089   0.000002  -0.000003   0.000000  -0.000000   0.000002
     3  O    0.000002  -0.000000   0.000000  -0.000000  -0.000000  -0.000000
     4  C    0.004309  -0.000183   0.000464  -0.000019  -0.000015  -0.000100
     5  C   -0.029490   0.002300   0.001648  -0.000062   0.000015  -0.000127
     6  N    0.197392  -0.049881  -0.056185   0.003326  -0.000154   0.003604
     7  C    5.006759   0.416508   0.340692  -0.049288  -0.007735  -0.064120
     8  H    0.416508   0.546690  -0.060393   0.001462  -0.000329  -0.002838
     9  C    0.340692  -0.060393   5.181117   0.318001  -0.053072  -0.006210
    10  C   -0.049288   0.001462   0.318001   5.126673   0.332734  -0.060189
    11  C   -0.007735  -0.000329  -0.053072   0.332734   5.123997   0.330698
    12  C   -0.064120  -0.002838  -0.006210  -0.060189   0.330698   5.136862
    13  C    0.331661  -0.040200  -0.050523  -0.001716  -0.047887   0.368237
    14  H   -0.040428  -0.000924   0.003859  -0.000390   0.003954  -0.040697
    15  N   -0.058512   0.004044  -0.012847   0.001457  -0.007771  -0.074156
    16  C   -0.002191   0.000013  -0.000862  -0.000027  -0.000000   0.002532
    17  H    0.001388  -0.000018  -0.000064   0.000001   0.000000   0.000001
    18  H   -0.028338  -0.002672   0.000862  -0.000120   0.000011  -0.000136
    19  H   -0.035046   0.004091   0.386009  -0.032535  -0.002255   0.000622
    20  H   -0.041706  -0.001848   0.397227  -0.037324   0.004135  -0.000362
    21  H    0.004043  -0.000080  -0.035831   0.400179  -0.035818   0.004211
    22  H   -0.004234   0.003509  -0.045699   0.395985  -0.045611  -0.001224
    23  H    0.000431   0.000033  -0.002007  -0.040082   0.396689  -0.036608
    24  H   -0.000139  -0.000098   0.004396  -0.038477   0.400321  -0.037865
    25  H    0.004983  -0.000006  -0.000368   0.004095  -0.033875   0.395427
    26  H   -0.004456   0.001601   0.001046  -0.002406  -0.042327   0.394631
    27  H   -0.000397   0.000009  -0.000060   0.000005   0.000005  -0.000020
              13         14         15         16         17         18
     1  O   -0.000011  -0.000003   0.000147   0.005396   0.000097   0.000000
     2  N   -0.000046  -0.000055   0.001689  -0.033997  -0.003996  -0.000032
     3  O   -0.000003   0.000001  -0.000020   0.002423   0.012024   0.000008
     4  C   -0.010628   0.002974  -0.061923   0.314109  -0.025014   0.000940
     5  C    0.000614   0.004796  -0.003509  -0.041734   0.375278  -0.024302
     6  N   -0.044518  -0.005572   0.001890  -0.001402  -0.034075   0.328146
     7  C    0.331661  -0.040428  -0.058512  -0.002191   0.001388  -0.028338
     8  H   -0.040200  -0.000924   0.004044   0.000013  -0.000018  -0.002672
     9  C   -0.050523   0.003859  -0.012847  -0.000862  -0.000064   0.000862
    10  C   -0.001716  -0.000390   0.001457  -0.000027   0.000001  -0.000120
    11  C   -0.047887   0.003954  -0.007771  -0.000000   0.000000   0.000011
    12  C    0.368237  -0.040697  -0.074156   0.002532   0.000001  -0.000136
    13  C    5.023724   0.402380   0.241391  -0.070327  -0.000040   0.003673
    14  H    0.402380   0.519349  -0.035846  -0.004827   0.000063   0.000011
    15  N    0.241391  -0.035846   6.936216   0.587089  -0.000061  -0.000120
    16  C   -0.070327  -0.004827   0.587089   4.713524   0.001732  -0.000199
    17  H   -0.000040   0.000063  -0.000061   0.001732   0.383057  -0.001894
    18  H    0.003673   0.000011  -0.000120  -0.000199  -0.001894   0.323109
    19  H   -0.006236   0.000065   0.006959   0.002528   0.000011  -0.000127
    20  H    0.003863  -0.000049   0.000080  -0.000030  -0.000001   0.002860
    21  H   -0.000377   0.000009  -0.000030   0.000002  -0.000000  -0.000000
    22  H    0.000318  -0.000044   0.000003  -0.000001   0.000000   0.000002
    23  H   -0.005868   0.000008   0.006800   0.000061   0.000000   0.000000
    24  H    0.004143  -0.000058   0.000044   0.000005   0.000000  -0.000000
    25  H   -0.034425  -0.002659   0.000788  -0.000057  -0.000000   0.000002
    26  H   -0.044856  -0.000898   0.004188  -0.000055   0.000000  -0.000001
    27  H    0.004880  -0.000171  -0.038829   0.402795  -0.000059   0.000002
              19         20         21         22         23         24
     1  O    0.000000   0.000000  -0.000000  -0.000000   0.000000   0.000000
     2  N    0.000000  -0.000000  -0.000000   0.000000  -0.000000   0.000000
     3  O    0.000000   0.000000   0.000000  -0.000000   0.000000   0.000000
     4  C   -0.000781  -0.000027   0.000000  -0.000000   0.000025   0.000000
     5  C    0.000669   0.000028   0.000001  -0.000002  -0.000000  -0.000000
     6  N    0.000622  -0.001698  -0.000059  -0.000098  -0.000024   0.000004
     7  C   -0.035046  -0.041706   0.004043  -0.004234   0.000431  -0.000139
     8  H    0.004091  -0.001848  -0.000080   0.003509   0.000033  -0.000098
     9  C    0.386009   0.397227  -0.035831  -0.045699  -0.002007   0.004396
    10  C   -0.032535  -0.037324   0.400179   0.395985  -0.040082  -0.038477
    11  C   -0.002255   0.004135  -0.035818  -0.045611   0.396689   0.400321
    12  C    0.000622  -0.000362   0.004211  -0.001224  -0.036608  -0.037865
    13  C   -0.006236   0.003863  -0.000377   0.000318  -0.005868   0.004143
    14  H    0.000065  -0.000049   0.000009  -0.000044   0.000008  -0.000058
    15  N    0.006959   0.000080  -0.000030   0.000003   0.006800   0.000044
    16  C    0.002528  -0.000030   0.000002  -0.000001   0.000061   0.000005
    17  H    0.000011  -0.000001  -0.000000   0.000000   0.000000   0.000000
    18  H   -0.000127   0.002860  -0.000000   0.000002   0.000000  -0.000000
    19  H    0.506475  -0.023999  -0.002592   0.003754   0.001641  -0.000070
    20  H   -0.023999   0.549942  -0.002616  -0.002964  -0.000049  -0.000090
    21  H   -0.002592  -0.002616   0.525691  -0.024663  -0.002809  -0.002059
    22  H    0.003754  -0.002964  -0.024663   0.568701   0.004058  -0.003596
    23  H    0.001641  -0.000049  -0.002809   0.004058   0.509345  -0.024965
    24  H   -0.000070  -0.000090  -0.002059  -0.003596  -0.024965   0.540773
    25  H   -0.000027   0.000011  -0.000086  -0.000082  -0.002090  -0.002379
    26  H    0.000023  -0.000035  -0.000074   0.002464   0.003820  -0.002764
    27  H    0.000078   0.000000  -0.000000   0.000000  -0.000021  -0.000000
              25         26         27
     1  O    0.000000   0.000000   0.005734
     2  N   -0.000000  -0.000000  -0.000386
     3  O    0.000000   0.000000   0.000026
     4  C    0.000019   0.000006  -0.067856
     5  C   -0.000001  -0.000001   0.002081
     6  N   -0.000071  -0.000067   0.000037
     7  C    0.004983  -0.004456  -0.000397
     8  H   -0.000006   0.001601   0.000009
     9  C   -0.000368   0.001046  -0.000060
    10  C    0.004095  -0.002406   0.000005
    11  C   -0.033875  -0.042327   0.000005
    12  C    0.395427   0.394631  -0.000020
    13  C   -0.034425  -0.044856   0.004880
    14  H   -0.002659  -0.000898  -0.000171
    15  N    0.000788   0.004188  -0.038829
    16  C   -0.000057  -0.000055   0.402795
    17  H   -0.000000   0.000000  -0.000059
    18  H    0.000002  -0.000001   0.000002
    19  H   -0.000027   0.000023   0.000078
    20  H    0.000011  -0.000035   0.000000
    21  H   -0.000086  -0.000074  -0.000000
    22  H   -0.000082   0.002464   0.000000
    23  H   -0.002090   0.003820  -0.000021
    24  H   -0.002379  -0.002764  -0.000000
    25  H    0.509949  -0.023085  -0.000010
    26  H   -0.023085   0.561058   0.000001
    27  H   -0.000010   0.000001   0.453044
 Mulliken charges:
               1
     1  O   -0.461378
     2  N    0.490708
     3  O   -0.477673
     4  C   -0.015381
     5  C    0.199378
     6  N   -0.791533
     7  C    0.057999
     8  H    0.179209
     9  C   -0.311197
    10  C   -0.321283
    11  C   -0.315711
    12  C   -0.312173
    13  C   -0.027226
    14  H    0.195153
    15  N   -0.499162
    16  C    0.123500
    17  H    0.291569
    18  H    0.398314
    19  H    0.190120
    20  H    0.154653
    21  H    0.172958
    22  H    0.149425
    23  H    0.191612
    24  H    0.162873
    25  H    0.183949
    26  H    0.152187
    27  H    0.239111
 Sum of Mulliken charges =  -0.00000
 Mulliken charges with hydrogens summed into heavy atoms:
               1
     1  O   -0.461378
     2  N    0.490708
     3  O   -0.477673
     4  C   -0.015381
     5  C    0.490947
     6  N   -0.393220
     7  C    0.237208
     9  C    0.033577
    10  C    0.001100
    11  C    0.038774
    12  C    0.023962
    13  C    0.167927
    15  N   -0.499162
    16  C    0.362611
 Electronic spatial extent (au):  <R**2>=           3131.2122
 Charge=             -0.0000 electrons
 Dipole moment (field-independent basis, Debye):
    X=              5.5506    Y=              4.5411    Z=              0.5596  Tot=              7.1933
 Quadrupole moment (field-independent basis, Debye-Ang):
   XX=           -106.3642   YY=            -80.0919   ZZ=            -82.2263
   XY=             -1.9285   XZ=              0.7189   YZ=              0.0930
 Traceless Quadrupole moment (field-independent basis, Debye-Ang):
   XX=            -16.8034   YY=              9.4689   ZZ=              7.3345
   XY=             -1.9285   XZ=              0.7189   YZ=              0.0930
 Octapole moment (field-independent basis, Debye-Ang**2):
  XXX=            106.2700  YYY=             37.7634  ZZZ=             -4.7765  XYY=             -1.2666
  XXY=             12.6556  XXZ=              0.6088  XZZ=             -8.2133  YZZ=             -2.7169
  YYZ=              1.1991  XYZ=             -1.4484
 Hexadecapole moment (field-independent basis, Debye-Ang**3):
 XXXX=          -3582.4825 YYYY=           -620.2586 ZZZZ=           -298.8208 XXXY=            -51.4714
 XXXZ=             18.2793 YYYX=            -26.9458 YYYZ=             11.1696 ZZZX=             17.2356
 ZZZY=              8.3126 XXYY=           -658.0650 XXZZ=           -544.0498 YYZZ=           -164.7075
 XXYZ=              2.2788 YYXZ=              8.3902 ZZXY=              0.6002
 N-N= 9.172999256483D+02 E-N=-3.380613587373D+03  KE= 6.588767992862D+02
 Calling FoFJK, ICntrl=  10002127 FMM=F ISym2X=0 I1Cent= 0 IOpClX= 0 NMat=1 NMatS=1 NMatT=0.
 -------------------------------------------------------------------
 Center     Atomic                   Forces (Hartrees/Bohr)
 Number     Number              X              Y              Z
 -------------------------------------------------------------------
      1        8           0.019604405   -0.025617908   -0.004471647
      2        7           0.021506606    0.028124588    0.000987429
      3        8          -0.008641921    0.025202306    0.005358705
      4        6           0.000361714   -0.006706909    0.006247809
      5        6          -0.000027619   -0.016616185   -0.004646609
      6        7           0.014457082   -0.011443643   -0.006853308
      7        6          -0.004352851    0.005131927    0.002977029
      8        1          -0.010171235   -0.001604840   -0.007665088
      9        6          -0.003966697    0.000252456   -0.002153741
     10        6           0.002849665   -0.000896429    0.001017122
     11        6          -0.001043116   -0.004610871   -0.002418556
     12        6           0.000811222   -0.008749070   -0.002908799
     13        6           0.008683524   -0.001940472    0.004152078
     14        1           0.000856357    0.004438288   -0.009863966
     15        7           0.000799258   -0.000479265    0.001378651
     16        6          -0.017448619    0.008436390    0.004200538
     17        1           0.007419481   -0.006065124   -0.006305395
     18        1          -0.017811271   -0.001633842    0.006054370
     19        1           0.003103767    0.005848401    0.007717749
     20        1          -0.003249885   -0.007344909    0.002579412
     21        1          -0.004373812    0.002405212    0.009622728
     22        1          -0.003998029   -0.003954171   -0.007414057
     23        1           0.003982684    0.006109186    0.009323190
     24        1          -0.009380373    0.002648183   -0.002124224
     25        1          -0.000786250    0.010617624   -0.002408321
     26        1          -0.004777390   -0.004779384   -0.004364331
     27        1           0.005593303    0.003228461    0.001981228
 -------------------------------------------------------------------
 Cartesian Forces:  Max     0.028124588 RMS     0.008700605

 GradGradGradGradGradGradGradGradGradGradGradGradGradGradGradGradGradGrad
 Berny optimization.
 FormGI is forming the generalized inverse of G from B-inverse, IUseBI=4.
 Internal  Forces:  Max     0.037665775 RMS     0.007924631
 Search for a local minimum.
 Step number   1 out of a maximum of   20
 All quantities printed in internal units (Hartrees-Bohrs-Radians)
 Mixed Optimization -- RFO/linear search
 Second derivative matrix not updated -- first step.
 ITU=  0
     Eigenvalues ---    0.00232   0.00770   0.01056   0.01153   0.01204
     Eigenvalues ---    0.01497   0.01534   0.01610   0.01980   0.02019
     Eigenvalues ---    0.02079   0.02688   0.03663   0.04506   0.04695
     Eigenvalues ---    0.04838   0.05081   0.05138   0.05304   0.05892
     Eigenvalues ---    0.06264   0.07216   0.07700   0.07724   0.07870
     Eigenvalues ---    0.07993   0.08050   0.08055   0.10459   0.11738
     Eigenvalues ---    0.12267   0.13470   0.15242   0.15720   0.15990
     Eigenvalues ---    0.16000   0.20086   0.21959   0.23167   0.24983
     Eigenvalues ---    0.25000   0.25368   0.26201   0.26651   0.27980
     Eigenvalues ---    0.28083   0.28471   0.29995   0.31461   0.31738
     Eigenvalues ---    0.32046   0.32238   0.32290   0.32381   0.32388
     Eigenvalues ---    0.32405   0.32516   0.32526   0.32582   0.33405
     Eigenvalues ---    0.33575   0.33604   0.35369   0.43882   0.44036
     Eigenvalues ---    0.49187   0.67021   0.90267   0.915061000.00000
     Eigenvalues --- 1000.000001000.000001000.000001000.000001000.00000
     Eigenvalues --- 1000.000001000.000001000.000001000.000001000.00000
     Eigenvalues --- 1000.000001000.000001000.000001000.000001000.00000
     Eigenvalues --- 1000.000001000.000001000.000001000.000001000.00000
     Eigenvalues --- 1000.000001000.000001000.000001000.000001000.00000
     Eigenvalues --- 1000.000001000.000001000.000001000.000001000.00000
     Eigenvalues --- 1000.000001000.000001000.000001000.000001000.00000
     Eigenvalues --- 1000.000001000.000001000.000001000.000001000.00000
     Eigenvalues --- 1000.000001000.000001000.000001000.000001000.00000
     Eigenvalues --- 1000.000001000.000001000.000001000.000001000.00000
     Eigenvalues --- 1000.000001000.000001000.000001000.000001000.00000
     Eigenvalues --- 1000.000001000.000001000.000001000.000001000.00000
     Eigenvalues --- 1000.000001000.000001000.000001000.000001000.00000
     Eigenvalues --- 1000.000001000.000001000.000001000.000001000.00000
     Eigenvalues --- 1000.000001000.000001000.000001000.000001000.00000
     Eigenvalues --- 1000.000001000.000001000.000001000.000001000.00000
     Eigenvalues --- 1000.000001000.000001000.000001000.000001000.00000
     Eigenvalues --- 1000.000001000.000001000.000001000.000001000.00000
     Eigenvalues --- 1000.00000
 RFO step:  Lambda=-2.45578491D-02 EMin= 2.31924022D-03
 Linear search not attempted -- first point.
 Iteration  1 RMS(Cart)=  0.05710333 RMS(Int)=  0.00128677
 Iteration  2 RMS(Cart)=  0.00142498 RMS(Int)=  0.00024357
 Iteration  3 RMS(Cart)=  0.00000163 RMS(Int)=  0.00024356
 Iteration  4 RMS(Cart)=  0.00000000 RMS(Int)=  0.00024356
 Iteration  1 RMS(Cart)=  0.00005244 RMS(Int)=  0.00002663
 Iteration  2 RMS(Cart)=  0.00001907 RMS(Int)=  0.00002951
 Iteration  3 RMS(Cart)=  0.00000785 RMS(Int)=  0.00003228
 Iteration  4 RMS(Cart)=  0.00000422 RMS(Int)=  0.00003387
 Iteration  5 RMS(Cart)=  0.00000298 RMS(Int)=  0.00003482
 Iteration  6 RMS(Cart)=  0.00000240 RMS(Int)=  0.00003545
 Iteration  7 RMS(Cart)=  0.00000201 RMS(Int)=  0.00003592
 Iteration  8 RMS(Cart)=  0.00000170 RMS(Int)=  0.00003629
 Iteration  9 RMS(Cart)=  0.00000145 RMS(Int)=  0.00003660
 Iteration 10 RMS(Cart)=  0.00000123 RMS(Int)=  0.00003686
 Iteration 11 RMS(Cart)=  0.00000105 RMS(Int)=  0.00003709
 Iteration 12 RMS(Cart)=  0.00000089 RMS(Int)=  0.00003728
 Variable       Old X    -DE/DX   Delta X   Delta X   Delta X     New X
                                 (Linear)    (Quad)   (Total)
    R1        2.32246   0.01706   0.00000   0.01815   0.01815   2.34062
    R2        2.32810   0.02562   0.00000   0.02763   0.02763   2.35574
    R3        2.87974  -0.03767   0.00000  -0.11607  -0.11607   2.76367
    R4        2.64753  -0.03682   0.00000  -0.07953  -0.07932   2.56821
    R5        2.80280  -0.01931   0.00000  -0.05481  -0.05459   2.74821
    R6        2.59052  -0.02492   0.00000  -0.04813  -0.04806   2.54246
    R7        2.08347  -0.01063   0.00000  -0.02965  -0.02965   2.05381
    R8        2.82448  -0.01894   0.00000  -0.05243  -0.05252   2.77197
    R9        1.93296  -0.00660   0.00000  -0.01425  -0.01425   1.91872
   R10        2.11841  -0.01190   0.00000  -0.03509  -0.03509   2.08332
   R11        2.92740  -0.01299   0.00000  -0.04412  -0.04415   2.88325
   R12        2.90274  -0.00448   0.00000  -0.00892  -0.00889   2.89385
   R13        2.91140  -0.00460   0.00000  -0.01434  -0.01436   2.89703
   R14        2.09909  -0.00995   0.00000  -0.02845  -0.02845   2.07064
   R15        2.09892  -0.00802   0.00000  -0.02292  -0.02292   2.07600
   R16        2.90431  -0.00183   0.00000  -0.00715  -0.00719   2.89712
   R17        2.10140  -0.01059   0.00000  -0.03038  -0.03038   2.07102
   R18        2.10317  -0.00901   0.00000  -0.02593  -0.02593   2.07724
   R19        2.91767  -0.00912   0.00000  -0.02882  -0.02879   2.88888
   R20        2.10411  -0.01168   0.00000  -0.03366  -0.03366   2.07045
   R21        2.10110  -0.00995   0.00000  -0.02855  -0.02855   2.07255
   R22        2.93532  -0.01064   0.00000  -0.03638  -0.03636   2.89896
   R23        2.10153  -0.01075   0.00000  -0.03087  -0.03087   2.07066
   R24        2.09792  -0.00784   0.00000  -0.02237  -0.02237   2.07555
   R25        2.10760  -0.00916   0.00000  -0.02654  -0.02654   2.08106
   R26        2.76830  -0.00569   0.00000  -0.01223  -0.01255   2.75575
   R27        2.44269  -0.00552   0.00000  -0.00752  -0.00757   2.43512
   R28        2.08054  -0.00589   0.00000  -0.01635  -0.01635   2.06419
    A1        2.10819   0.02839   0.00000   0.03815   0.03758   2.14577
    A2        2.15806  -0.03605   0.00000   0.00000  -0.00000   2.15806
    A3        2.01676   0.00768   0.00000  -0.03726  -0.03783   1.97893
    A4        2.06112  -0.01224   0.00000  -0.04214  -0.04245   2.01867
    A5        2.00234   0.00170   0.00000   0.00868   0.00831   2.01066
    A6        2.21903   0.01049   0.00000   0.03234   0.03257   2.25160
    A7        2.19980   0.00506   0.00000   0.01467   0.01492   2.21472
    A8        2.06416  -0.00265   0.00000  -0.00769  -0.00792   2.05624
    A9        2.01826  -0.00236   0.00000  -0.00604  -0.00629   2.01197
   A10        2.25320  -0.00443   0.00000  -0.01465  -0.01473   2.23847
   A11        2.11527  -0.01320   0.00000  -0.07451  -0.07492   2.04035
   A12        1.87485   0.01788   0.00000   0.09695   0.09713   1.97197
   A13        1.83810  -0.00175   0.00000  -0.01812  -0.01793   1.82017
   A14        2.00682  -0.00107   0.00000  -0.01287  -0.01290   1.99392
   A15        1.96703   0.00116   0.00000   0.00205   0.00161   1.96863
   A16        1.85200   0.00271   0.00000   0.02381   0.02366   1.87566
   A17        1.84925   0.00090   0.00000   0.01872   0.01853   1.86777
   A18        1.93667  -0.00162   0.00000  -0.00933  -0.00902   1.92765
   A19        1.91010   0.00016   0.00000  -0.00478  -0.00491   1.90519
   A20        1.92262  -0.00074   0.00000  -0.01301  -0.01298   1.90964
   A21        1.92282  -0.00165   0.00000  -0.00686  -0.00685   1.91597
   A22        1.91925  -0.00041   0.00000   0.00559   0.00555   1.92480
   A23        1.90448   0.00305   0.00000   0.02434   0.02435   1.92883
   A24        1.88436  -0.00038   0.00000  -0.00486  -0.00511   1.87925
   A25        1.94045  -0.00088   0.00000   0.00547   0.00536   1.94581
   A26        1.91896  -0.00072   0.00000  -0.00696  -0.00698   1.91198
   A27        1.90498   0.00031   0.00000  -0.00288  -0.00295   1.90203
   A28        1.91613   0.00079   0.00000   0.00707   0.00712   1.92325
   A29        1.89849   0.00173   0.00000   0.01118   0.01121   1.90970
   A30        1.88379  -0.00122   0.00000  -0.01435  -0.01443   1.86936
   A31        1.94468   0.00067   0.00000   0.00507   0.00519   1.94987
   A32        1.90239   0.00059   0.00000   0.00588   0.00583   1.90822
   A33        1.91744   0.00040   0.00000   0.00522   0.00519   1.92262
   A34        1.90661  -0.00115   0.00000  -0.01418  -0.01422   1.89239
   A35        1.91535  -0.00048   0.00000   0.00015   0.00007   1.91542
   A36        1.87600  -0.00006   0.00000  -0.00251  -0.00254   1.87346
   A37        1.94777  -0.00306   0.00000  -0.01805  -0.01807   1.92970
   A38        1.90596   0.00255   0.00000   0.01680   0.01665   1.92262
   A39        1.91071   0.00144   0.00000   0.01321   0.01318   1.92389
   A40        1.90617   0.00023   0.00000  -0.00305  -0.00290   1.90327
   A41        1.91141  -0.00021   0.00000  -0.00464  -0.00458   1.90683
   A42        1.88058  -0.00088   0.00000  -0.00378  -0.00396   1.87662
   A43        1.84650   0.00470   0.00000   0.02327   0.02330   1.86979
   A44        1.93854  -0.00444   0.00000  -0.03077  -0.03118   1.90737
   A45        1.98337   0.00077   0.00000   0.01136   0.01157   1.99494
   A46        1.88066   0.00224   0.00000   0.02984   0.03014   1.91080
   A47        1.89193  -0.00394   0.00000  -0.02810  -0.02816   1.86378
   A48        1.91823   0.00089   0.00000  -0.00330  -0.00317   1.91506
   A49        2.08446  -0.00748   0.00000  -0.01912  -0.01948   2.06499
   A50        2.25172  -0.00378   0.00000  -0.01587  -0.01589   2.23583
   A51        1.97851   0.00493   0.00000   0.02452   0.02407   2.00258
   A52        2.05293  -0.00114   0.00000  -0.00837  -0.00883   2.04410
    D1       -3.03460  -0.00067   0.00000  -0.02904  -0.02846  -3.06306
    D2        0.14413   0.00038   0.00000   0.00000  -0.00000   0.14412
    D3        0.12716  -0.00211   0.00000  -0.07960  -0.07930   0.04785
    D4       -2.97730  -0.00107   0.00000  -0.05056  -0.05084  -3.02814
    D5        3.07430   0.00069   0.00000   0.01745   0.01725   3.09155
    D6       -0.01787  -0.00040   0.00000  -0.00633  -0.00660  -0.02447
    D7       -0.10960  -0.00081   0.00000  -0.01651  -0.01683  -0.12644
    D8        3.08140  -0.00190   0.00000  -0.04029  -0.04068   3.04072
    D9       -2.70464  -0.00207   0.00000  -0.04546  -0.04622  -2.75086
   D10        0.42962   0.00026   0.00000   0.00247   0.00202   0.43164
   D11        0.47805  -0.00032   0.00000  -0.01139  -0.01121   0.46684
   D12       -2.67088   0.00202   0.00000   0.03654   0.03703  -2.63384
   D13       -0.12379  -0.00017   0.00000   0.01842   0.01863  -0.10516
   D14        2.67873   0.00389   0.00000   0.06695   0.06587   2.74460
   D15        2.96953   0.00088   0.00000   0.04159   0.04189   3.01142
   D16       -0.51114   0.00495   0.00000   0.09011   0.08913  -0.42201
   D17       -2.48807  -0.00065   0.00000  -0.01560  -0.01519  -2.50326
   D18        1.76311  -0.00224   0.00000  -0.02601  -0.02566   1.73745
   D19       -0.47997  -0.00004   0.00000  -0.00293  -0.00292  -0.48289
   D20        0.95632   0.00000   0.00000  -0.03499  -0.03555   0.92077
   D21       -1.07569  -0.00160   0.00000  -0.04540  -0.04602  -1.12171
   D22        2.96442   0.00061   0.00000  -0.02232  -0.02328   2.94114
   D23        2.94463   0.00226   0.00000   0.02492   0.02480   2.96943
   D24       -1.22642   0.00139   0.00000   0.02056   0.02046  -1.20596
   D25        0.85062  -0.00057   0.00000   0.00217   0.00214   0.85276
   D26        0.92057   0.00322   0.00000   0.03860   0.03860   0.95916
   D27        3.03271   0.00235   0.00000   0.03424   0.03425   3.06696
   D28       -1.17344   0.00039   0.00000   0.01586   0.01594  -1.15750
   D29       -1.08043   0.00147   0.00000   0.00794   0.00794  -1.07249
   D30        1.03171   0.00059   0.00000   0.00358   0.00360   1.03531
   D31        3.10874  -0.00137   0.00000  -0.01481  -0.01472   3.09403
   D32       -2.90018  -0.00091   0.00000  -0.01288  -0.01265  -2.91283
   D33       -0.86419   0.00218   0.00000   0.02018   0.02003  -0.84416
   D34        1.30939   0.00042   0.00000   0.00000  -0.00001   1.30938
   D35       -0.89881  -0.00189   0.00000  -0.02244  -0.02234  -0.92115
   D36        1.13718   0.00120   0.00000   0.01062   0.01034   1.14752
   D37       -2.97243  -0.00056   0.00000  -0.00956  -0.00970  -2.98213
   D38        1.10391   0.00100   0.00000   0.01139   0.01149   1.11540
   D39        3.13990   0.00409   0.00000   0.04445   0.04417  -3.09911
   D40       -0.96971   0.00233   0.00000   0.02427   0.02414  -0.94557
   D41        0.95664   0.00068   0.00000   0.00000   0.00000   0.95665
   D42        3.08231   0.00060   0.00000   0.00784   0.00780   3.09011
   D43       -1.13766  -0.00112   0.00000  -0.01542  -0.01540  -1.15305
   D44       -1.15754   0.00176   0.00000   0.01561   0.01568  -1.14186
   D45        0.96813   0.00167   0.00000   0.02345   0.02347   0.99160
   D46        3.03135  -0.00005   0.00000   0.00018   0.00028   3.03162
   D47        3.06186   0.00063   0.00000   0.00366   0.00362   3.06548
   D48       -1.09566   0.00055   0.00000   0.01150   0.01142  -1.08424
   D49        0.96756  -0.00117   0.00000  -0.01177  -0.01178   0.95578
   D50       -0.92192  -0.00081   0.00000   0.00000   0.00000  -0.92192
   D51        1.18344  -0.00143   0.00000  -0.01059  -0.01060   1.17285
   D52       -3.04839  -0.00092   0.00000  -0.00716  -0.00720  -3.05558
   D53       -3.04923   0.00015   0.00000   0.00034   0.00036  -3.04887
   D54       -0.94386  -0.00047   0.00000  -0.01025  -0.01025  -0.95411
   D55        1.10749   0.00004   0.00000  -0.00683  -0.00685   1.10064
   D56        1.17622   0.00016   0.00000   0.00704   0.00707   1.18330
   D57       -3.00160  -0.00046   0.00000  -0.00355  -0.00353  -3.00513
   D58       -0.95024   0.00005   0.00000  -0.00012  -0.00013  -0.95037
   D59        0.98798  -0.00088   0.00000  -0.01154  -0.01158   0.97640
   D60        3.09714  -0.00085   0.00000  -0.01571  -0.01586   3.08128
   D61       -1.13096   0.00041   0.00000  -0.00284  -0.00281  -1.13376
   D62       -1.11490  -0.00128   0.00000  -0.01274  -0.01273  -1.12763
   D63        0.99426  -0.00126   0.00000  -0.01691  -0.01701   0.97725
   D64        3.04934   0.00000   0.00000  -0.00403  -0.00395   3.04539
   D65        3.11566  -0.00026   0.00000  -0.00146  -0.00146   3.11419
   D66       -1.05837  -0.00023   0.00000  -0.00563  -0.00574  -1.06411
   D67        0.99672   0.00103   0.00000   0.00725   0.00731   1.00403
   D68       -1.05281   0.00000   0.00000  -0.00045  -0.00036  -1.05317
   D69       -3.12756   0.00159   0.00000   0.00829   0.00794  -3.11962
   D70        1.08043   0.00145   0.00000   0.01103   0.01096   1.09139
   D71        3.12133  -0.00138   0.00000  -0.00786  -0.00770   3.11363
   D72        1.04659   0.00021   0.00000   0.00088   0.00059   1.04718
   D73       -1.02860   0.00008   0.00000   0.00362   0.00361  -1.02499
   D74        1.06572  -0.00033   0.00000   0.00119   0.00138   1.06710
   D75       -1.00902   0.00126   0.00000   0.00993   0.00968  -0.99934
   D76       -3.08422   0.00112   0.00000   0.01267   0.01270  -3.07152
   D77       -1.17216   0.00425   0.00000   0.00000  -0.00001  -1.17217
   D78        3.06363   0.00055   0.00000  -0.01714  -0.01701   3.04662
   D79        1.01232  -0.00036   0.00000  -0.03485  -0.03510   0.97722
   D80        0.13863   0.00179   0.00000   0.02172   0.02135   0.15999
   D81       -2.99536  -0.00065   0.00000  -0.02805  -0.02799  -3.02335
         Item               Value     Threshold  Converged?
 Maximum Force            0.037666     0.000450     NO 
 RMS     Force            0.007216     0.000300     NO 
 Maximum Displacement     0.351706     0.001800     NO 
 RMS     Displacement     0.057345     0.001200     NO 
 Predicted change in Energy=-1.375222D-02
 GradGradGradGradGradGradGradGradGradGradGradGradGradGradGradGradGradGrad

                          Input orientation:                          
 ---------------------------------------------------------------------
 Center     Atomic      Atomic             Coordinates (Angstroms)
 Number     Number       Type             X           Y           Z
 ---------------------------------------------------------------------
      1          8           0       -3.605723   -1.400194   -0.233198
      2          7           0       -3.118371   -0.274801   -0.059669
      3          8           0       -3.812205    0.739514    0.149553
      4          6           0       -1.680435   -0.008865   -0.038826
      5          6           0       -1.322317    1.268011    0.258377
      6          7           0       -0.071724    1.745980    0.391394
      7          6           0        1.192050    1.001576    0.370852
      8          1           0        1.822583    1.515356    1.115061
      9          6           0        1.927171    1.051942   -0.965178
     10          6           0        3.329139    0.456709   -0.790799
     11          6           0        3.269581   -0.956938   -0.200530
     12          6           0        2.445261   -0.998436    1.086245
     13          6           0        1.034794   -0.447443    0.840612
     14          1           0        0.464634   -0.464531    1.782616
     15          7           0        0.402074   -1.328890   -0.133708
     16          6           0       -0.837699   -1.129967   -0.423381
     17          1           0       -2.115966    1.989893    0.432191
     18          1           0        0.054467    2.745087    0.261855
     19          1           0        1.363267    0.483037   -1.712842
     20          1           0        1.991018    2.091246   -1.315366
     21          1           0        3.843936    0.441371   -1.758177
     22          1           0        3.913130    1.106835   -0.124023
     23          1           0        2.809919   -1.634807   -0.928277
     24          1           0        4.282941   -1.327249   -0.003502
     25          1           0        2.368152   -2.028370    1.452236
     26          1           0        2.934591   -0.404720    1.870080
     27          1           0       -1.323247   -1.867308   -1.066605
 ---------------------------------------------------------------------
                    Distance matrix (angstroms):
                    1          2          3          4          5
     1  O    0.000000
     2  N    1.238602   0.000000
     3  O    2.183457   1.246601   0.000000
     4  C    2.383340   1.462469   2.267158   0.000000
     5  C    3.546111   2.388981   2.547684   1.359040   0.000000
     6  N    4.772597   3.683622   3.881065   2.419199   1.345412
     7  C    5.399259   4.515995   5.015996   3.072457   2.530944
     8  H    6.307514   5.384949   5.769313   3.990719   3.268866
     9  C    6.096038   5.295063   5.854971   3.872759   3.478929
    10  C    7.200786   6.529934   7.208539   5.087047   4.836840
    11  C    6.889654   6.425813   7.290556   5.042583   5.123136
    12  C    6.206186   5.726322   6.561535   4.389351   4.474013
    13  C    4.857489   4.253127   5.037840   2.887599   2.972836
    14  H    4.637540   4.033353   4.733706   2.850720   2.918596
    15  N    4.009665   3.675611   4.703050   2.467450   3.141839
    16  C    2.787678   2.462734   3.559621   1.454288   2.539674
    17  H    3.762287   2.524991   2.126160   2.099185   1.086832
    18  H    5.552064   4.392038   4.357302   3.268722   2.019232
    19  H    5.516046   4.836567   5.506343   3.508336   3.422609
    20  H    6.684665   5.768951   6.136005   4.418097   3.759331
    21  H    7.823959   7.202191   7.895874   5.803236   5.607138
    22  H    7.926554   7.166245   7.738900   5.704385   5.251868
    23  H    6.457448   6.143999   7.116997   4.857786   5.187473
    24  H    7.892344   7.475976   8.356215   6.107474   6.182465
    25  H    6.238788   5.955065   6.896012   4.763688   5.090284
    26  H    6.941934   6.354460   7.056114   5.009899   4.849421
    27  H    2.474360   2.602397   3.803877   2.153537   3.403793
                    6          7          8          9         10
     6  N    0.000000
     7  C    1.466861   0.000000
     8  H    2.040902   1.102447   0.000000
     9  C    2.513475   1.525751   2.133796   0.000000
    10  C    3.824351   2.492682   2.650046   1.533044   0.000000
    11  C    4.338255   2.911767   3.152272   2.534235   1.533089
    12  C    3.788119   2.466247   2.589924   2.946320   2.534163
    13  C    2.497455   1.531359   2.132724   2.511049   2.956858
    14  H    2.666372   2.161407   2.491908   3.462525   3.959360
    15  N    3.155162   2.511915   3.415700   2.947139   3.491110
    16  C    3.085716   3.048632   4.054828   3.563534   4.473821
    17  H    2.059147   3.453043   4.025378   4.379424   5.787532
    18  H    1.015342   2.084660   2.316557   2.807022   4.131372
    19  H    2.842891   2.154061   3.045273   1.095738   2.171522
    20  H    2.699470   2.160801   2.503397   1.098572   2.176568
    21  H    4.653499   3.446606   3.673528   2.162321   1.095934
    22  H    4.068565   2.767717   2.464266   2.157449   1.099227
    23  H    4.634125   3.354960   3.882472   2.828290   2.159382
    24  H    5.344510   3.888082   3.922365   3.483536   2.170733
    25  H    4.617802   3.425373   3.601295   3.940390   3.482861
    26  H    3.981200   2.694774   2.343780   3.342970   2.824536
    27  H    4.092423   4.077192   5.108652   4.370072   5.207862
                   11         12         13         14         15
    11  C    0.000000
    12  C    1.528730   0.000000
    13  C    2.517505   1.534062   0.000000
    14  H    3.470311   2.166303   1.101248   0.000000
    15  N    2.892302   2.402519   1.458281   2.103171   0.000000
    16  C    4.116958   3.615811   2.360031   2.646752   1.288610
    17  H    6.171569   5.492057   4.004336   3.808851   4.204175
    18  H    4.925012   4.517685   3.389432   3.575276   4.107870
    19  H    2.827481   3.346694   2.737483   3.731442   2.588559
    20  H    3.488410   3.939570   3.465190   4.296433   3.952011
    21  H    2.170579   3.481390   3.928737   4.977706   4.197516
    22  H    2.163139   2.837527   3.410443   4.242239   4.273216
    23  H    1.095632   2.143885   2.773062   3.770789   2.553947
    24  H    1.096745   2.161651   3.469445   4.302786   3.883052
    25  H    2.166143   1.095746   2.156677   2.485583   2.621060
    26  H    2.169007   1.098335   2.161217   2.472228   3.359003
    27  H    4.761610   4.426212   3.348709   3.644498   2.033942
                   16         17         18         19         20
    16  C    0.000000
    17  H    3.478433   0.000000
    18  H    4.035040   2.304368   0.000000
    19  H    3.018070   4.356242   3.275555   0.000000
    20  H    4.378754   4.464476   2.581737   1.771551   0.000000
    21  H    5.115514   6.535753   4.873163   2.481433   2.520213
    22  H    5.259588   6.118755   4.209757   3.068431   2.466349
    23  H    3.716840   6.265275   5.309652   2.682090   3.834567
    24  H    5.141612   7.220753   5.876592   3.837118   4.319723
    25  H    3.821327   6.106901   5.436546   4.163494   4.977257
    26  H    4.473937   5.771467   4.561007   4.011796   4.155388
    27  H    1.092322   4.213406   4.993705   3.627548   5.168789
                   21         22         23         24         25
    21  H    0.000000
    22  H    1.765811   0.000000
    23  H    2.463420   3.062760   0.000000
    24  H    2.529748   2.464965   1.766237   0.000000
    25  H    4.310952   3.834196   2.452936   2.505426   0.000000
    26  H    3.834974   2.686780   3.059323   2.485844   1.769657
    27  H    5.701584   6.095378   4.142011   5.731596   4.471792
                   26         27
    26  H    0.000000
    27  H    5.375171   0.000000
 Symmetry turned off by external request.
 Stoichiometry    C9H13N3O2
 Framework group  C1[X(C9H13N3O2)]
 Deg. of freedom    75
 Full point group                 C1      NOp   1
 Rotational constants (GHZ):           1.6909132           0.4196791           0.3708544
 Standard basis: 6-31G(d) (6D, 7F)
   236 basis functions,   444 primitive gaussians,   236 cartesian basis functions
    52 alpha electrons       52 beta electrons
       nuclear repulsion energy       931.5978325984 Hartrees.
 NAtoms=   27 NActive=   27 NUniq=   27 SFac= 1.00D+00 NAtFMM=   60 NAOKFM=F Big=F
 Integral buffers will be    131072 words long.
 Raffenetti 1 integral format.
 Two-electron integral symmetry is turned off.
 One-electron integrals computed using PRISM.
 NBasis=   236 RedAO= T EigKep=  9.87D-04  NBF=   236
 NBsUse=   236 1.00D-06 EigRej= -1.00D+00 NBFU=   236
 Initial guess from the checkpoint file:  "/home/alexey/tmp/Gau-1324752.chk"
 B after Tr=     0.053559    0.009658    0.001678
         Rot=    0.999996   -0.001432    0.000119    0.002486 Ang=  -0.33 deg.
 ExpMin= 1.61D-01 ExpMax= 5.48D+03 ExpMxC= 8.25D+02 IAcc=3 IRadAn=         5 AccDes= 0.00D+00
 Harris functional with IExCor=  205 and IRadAn=       5 diagonalized for initial guess.
 HarFok:  IExCor=  205 AccDes= 0.00D+00 IRadAn=         5 IDoV= 1 UseB2=F ITyADJ=14
 ICtDFT=  3500011 ScaDFX=  1.000000  1.000000  1.000000  1.000000
 FoFCou: FMM=F IPFlag=           0 FMFlag=      100000 FMFlg1=           0
         NFxFlg=           0 DoJE=T BraDBF=F KetDBF=T FulRan=T
         wScrn=  0.000000 ICntrl=       500 IOpCl=  0 I1Cent=   200000004 NGrid=           0
         NMat0=    1 NMatS0=      1 NMatT0=    0 NMatD0=    1 NMtDS0=    0 NMtDT0=    0
 Symmetry not used in FoFCou.
 Keep R1 ints in memory in canonical form, NReq=397720213.
 Requested convergence on RMS density matrix=1.00D-08 within 128 cycles.
 Requested convergence on MAX density matrix=1.00D-06.
 Requested convergence on             energy=1.00D-06.
 No special actions if energy rises.
 SCF Done:  E(RHF) =  -661.294581118     A.U. after   15 cycles
            NFock= 15  Conv=0.62D-08     -V/T= 2.0024
 ExpMin= 1.61D-01 ExpMax= 5.48D+03 ExpMxC= 8.25D+02 IAcc=3 IRadAn=         5 AccDes= 0.00D+00
 HarFok:  IExCor=  205 AccDes= 0.00D+00 IRadAn=         5 IDoV=-2 UseB2=F ITyADJ=14
 ICtDFT= 12500011 ScaDFX=  1.000000  1.000000  1.000000  1.000000
 Range of M.O.s used for correlation:    15   236
 NBasis=   236 NAE=    52 NBE=    52 NFC=    14 NFV=     0
 NROrb=    222 NOA=    38 NOB=    38 NVA=   184 NVB=   184
 Fully direct method using O(ONN) memory.
 JobTyp=1 Pass  1:  I=  15 to  52 NPSUse=  4 ParTrn=T ParDer=T DoDerP=T.
 Spin components of T(2) and E(2):
     alpha-alpha T2 =       0.9124679774D-01 E2=     -0.2723114479D+00
     alpha-beta  T2 =       0.4913694146D+00 E2=     -0.1488090156D+01
     beta-beta   T2 =       0.9124679774D-01 E2=     -0.2723114479D+00
 ANorm=    0.1293778578D+01
 E2 =    -0.2032713052D+01 EUMP2 =    -0.66332729416960D+03
          IDoAtm=111111111111111111111111111
          Differentiating once with respect to electric field.
                with respect to dipole field.
          Differentiating once with respect to nuclear coordinates.
 Keep R1 ints in memory in canonical form, NReq=397723379.
          There are     1 degrees of freedom in the 1st order CPHF.  IDoFFX=0 NUNeed=     1.
 LinEq1:  Iter=  0 NonCon=     1 RMS=4.58D-03 Max=1.10D-01 NDo=     1
 AX will form     1 AO Fock derivatives at one time.
 LinEq1:  Iter=  1 NonCon=     1 RMS=1.54D-03 Max=2.78D-02 NDo=     1
 LinEq1:  Iter=  2 NonCon=     1 RMS=6.54D-04 Max=1.87D-02 NDo=     1
 LinEq1:  Iter=  3 NonCon=     1 RMS=2.89D-04 Max=8.86D-03 NDo=     1
 LinEq1:  Iter=  4 NonCon=     1 RMS=9.06D-05 Max=2.22D-03 NDo=     1
 LinEq1:  Iter=  5 NonCon=     1 RMS=3.87D-05 Max=1.77D-03 NDo=     1
 LinEq1:  Iter=  6 NonCon=     1 RMS=1.47D-05 Max=5.45D-04 NDo=     1
[...]
    26  H    2.175793   1.098796   2.167220   2.497665   3.363238
    27  H    4.731573   4.420258   3.354289   3.647783   2.030646
                   16         17         18         19         20
    16  C    0.000000
    17  H    3.466249   0.000000
    18  H    4.081172   2.232966   0.000000
    19  H    2.988559   4.300364   3.508525   0.000000
    20  H    4.370893   4.441626   2.877110   1.768666   0.000000
    21  H    5.095649   6.508313   5.082461   2.499084   2.520820
    22  H    5.245779   6.099504   4.310138   3.070271   2.461534
    23  H    3.696989   6.239687   5.419489   2.704040   3.842941
    24  H    5.134049   7.205353   5.934838   3.849469   4.317136
    25  H    3.821025   6.099275   5.370224   4.171059   4.985075
    26  H    4.491860   5.789194   4.485393   4.035797   4.182526
    27  H    1.091056   4.214343   5.074976   3.591808   5.153388
                   21         22         23         24         25
    21  H    0.000000
    22  H    1.758868   0.000000
    23  H    2.469400   3.062354   0.000000
    24  H    2.517469   2.459935   1.764551   0.000000
    25  H    4.311990   3.839721   2.444007   2.519725   0.000000
    26  H    3.846928   2.704759   3.060482   2.491825   1.767985
    27  H    5.663538   6.066445   4.101000   5.702749   4.455175
                   26         27
    26  H    0.000000
    27  H    5.378335   0.000000
 Symmetry turned off by external request.
 Stoichiometry    C9H13N3O2
 Framework group  C1[X(C9H13N3O2)]
 Deg. of freedom    75
 Full point group                 C1      NOp   1
 Rotational constants (GHZ):           1.6807201           0.4174556           0.3710078

 **********************************************************************

            Population analysis using the SCF Density.

 **********************************************************************

 Alpha  occ. eigenvalues --  -20.59486 -20.57921 -15.84531 -15.64368 -15.56162
 Alpha  occ. eigenvalues --  -11.35259 -11.29739 -11.29654 -11.28824 -11.27210
 Alpha  occ. eigenvalues --  -11.23826 -11.23280 -11.22758 -11.22154  -1.56879
 Alpha  occ. eigenvalues --   -1.35868  -1.31141  -1.23184  -1.14871  -1.09964
 Alpha  occ. eigenvalues --   -1.02949  -1.01407  -0.94877  -0.89589  -0.85665
 Alpha  occ. eigenvalues --   -0.82500  -0.78684  -0.77324  -0.75382  -0.71989
 Alpha  occ. eigenvalues --   -0.69429  -0.69145  -0.67914  -0.65012  -0.63811
 Alpha  occ. eigenvalues --   -0.62480  -0.60355  -0.57804  -0.57078  -0.55155
 Alpha  occ. eigenvalues --   -0.54670  -0.50825  -0.50219  -0.48947  -0.48156
 Alpha  occ. eigenvalues --   -0.46941  -0.46187  -0.45885  -0.43245  -0.41865
 Alpha  occ. eigenvalues --   -0.39918  -0.33898
 Alpha virt. eigenvalues --    0.07126   0.11855   0.17172   0.21789   0.24085
 Alpha virt. eigenvalues --    0.25620   0.27062   0.28564   0.28969   0.29565
 Alpha virt. eigenvalues --    0.30650   0.31680   0.31998   0.32708   0.33880
 Alpha virt. eigenvalues --    0.34307   0.35651   0.37066   0.38486   0.40385
 Alpha virt. eigenvalues --    0.41511   0.42300   0.44409   0.45802   0.46751
 Alpha virt. eigenvalues --    0.47033   0.49561   0.53769   0.57387   0.59244
 Alpha virt. eigenvalues --    0.63202   0.69397   0.69750   0.72723   0.74135
 Alpha virt. eigenvalues --    0.74746   0.75657   0.76652   0.78665   0.79332
 Alpha virt. eigenvalues --    0.81237   0.84651   0.85544   0.85902   0.88480
 Alpha virt. eigenvalues --    0.89376   0.91041   0.92010   0.92772   0.94389
 Alpha virt. eigenvalues --    0.95983   0.97959   0.99506   1.01569   1.02469
 Alpha virt. eigenvalues --    1.03261   1.05836   1.07098   1.08104   1.08904
 Alpha virt. eigenvalues --    1.10295   1.11532   1.11785   1.12656   1.13846
 Alpha virt. eigenvalues --    1.14677   1.14948   1.15819   1.16741   1.18652
 Alpha virt. eigenvalues --    1.19098   1.21376   1.22690   1.23822   1.24849
 Alpha virt. eigenvalues --    1.25127   1.25361   1.26928   1.27467   1.29575
 Alpha virt. eigenvalues --    1.30025   1.32330   1.35620   1.37197   1.40283
 Alpha virt. eigenvalues --    1.41099   1.45495   1.49014   1.52175   1.54195
 Alpha virt. eigenvalues --    1.56651   1.58682   1.59317   1.63261   1.65783
 Alpha virt. eigenvalues --    1.68398   1.68613   1.73353   1.74648   1.76932
 Alpha virt. eigenvalues --    1.81361   1.84286   1.87257   1.90738   1.93562
 Alpha virt. eigenvalues --    1.95667   1.97230   2.00152   2.01527   2.02290
 Alpha virt. eigenvalues --    2.04780   2.05230   2.08907   2.09961   2.13084
 Alpha virt. eigenvalues --    2.13362   2.15246   2.18543   2.19894   2.22264
 Alpha virt. eigenvalues --    2.22576   2.24733   2.25517   2.28121   2.29444
 Alpha virt. eigenvalues --    2.31628   2.33354   2.34815   2.35922   2.38325
 Alpha virt. eigenvalues --    2.40222   2.41654   2.44508   2.44912   2.47852
 Alpha virt. eigenvalues --    2.50717   2.51859   2.53103   2.55434   2.61556
 Alpha virt. eigenvalues --    2.62143   2.64870   2.67140   2.70110   2.70433
 Alpha virt. eigenvalues --    2.72057   2.72760   2.75958   2.78588   2.84887
 Alpha virt. eigenvalues --    2.88735   2.89430   2.91864   2.92847   2.95811
 Alpha virt. eigenvalues --    2.98657   3.01152   3.03873   3.05119   3.07190
 Alpha virt. eigenvalues --    3.09327   3.14942   3.21125   3.24991   3.28524
 Alpha virt. eigenvalues --    3.33170   3.36868   3.38746   3.52235   3.65777
 Alpha virt. eigenvalues --    4.12369   4.27646   4.35118   4.39030   4.46369
 Alpha virt. eigenvalues --    4.56059   4.61695   4.62293   4.73420   4.79810
 Alpha virt. eigenvalues --    4.99361   5.00839   5.05057   5.11150
          Condensed to atoms (all electrons):
               1          2          3          4          5          6
     1  O    8.302547   0.316145  -0.093390  -0.074691   0.003926  -0.000008
     2  N    0.316145   5.739882   0.293075   0.260515  -0.045869   0.001007
     3  O   -0.093390   0.293075   8.375576  -0.095814   0.001513   0.000998
     4  C   -0.074691   0.260515  -0.095814   5.215368   0.569382  -0.050165
     5  C    0.003926  -0.045869   0.001513   0.569382   4.698181   0.315840
     6  N   -0.000008   0.001007   0.000998  -0.050165   0.315840   7.199806
     7  C    0.000002  -0.000131   0.000002   0.005225  -0.029821   0.167715
     8  H   -0.000000   0.000002  -0.000000  -0.000293   0.003040  -0.050653
     9  C   -0.000000  -0.000004  -0.000000   0.000904   0.000557  -0.061560
    10  C    0.000000   0.000000   0.000000  -0.000040  -0.000048   0.003747
    11  C   -0.000000  -0.000000  -0.000000  -0.000027   0.000025  -0.000189
    12  C   -0.000000   0.000002  -0.000000  -0.000131  -0.000168   0.003867
    13  C   -0.000014  -0.000057  -0.000004  -0.012145  -0.000270  -0.047902
    14  H   -0.000003  -0.000106   0.000001   0.002676   0.005948  -0.006893
    15  N    0.000292   0.002242  -0.000023  -0.063282  -0.005726   0.001611
    16  C    0.003703  -0.033792   0.003098   0.319784  -0.051291  -0.002071
    17  H    0.000172  -0.007225   0.017780  -0.019036   0.371180  -0.034444
    18  H    0.000001  -0.000045   0.000010   0.001535  -0.031729   0.338555
    19  H    0.000000  -0.000005   0.000000  -0.001263   0.001247  -0.000364
    20  H    0.000000  -0.000000   0.000000  -0.000081   0.000150  -0.000459
    21  H   -0.000000   0.000000   0.000000   0.000001   0.000001  -0.000077
    22  H   -0.000000   0.000000  -0.000000  -0.000000  -0.000003  -0.000117
    23  H    0.000000  -0.000000   0.000000   0.000040  -0.000000  -0.000031
    24  H    0.000000   0.000000   0.000000   0.000000  -0.000000   0.000006
    25  H    0.000000  -0.000000   0.000000   0.000024   0.000000  -0.000090
    26  H    0.000000  -0.000000   0.000000   0.000006  -0.000002  -0.000059
    27  H    0.007323  -0.000988   0.000068  -0.066758   0.002139   0.000008
               7          8          9         10         11         12
     1  O    0.000002  -0.000000  -0.000000   0.000000  -0.000000  -0.000000
     2  N   -0.000131   0.000002  -0.000004   0.000000  -0.000000   0.000002
     3  O    0.000002  -0.000000  -0.000000   0.000000  -0.000000  -0.000000
     4  C    0.005225  -0.000293   0.000904  -0.000040  -0.000027  -0.000131
     5  C   -0.029821   0.003040   0.000557  -0.000048   0.000025  -0.000168
     6  N    0.167715  -0.050653  -0.061560   0.003747  -0.000189   0.003867
     7  C    5.020656   0.418261   0.350385  -0.054689  -0.009075  -0.060985
     8  H    0.418261   0.537135  -0.054886   0.000782  -0.000318  -0.002253
     9  C    0.350385  -0.054886   5.158383   0.324800  -0.050430  -0.005357
    10  C   -0.054689   0.000782   0.324800   5.119282   0.336958  -0.061023
    11  C   -0.009075  -0.000318  -0.050430   0.336958   5.120111   0.335981
    12  C   -0.060985  -0.002253  -0.005357  -0.061023   0.335981   5.118514
    13  C    0.337581  -0.037676  -0.060233  -0.000291  -0.050758   0.371678
    14  H   -0.046862  -0.000712   0.004408  -0.000403   0.004193  -0.036158
    15  N   -0.058264   0.003894  -0.014641   0.001573  -0.013024  -0.081838
    16  C   -0.001912   0.000010  -0.001277  -0.000027   0.000017   0.002751
    17  H    0.001510  -0.000042  -0.000066   0.000001   0.000000   0.000000
    18  H   -0.021150  -0.004475   0.001318  -0.000083   0.000004  -0.000114
    19  H   -0.036910   0.004349   0.390278  -0.032018  -0.002203   0.000682
    20  H   -0.042436  -0.002072   0.399519  -0.035245   0.003925  -0.000415
    21  H    0.004603  -0.000076  -0.036375   0.402473  -0.034864   0.004346
    22  H   -0.004860   0.003552  -0.046949   0.397785  -0.045378  -0.001013
    23  H    0.000583   0.000034  -0.001961  -0.039024   0.399198  -0.037851
    24  H   -0.000128  -0.000102   0.004387  -0.038416   0.402402  -0.038662
    25  H    0.005164  -0.000026  -0.000421   0.004188  -0.033375   0.398313
    26  H   -0.003924   0.001687   0.000972  -0.002228  -0.041477   0.396747
    27  H   -0.000403   0.000009  -0.000060   0.000006   0.000011  -0.000038
              13         14         15         16         17         18
     1  O   -0.000014  -0.000003   0.000292   0.003703   0.000172   0.000001
     2  N   -0.000057  -0.000106   0.002242  -0.033792  -0.007225  -0.000045
     3  O   -0.000004   0.000001  -0.000023   0.003098   0.017780   0.000010
     4  C   -0.012145   0.002676  -0.063282   0.319784  -0.019036   0.001535
     5  C   -0.000270   0.005948  -0.005726  -0.051291   0.371180  -0.031729
     6  N   -0.047902  -0.006893   0.001611  -0.002071  -0.034444   0.338555
     7  C    0.337581  -0.046862  -0.058264  -0.001912   0.001510  -0.021150
     8  H   -0.037676  -0.000712   0.003894   0.000010  -0.000042  -0.004475
     9  C   -0.060233   0.004408  -0.014641  -0.001277  -0.000066   0.001318
    10  C   -0.000291  -0.000403   0.001573  -0.000027   0.000001  -0.000083
    11  C   -0.050758   0.004193  -0.013024   0.000017   0.000000   0.000004
    12  C    0.371678  -0.036158  -0.081838   0.002751   0.000000  -0.000114
    13  C    5.041014   0.403482   0.246904  -0.072283  -0.000010   0.002971
    14  H    0.403482   0.526421  -0.037472  -0.004770   0.000089  -0.000108
    15  N    0.246904  -0.037472   6.961123   0.586101  -0.000079  -0.000133
    16  C   -0.072283  -0.004770   0.586101   4.728834   0.002104  -0.000190
    17  H   -0.000010   0.000089  -0.000079   0.002104   0.369570  -0.002845
    18  H    0.002971  -0.000108  -0.000133  -0.000190  -0.002845   0.309945
    19  H   -0.007498   0.000107   0.007672   0.003014   0.000016  -0.000148
    20  H    0.004334  -0.000066   0.000128  -0.000036   0.000002   0.000823
    21  H   -0.000432   0.000010  -0.000042   0.000004  -0.000000   0.000001
    22  H    0.000043  -0.000055   0.000019  -0.000002   0.000000   0.000001
    23  H   -0.007523   0.000002   0.008546   0.000097   0.000000   0.000000
    24  H    0.004702  -0.000057   0.000133   0.000007   0.000000  -0.000000
    25  H   -0.035574  -0.002831   0.000427  -0.000019  -0.000000   0.000002
    26  H   -0.047393  -0.001046   0.004880  -0.000065   0.000000  -0.000000
    27  H    0.005118  -0.000172  -0.038944   0.404167  -0.000079   0.000001
              19         20         21         22         23         24
     1  O    0.000000   0.000000  -0.000000  -0.000000   0.000000   0.000000
     2  N   -0.000005  -0.000000   0.000000   0.000000  -0.000000   0.000000
     3  O    0.000000   0.000000   0.000000  -0.000000   0.000000   0.000000
     4  C   -0.001263  -0.000081   0.000001  -0.000000   0.000040   0.000000
     5  C    0.001247   0.000150   0.000001  -0.000003  -0.000000  -0.000000
     6  N   -0.000364  -0.000459  -0.000077  -0.000117  -0.000031   0.000006
     7  C   -0.036910  -0.042436   0.004603  -0.004860   0.000583  -0.000128
     8  H    0.004349  -0.002072  -0.000076   0.003552   0.000034  -0.000102
     9  C    0.390278   0.399519  -0.036375  -0.046949  -0.001961   0.004387
    10  C   -0.032018  -0.035245   0.402473   0.397785  -0.039024  -0.038416
    11  C   -0.002203   0.003925  -0.034864  -0.045378   0.399198   0.402402
    12  C    0.000682  -0.000415   0.004346  -0.001013  -0.037851  -0.038662
    13  C   -0.007498   0.004334  -0.000432   0.000043  -0.007523   0.004702
    14  H    0.000107  -0.000066   0.000010  -0.000055   0.000002  -0.000057
    15  N    0.007672   0.000128  -0.000042   0.000019   0.008546   0.000133
    16  C    0.003014  -0.000036   0.000004  -0.000002   0.000097   0.000007
    17  H    0.000016   0.000002  -0.000000   0.000000   0.000000   0.000000
    18  H   -0.000148   0.000823   0.000001   0.000001   0.000000  -0.000000
    19  H    0.504423  -0.024694  -0.002788   0.003953   0.001512  -0.000066
    20  H   -0.024694   0.540711  -0.002690  -0.002984  -0.000045  -0.000083
    21  H   -0.002788  -0.002690   0.523513  -0.027349  -0.002893  -0.002240
    22  H    0.003953  -0.002984  -0.027349   0.570965   0.004133  -0.003652
    23  H    0.001512  -0.000045  -0.002893   0.004133   0.498810  -0.025418
    24  H   -0.000066  -0.000083  -0.002240  -0.003652  -0.025418   0.537623
    25  H   -0.000029   0.000012  -0.000086  -0.000080  -0.002317  -0.002292
    26  H    0.000019  -0.000030  -0.000081   0.002377   0.004063  -0.003034
    27  H    0.000089   0.000000  -0.000000   0.000000  -0.000034  -0.000000
              25         26         27
     1  O    0.000000   0.000000   0.007323
     2  N   -0.000000  -0.000000  -0.000988
     3  O    0.000000   0.000000   0.000068
     4  C    0.000024   0.000006  -0.066758
     5  C    0.000000  -0.000002   0.002139
     6  N   -0.000090  -0.000059   0.000008
     7  C    0.005164  -0.003924  -0.000403
     8  H   -0.000026   0.001687   0.000009
     9  C   -0.000421   0.000972  -0.000060
    10  C    0.004188  -0.002228   0.000006
    11  C   -0.033375  -0.041477   0.000011
    12  C    0.398313   0.396747  -0.000038
    13  C   -0.035574  -0.047393   0.005118
    14  H   -0.002831  -0.001046  -0.000172
    15  N    0.000427   0.004880  -0.038944
    16  C   -0.000019  -0.000065   0.404167
    17  H   -0.000000   0.000000  -0.000079
    18  H    0.000002  -0.000000   0.000001
    19  H   -0.000029   0.000019   0.000089
    20  H    0.000012  -0.000030   0.000000
    21  H   -0.000086  -0.000081  -0.000000
    22  H   -0.000080   0.002377   0.000000
    23  H   -0.002317   0.004063  -0.000034
    24  H   -0.002292  -0.003034  -0.000000
    25  H    0.505750  -0.024056  -0.000013
    26  H   -0.024056   0.562115   0.000001
    27  H   -0.000013   0.000001   0.441008
 Mulliken charges:
               1
     1  O   -0.466005
     2  N    0.475351
     3  O   -0.502893
     4  C    0.008266
     5  C    0.191798
     6  N   -0.778078
     7  C    0.059861
     8  H    0.180829
     9  C   -0.301691
    10  C   -0.328059
    11  C   -0.321707
    12  C   -0.306876
    13  C   -0.037767
    14  H    0.190376
    15  N   -0.512077
    16  C    0.114046
    17  H    0.301401
    18  H    0.405854
    19  H    0.190623
    20  H    0.161731
    21  H    0.175039
    22  H    0.149612
    23  H    0.200079
    24  H    0.164890
    25  H    0.187328
    26  H    0.150526
    27  H    0.247542
 Sum of Mulliken charges =  -0.00000
 Mulliken charges with hydrogens summed into heavy atoms:
               1
     1  O   -0.466005
     2  N    0.475351
     3  O   -0.502893
     4  C    0.008266
     5  C    0.493199
     6  N   -0.372224
     7  C    0.240690
     9  C    0.050664
    10  C   -0.003407
    11  C    0.043263
    12  C    0.030977
    13  C    0.152609
    15  N   -0.512077
    16  C    0.361587
 Electronic spatial extent (au):  <R**2>=           3014.8127
 Charge=             -0.0000 electrons
 Dipole moment (field-independent basis, Debye):
    X=              5.6481    Y=              4.7350    Z=              1.3517  Tot=              7.4932
 Quadrupole moment (field-independent basis, Debye-Ang):
   XX=           -107.2307   YY=            -79.0091   ZZ=            -81.5455
   XY=             -1.4492   XZ=             -0.4416   YZ=              1.7820
 Traceless Quadrupole moment (field-independent basis, Debye-Ang):
   XX=            -17.9689   YY=             10.2527   ZZ=              7.7163
   XY=             -1.4492   XZ=             -0.4416   YZ=              1.7820
 Octapole moment (field-independent basis, Debye-Ang**2):
  XXX=             98.3813  YYY=             36.5719  ZZZ=             -0.7583  XYY=             -4.8432
  XXY=              8.9533  XXZ=              6.5687  XZZ=             -9.2990  YZZ=             -0.1675
  YYZ=              8.5108  XYZ=              0.5061
 Hexadecapole moment (field-independent basis, Debye-Ang**3):
 XXXX=          -3413.7097 YYYY=           -599.2973 ZZZZ=           -305.0456 XXXY=            -22.3029
 XXXZ=            -26.3678 YYYX=            -10.4667 YYYZ=             23.8192 ZZZX=             -4.6699
 ZZZY=              5.9647 XXYY=           -628.4403 XXZZ=           -526.7358 YYZZ=           -157.3846
 XXYZ=             -5.6265 YYXZ=             -1.2640 ZZXY=              3.8029
 N-N= 9.306585315630D+02 E-N=-3.408012516197D+03  KE= 6.596287422317D+02
 Unable to Open any file for archive entry.
 1\1\GINC-LOTUS\FOpt\RMP2-FC\6-31G(d)\C9H13N3O2\ALEXEY\01-Jul-2023\0\\#
 MP2/6-31G* SCF=Tight Opt=(ModRedun, MaxCycle=20 ) NoSymm\\MolName:\\0,
 1\O,-3.6009577735,-1.3672920645,-0.4205725393\N,-3.1093733967,-0.25797
 17181,-0.1491388174\O,-3.8491117631,0.7380729249,0.0359984628\C,-1.685
 3222365,-0.0240829225,-0.0023937887\C,-1.3044970221,1.2623808796,0.280
 5734022\N,-0.0580801579,1.7445908995,0.3956673308\C,1.2066285713,1.020
 6178686,0.3656624367\H,1.8535887398,1.5505483865,1.0809736013\C,1.9075
 284277,1.0359894461,-0.9914226357\C,3.3075418668,0.4322365126,-0.83035
 28281\C,3.2635851211,-0.9650607154,-0.2061003456\C,2.4704450894,-0.979
 7497091,1.102433271\C,1.0591416372,-0.4289651821,0.8684574465\H,0.4833
 430224,-0.4114249568,1.8073305344\N,0.4132678455,-1.3218406263,-0.0887
 191611\C,-0.8350762177,-1.1370543362,-0.3767553222\H,-2.095787895,1.99
 25467499,0.4176535436\H,0.0017767033,2.730558164,0.6218527514\H,1.3134
 485046,0.4581555671,-1.707406944\H,1.9706135922,2.0646616822,-1.367625
 2954\H,3.8099228811,0.3969582373,-1.8037895122\H,3.9068111189,1.098854
 8272,-0.1939536826\H,2.7865271058,-1.6617499519,-0.9025015024\H,4.2838
 145174,-1.3265551572,-0.0310571249\H,2.3877665668,-2.0025281691,1.4845
 531848\H,2.9800273251,-0.3821115575,1.8708781312\H,-1.3065521738,-1.89
 57450789,-1.0032545969\\Version=ES64L-G16RevC.02\HF=-661.2971724\MP2=-
 663.3316086\RMSD=4.673e-09\RMSF=5.109e-03\Dipole=2.0572274,1.6832247,0
 .4965994\PG=C01 [X(C9H13N3O2)]\\@
 The archive entry for this job was punched.


 I WANT IT ALL - RICH, THIN, AND CHOCOLATE.
 Job cpu time:       0 days  1 hours 14 minutes 26.0 seconds.
 Elapsed time:       0 days  0 hours 22 minutes 21.2 seconds.
 File lengths (MBytes):  RWF=     36 Int=      0 D2E=      0 Chk=      7 Scr=      1
 Normal termination of Gaussian 16 at Sat Jul  1 12:56:56 2023.
