 Entering Gaussian System, Link 0=g16
 Initial command:
 /home/alexey/programs//g16/l1.exe "/home/alexey/tmp/Gau-1206432.inp" -scrdir="/home/alexey/tmp/"
 Entering Link 1 = /home/alexey/programs//g16/l1.exe PID=   1206434.
  
 Copyright (c) 1988-2021, Gaussian, Inc.  All Rights Reserved.
  
 This is part of the Gaussian(R) 16 program.  It is based on
 the Gaussian(R) 09 system (copyright 2009, Gaussian, Inc.),
 the Gaussian(R) 03 system (copyright 2003, Gaussian, Inc.),
 the Gaussian(R) 98 system (copyright 1998, Gaussian, Inc.),
 the Gaussian(R) 94 system (copyright 1995, Gaussian, Inc.),
 the Gaussian 92(TM) system (copyright 1992, Gaussian, Inc.),
 the Gaussian 90(TM) system (copyright 1990, Gaussian, Inc.),
 the Gaussian 88(TM) system (copyright 1988, Gaussian, Inc.),
 the Gaussian 86(TM) system (copyright 1986, Carnegie Mellon
 University), and the Gaussian 82(TM) system (copyright 1983,
 Carnegie Mellon University). Gaussian is a federally registered
 trademark of Gaussian, Inc.
  
 This software contains proprietary and confidential information,
 including trade secrets, belonging to Gaussian, Inc.
  
 This software is provided under written license and may be
 used, copied, transmitted, or stored only in accord with that
 written license.
  
 The following legend is applicable only to US Government
 contracts under FAR:
  
                    RESTRICTED RIGHTS LEGEND
  
 Use, reproduction and disclosure by the US Government is
 subject to restrictions as set forth in subparagraphs (a)
 and (c) of the Commercial Computer Software - Restricted
 Rights clause in FAR 52.227-19.
  
 Gaussian, Inc.
 340 Quinnipiac St., Bldg. 40, Wallingford CT 06492
  
  
 ---------------------------------------------------------------
 Warning -- This program may not be used in any manner that
 competes with the business of Gaussian, Inc. or will provide
 assistance to any competitor of Gaussian, Inc.  The licensee
 of this program is prohibited from giving any competitor of
 Gaussian, Inc. access to this program.  By using this program,
 the user acknowledges that Gaussian, Inc. is engaged in the
 business of creating and licensing software in the field of
 computational chemistry and represents and warrants to the
 licensee that it is not a competitor of Gaussian, Inc. and that
 it will not use this program in any manner prohibited above.
 ---------------------------------------------------------------
  

 Cite this work as:
 Gaussian 16, Revision C.02,
 M. J. Frisch, G. W. Trucks, H. B. Schlegel, G. E. Scuseria, 
 M. A. Robb, J. R. Cheeseman, G. Scalmani, V. Barone, 
 G. A. Petersson, H. Nakatsuji, X. Li, M. Caricato, A. V. Marenich, 
 J. Bloino, B. G. Janesko, R. Gomperts, B. Mennucci, H. P. Hratchian, 
 J. V. Ortiz, A. F. Izmaylov, J. L. Sonnenberg, D. Williams-Young, 
 F. Ding, F. Lipparini, F. Egidi, J. Goings, B. Peng, A. Petrone, 
 T. Henderson, D. Ranasinghe, V. G. Zakrzewski, J. Gao, N. Rega, 
 G. Zheng, W. Liang, M. Hada, M. Ehara, K. Toyota, R. Fukuda, 
 J. Hasegawa, M. Ishida, T. Nakajima, Y. Honda, O. Kitao, H. Nakai, 
 T. Vreven, K. Throssell, J. A. Montgomery, Jr., J. E. Peralta, 
 F. Ogliaro, M. J. Bearpark, J. J. Heyd, E. N. Brothers, K. N. Kudin, 
 V. N. Staroverov, T. A. Keith, R. Kobayashi, J. Normand, 
 K. Raghavachari, A. P. Rendell, J. C. Burant, S. S. Iyengar, 
 J. Tomasi, M. Cossi, J. M. Millam, M. Klene, C. Adamo, R. Cammi, 
 J. W. Ochterski, R. L. Martin, K. Morokuma, O. Farkas, 
 J. B. Foresman, and D. J. Fox, Gaussian, Inc., Wallingford CT, 2019.
 
 ******************************************
 Gaussian 16:  ES64L-G16RevC.02  7-Dec-2021
                30-Jun-2023 
 ******************************************
 %mem=8GB
 %NPROCS=4
 Will use up to    4 processors via shared memory.
 %NoSave
 ---------------------------------------------------------
 #MP2/6-31G* SCF=Tight Opt=(ModRedun, MaxCycle=20 ) NoSymm
 ---------------------------------------------------------
 1/6=20,18=120,19=15,38=1/1,3;
 2/9=110,12=2,15=1,17=6,18=5,40=1/2;
 3/5=1,6=6,7=1,11=9,25=1,30=1,71=1/1,2,3;
 4//1;
 5/5=2,32=2,38=5/2;
 8/6=4,10=2/1;
 9/15=2,16=-3/6;
 10/5=1,31=1/2;
 6/7=2,8=2,9=2,10=2/1;
 7/12=2,30=1/1,2,3,16;
 1/6=20,18=20,19=15/3(2);
 2/9=110,15=1/2;
 99//99;
 2/9=110,15=1/2;
 3/5=1,6=6,7=1,11=9,25=1,30=1,71=1/1,2,3;
 4/5=5,16=3,69=1/1;
 5/5=2,32=2,38=5/2;
 8/6=4,10=2/1;
 9/15=2,16=-3/6;
 10/5=1,31=1/2;
 7/12=2,30=1/1,2,3,16;
 1/6=20,18=20,19=15/3(-8);
 2/9=110,15=1/2;
 6/7=2,8=2,9=2,10=2/1;
 99/9=10/99;
 --------
 MolName:
 --------
 Symbolic Z-matrix:
 Charge =  0 Multiplicity = 1
 8                    0    -3.56391  -1.43784  -0.17411 
 7                    0    -3.2727   -0.25437  -0.00631 
 8                    0    -4.07016   0.66756   0.16707 
 6                    0    -1.76165   0.00137  -0.04301 
 6                    0    -1.37274   1.30779   0.27186 
 7                    0    -0.08461   1.76504   0.37882 
 6                    0     1.19525   0.99348   0.35526 
 1                    0     1.85498   1.49146   1.11257 
 6                    0     1.96641   1.04638  -0.98722 
 6                    0     3.37778   0.46049  -0.79143 
 6                    0     3.31357  -0.9561   -0.19883 
 6                    0     2.45887  -0.9915    1.08652 
 6                    0     1.02294  -0.45574   0.83386 
 1                    0     0.46996  -0.49597   1.80158 
 7                    0     0.37183  -1.32375  -0.1498 
 6                    0    -0.8683   -1.11962  -0.4521 
 1                    0    -2.15929   2.04581   0.50156 
 1                    0     0.14591   2.74666   0.2069 
 1                    0     1.42114   0.4703   -1.76484 
 1                    0     2.05401   2.09677  -1.33743 
 1                    0     3.91734   0.43779  -1.76349 
 1                    0     3.95108   1.11388  -0.0964 
 1                    0     2.87026  -1.64478  -0.95315 
 1                    0     4.34058  -1.3198    0.0229 
 1                    0     2.39891  -2.03827   1.45718 
 1                    0     2.94906  -0.38124   1.8738 
 1                    0    -1.36554  -1.86282  -1.09376 
 
 The following ModRedundant input section has been read:
 A       1       2       4 F                                                   
 D       1       2       4      16 F                                           
 D       7      13      15      16 F                                           
 D       7       9      10      11 F                                           
 D       9      10      11      12 F                                           
 D       6       7      13      15 F                                           
 

 GradGradGradGradGradGradGradGradGradGradGradGradGradGradGradGradGradGrad
 Berny optimization.
 Initialization pass.
                           ----------------------------
                           !    Initial Parameters    !
                           ! (Angstroms and Degrees)  !
 --------------------------                            --------------------------
 ! Name  Definition              Value          Derivative Info.                !
 --------------------------------------------------------------------------------
 ! R1    R(1,2)                  1.2303         estimate D2E/DX2                !
 ! R2    R(2,3)                  1.2312         estimate D2E/DX2                !
 ! R3    R(2,4)                  1.533          estimate D2E/DX2                !
 ! R4    R(4,5)                  1.399          estimate D2E/DX2                !
 ! R5    R(4,16)                 1.4907         estimate D2E/DX2                !
 ! R6    R(5,6)                  1.3711         estimate D2E/DX2                !
 ! R7    R(5,17)                 1.1028         estimate D2E/DX2                !
 ! R8    R(6,7)                  1.4946         estimate D2E/DX2                !
 ! R9    R(6,18)                 1.0229         estimate D2E/DX2                !
 ! R10   R(7,8)                  1.121          estimate D2E/DX2                !
 ! R11   R(7,9)                  1.5491         estimate D2E/DX2                !
 ! R12   R(7,13)                 1.5359         estimate D2E/DX2                !
 ! R13   R(9,10)                 1.5406         estimate D2E/DX2                !
 ! R14   R(9,19)                 1.1108         estimate D2E/DX2                !
 ! R15   R(9,20)                 1.1107         estimate D2E/DX2                !
 ! R16   R(10,11)                1.5369         estimate D2E/DX2                !
 ! R17   R(10,21)                1.112          estimate D2E/DX2                !
 ! R18   R(10,22)                1.113          estimate D2E/DX2                !
 ! R19   R(11,12)                1.544          estimate D2E/DX2                !
 ! R20   R(11,23)                1.1135         estimate D2E/DX2                !
 ! R21   R(11,24)                1.1118         estimate D2E/DX2                !
 ! R22   R(12,13)                1.5533         estimate D2E/DX2                !
 ! R23   R(12,25)                1.1121         estimate D2E/DX2                !
 ! R24   R(12,26)                1.1102         estimate D2E/DX2                !
 ! R25   R(13,14)                1.1153         estimate D2E/DX2                !
 ! R26   R(13,15)                1.4646         estimate D2E/DX2                !
 ! R27   R(15,16)                1.2927         estimate D2E/DX2                !
 ! R28   R(16,27)                1.1006         estimate D2E/DX2                !
 ! A1    A(1,2,3)              125.8873         estimate D2E/DX2                !
 ! A2    A(1,2,4)              112.9877         Frozen                          !
 ! A3    A(3,2,4)              121.1231         estimate D2E/DX2                !
 ! A4    A(2,4,5)              115.114          estimate D2E/DX2                !
 ! A5    A(2,4,16)             118.154          estimate D2E/DX2                !
 ! A6    A(5,4,16)             126.6857         estimate D2E/DX2                !
 ! A7    A(4,5,6)              126.1697         estimate D2E/DX2                !
 ! A8    A(4,5,17)             118.2661         estimate D2E/DX2                !
 ! A9    A(6,5,17)             115.5099         estimate D2E/DX2                !
 ! A10   A(5,6,7)              129.1332         estimate D2E/DX2                !
 ! A11   A(5,6,18)             121.2433         estimate D2E/DX2                !
 ! A12   A(7,6,18)             107.4439         estimate D2E/DX2                !
 ! A13   A(6,7,8)              105.3059         estimate D2E/DX2                !
 ! A14   A(6,7,9)              114.9805         estimate D2E/DX2                !
 ! A15   A(6,7,13)             112.7127         estimate D2E/DX2                !
 ! A16   A(8,7,9)              106.0994         estimate D2E/DX2                !
 ! A17   A(8,7,13)             105.9417         estimate D2E/DX2                !
 ! A18   A(9,7,13)             110.9844         estimate D2E/DX2                !
 ! A19   A(7,9,10)             109.4462         estimate D2E/DX2                !
 ! A20   A(7,9,19)             110.1575         estimate D2E/DX2                !
 ! A21   A(7,9,20)             110.17           estimate D2E/DX2                !
 ! A22   A(10,9,19)            109.9642         estimate D2E/DX2                !
 ! A23   A(10,9,20)            109.1148         estimate D2E/DX2                !
 ! A24   A(19,9,20)            107.9654         estimate D2E/DX2                !
 ! A25   A(9,10,11)            111.1771         estimate D2E/DX2                !
 ! A26   A(9,10,21)            109.9486         estimate D2E/DX2                !
 ! A27   A(9,10,22)            109.1473         estimate D2E/DX2                !
 ! A28   A(11,10,21)           109.7865         estimate D2E/DX2                !
 ! A29   A(11,10,22)           108.775          estimate D2E/DX2                !
 ! A30   A(21,10,22)           107.9355         estimate D2E/DX2                !
 ! A31   A(10,11,12)           111.4233         estimate D2E/DX2                !
 ! A32   A(10,11,23)           108.9964         estimate D2E/DX2                !
 ! A33   A(10,11,24)           109.8656         estimate D2E/DX2                !
 ! A34   A(12,11,23)           109.2321         estimate D2E/DX2                !
 ! A35   A(12,11,24)           109.7436         estimate D2E/DX2                !
 ! A36   A(23,11,24)           107.49           estimate D2E/DX2                !
 ! A37   A(11,12,13)           111.618          estimate D2E/DX2                !
 ! A38   A(11,12,25)           109.2021         estimate D2E/DX2                !
 ! A39   A(11,12,26)           109.4709         estimate D2E/DX2                !
 ! A40   A(13,12,25)           109.2101         estimate D2E/DX2                !
 ! A41   A(13,12,26)           109.5071         estimate D2E/DX2                !
 ! A42   A(25,12,26)           107.7496         estimate D2E/DX2                !
 ! A43   A(7,13,12)            105.8086         estimate D2E/DX2                !
 ! A44   A(7,13,14)            111.1024         estimate D2E/DX2                !
 ! A45   A(7,13,15)            113.5664         estimate D2E/DX2                !
 ! A46   A(12,13,14)           107.7443         estimate D2E/DX2                !
 ! A47   A(12,13,15)           108.4094         estimate D2E/DX2                !
 ! A48   A(14,13,15)           109.9354         estimate D2E/DX2                !
 ! A49   A(13,15,16)           119.3395         estimate D2E/DX2                !
 ! A50   A(4,16,15)            129.0147         estimate D2E/DX2                !
 ! A51   A(4,16,27)            113.3939         estimate D2E/DX2                !
 ! A52   A(15,16,27)           117.5897         estimate D2E/DX2                !
 ! D1    D(1,2,4,5)           -174.0495         estimate D2E/DX2                !
 ! D2    D(1,2,4,16)             8.2581         Frozen                          !
 ! D3    D(3,2,4,5)              6.4304         estimate D2E/DX2                !
 ! D4    D(3,2,4,16)          -171.2619         estimate D2E/DX2                !
 ! D5    D(2,4,5,6)            176.214          estimate D2E/DX2                !
 ! D6    D(2,4,5,17)            -0.9759         estimate D2E/DX2                !
 ! D7    D(16,4,5,6)            -6.3233         estimate D2E/DX2                !
 ! D8    D(16,4,5,17)          176.4868         estimate D2E/DX2                !
 ! D9    D(2,4,16,15)         -154.1796         estimate D2E/DX2                !
 ! D10   D(2,4,16,27)           25.3365         estimate D2E/DX2                !
 ! D11   D(5,4,16,15)           28.4262         estimate D2E/DX2                !
 ! D12   D(5,4,16,27)         -152.0577         estimate D2E/DX2                !
 ! D13   D(4,5,6,7)             -8.0315         estimate D2E/DX2                !
 ! D14   D(4,5,6,18)           152.9854         estimate D2E/DX2                !
 ! D15   D(17,5,6,7)           169.2263         estimate D2E/DX2                !
 ! D16   D(17,5,6,18)          -29.7569         estimate D2E/DX2                !
 ! D17   D(5,6,7,8)           -141.7001         estimate D2E/DX2                !
 ! D18   D(5,6,7,9)            101.8971         estimate D2E/DX2                !
 ! D19   D(5,6,7,13)           -26.66           estimate D2E/DX2                !
 ! D20   D(18,6,7,8)            55.2489         estimate D2E/DX2                !
 ! D21   D(18,6,7,9)           -61.1539         estimate D2E/DX2                !
 ! D22   D(18,6,7,13)          170.289          estimate D2E/DX2                !
 ! D23   D(6,7,9,10)           168.7008         estimate D2E/DX2                !
 ! D24   D(6,7,9,19)           -70.2806         estimate D2E/DX2                !
 ! D25   D(6,7,9,20)            48.7239         estimate D2E/DX2                !
 ! D26   D(8,7,9,10)            52.7518         estimate D2E/DX2                !
 ! D27   D(8,7,9,19)           173.7705         estimate D2E/DX2                !
 ! D28   D(8,7,9,20)           -67.2251         estimate D2E/DX2                !
 ! D29   D(13,7,9,10)          -61.8859         estimate D2E/DX2                !
 ! D30   D(13,7,9,19)           59.1328         estimate D2E/DX2                !
 ! D31   D(13,7,9,20)          178.1372         estimate D2E/DX2                !
 ! D32   D(6,7,13,12)         -166.1893         estimate D2E/DX2                !
 ! D33   D(6,7,13,14)          -49.5235         estimate D2E/DX2                !
 ! D34   D(6,7,13,15)           75.0218         Frozen                          !
 ! D35   D(8,7,13,12)          -51.5331         estimate D2E/DX2                !
 ! D36   D(8,7,13,14)           65.1326         estimate D2E/DX2                !
 ! D37   D(8,7,13,15)         -170.3221         estimate D2E/DX2                !
 ! D38   D(9,7,13,12)           63.2031         estimate D2E/DX2                !
 ! D39   D(9,7,13,14)          179.8688         estimate D2E/DX2                !
 ! D40   D(9,7,13,15)          -55.5859         estimate D2E/DX2                !
 ! D41   D(7,9,10,11)           54.8118         Frozen                          !
 ! D42   D(7,9,10,21)          176.6026         estimate D2E/DX2                !
 ! D43   D(7,9,10,22)          -65.1808         estimate D2E/DX2                !
 ! D44   D(19,9,10,11)         -66.324          estimate D2E/DX2                !
 ! D45   D(19,9,10,21)          55.4668         estimate D2E/DX2                !
 ! D46   D(19,9,10,22)         173.6834         estimate D2E/DX2                !
 ! D47   D(20,9,10,11)         175.4333         estimate D2E/DX2                !
 ! D48   D(20,9,10,21)         -62.7759         estimate D2E/DX2                !
 ! D49   D(20,9,10,22)          55.4407         estimate D2E/DX2                !
 ! D50   D(9,10,11,12)         -52.8218         Frozen                          !
 ! D51   D(9,10,11,23)          67.7953         estimate D2E/DX2                !
 ! D52   D(9,10,11,24)        -174.6661         estimate D2E/DX2                !
 ! D53   D(21,10,11,12)       -174.7069         estimate D2E/DX2                !
 ! D54   D(21,10,11,23)        -54.0897         estimate D2E/DX2                !
 ! D55   D(21,10,11,24)         63.4489         estimate D2E/DX2                !
 ! D56   D(22,10,11,12)         67.3914         estimate D2E/DX2                !
 ! D57   D(22,10,11,23)       -171.9914         estimate D2E/DX2                !
 ! D58   D(22,10,11,24)        -54.4528         estimate D2E/DX2                !
 ! D59   D(10,11,12,13)         56.5859         estimate D2E/DX2                !
 ! D60   D(10,11,12,25)        177.4362         estimate D2E/DX2                !
 ! D61   D(10,11,12,26)        -64.8192         estimate D2E/DX2                !
 ! D62   D(23,11,12,13)        -63.8928         estimate D2E/DX2                !
 ! D63   D(23,11,12,25)         56.9575         estimate D2E/DX2                !
 ! D64   D(23,11,12,26)        174.7022         estimate D2E/DX2                !
 ! D65   D(24,11,12,13)        178.5008         estimate D2E/DX2                !
 ! D66   D(24,11,12,25)        -60.6489         estimate D2E/DX2                !
 ! D67   D(24,11,12,26)         57.0957         estimate D2E/DX2                !
 ! D68   D(11,12,13,7)         -60.2759         estimate D2E/DX2                !
 ! D69   D(11,12,13,14)       -179.1889         estimate D2E/DX2                !
 ! D70   D(11,12,13,15)         61.8768         estimate D2E/DX2                !
 ! D71   D(25,12,13,7)         178.8785         estimate D2E/DX2                !
 ! D72   D(25,12,13,14)         59.9655         estimate D2E/DX2                !
 ! D73   D(25,12,13,15)        -58.9688         estimate D2E/DX2                !
 ! D74   D(26,12,13,7)          61.1081         estimate D2E/DX2                !
 ! D75   D(26,12,13,14)        -57.8049         estimate D2E/DX2                !
 ! D76   D(26,12,13,15)       -176.7391         estimate D2E/DX2                !
 ! D77   D(7,13,15,16)         -67.1603         Frozen                          !
 ! D78   D(12,13,15,16)        175.5542         estimate D2E/DX2                !
 ! D79   D(14,13,15,16)         58.0121         estimate D2E/DX2                !
 ! D80   D(13,15,16,4)           7.1611         estimate D2E/DX2                !
 ! D81   D(13,15,16,27)       -172.3378         estimate D2E/DX2                !
 --------------------------------------------------------------------------------
 Trust Radius=3.00D-01 FncErr=1.00D-07 GrdErr=1.00D-07 EigMax=2.50D+02 EigMin=1.00D-04
 Number of steps in this run=     20 maximum allowed number of steps=    162.
 GradGradGradGradGradGradGradGradGradGradGradGradGradGradGradGradGradGrad

                          Input orientation:                          
 ---------------------------------------------------------------------
 Center     Atomic      Atomic             Coordinates (Angstroms)
 Number     Number       Type             X           Y           Z
 ---------------------------------------------------------------------
      1          8           0       -3.563910   -1.437840   -0.174110
      2          7           0       -3.272700   -0.254370   -0.006310
      3          8           0       -4.070160    0.667560    0.167070
      4          6           0       -1.761650    0.001370   -0.043010
      5          6           0       -1.372740    1.307790    0.271860
      6          7           0       -0.084610    1.765040    0.378820
      7          6           0        1.195250    0.993480    0.355260
      8          1           0        1.854980    1.491460    1.112570
      9          6           0        1.966410    1.046380   -0.987220
     10          6           0        3.377780    0.460490   -0.791430
     11          6           0        3.313570   -0.956100   -0.198830
     12          6           0        2.458870   -0.991500    1.086520
     13          6           0        1.022940   -0.455740    0.833860
     14          1           0        0.469960   -0.495970    1.801580
     15          7           0        0.371830   -1.323750   -0.149800
     16          6           0       -0.868300   -1.119620   -0.452100
     17          1           0       -2.159290    2.045810    0.501560
     18          1           0        0.145910    2.746660    0.206900
     19          1           0        1.421140    0.470300   -1.764840
     20          1           0        2.054010    2.096770   -1.337430
     21          1           0        3.917340    0.437790   -1.763490
     22          1           0        3.951080    1.113880   -0.096400
     23          1           0        2.870260   -1.644780   -0.953150
     24          1           0        4.340580   -1.319800    0.022900
     25          1           0        2.398910   -2.038270    1.457180
     26          1           0        2.949060   -0.381240    1.873800
     27          1           0       -1.365540   -1.862820   -1.093760
 ---------------------------------------------------------------------
                    Distance matrix (angstroms):
                    1          2          3          4          5
     1  O    0.000000
     2  N    1.230269   0.000000
     3  O    2.192123   1.231242   0.000000
     4  C    2.310120   1.532978   2.411879   0.000000
     5  C    3.540988   2.475393   2.774338   1.398974   0.000000
     6  N    4.761271   3.793450   4.139313   2.470007   1.371057
     7  C    5.370396   4.653003   5.278843   3.144226   2.588497
     8  H    6.292910   5.531086   6.056407   4.078694   3.340465
     9  C    6.116938   5.486566   6.157602   3.985224   3.578204
    10  C    7.223005   6.734710   7.512217   5.213891   4.941249
    11  C    6.894376   6.626345   7.568991   5.167097   5.225729
    12  C    6.169464   5.881202   6.798978   4.480448   4.542207
    13  C    4.797887   4.381662   5.257954   2.954961   3.027402
    14  H    4.589398   4.163453   4.963680   2.937676   2.998189
    15  N    3.937468   3.800890   4.878217   2.513779   3.185330
    16  C    2.728526   2.593940   3.718776   1.490653   2.582808
    17  H    3.816452   2.605464   2.379681   2.152768   1.102768
    18  H    5.605174   4.553958   4.701009   3.352291   2.093051
    19  H    5.569753   5.064554   5.824566   3.648938   3.557429
    20  H    6.738531   5.972736   6.466191   4.541529   3.867159
    21  H    7.874847   7.433939   8.220706   5.949911   5.734501
    22  H    7.936774   7.352770   8.037967   5.820293   5.340063
    23  H    6.484464   6.369121   7.400759   4.999275   5.312379
    24  H    7.907826   7.687524   8.643549   6.243961   6.293507
    25  H    6.211026   6.123011   7.129850   4.870417   5.179425
    26  H    6.908626   6.500862   7.299477   5.100131   4.908868
    27  H    2.420577   2.721565   3.912478   2.176277   3.452208
                    6          7          8          9         10
     6  N    0.000000
     7  C    1.494624   0.000000
     8  H    2.091708   1.121047   0.000000
     9  C    2.566948   1.549109   2.149333   0.000000
    10  C    3.880655   2.522383   2.647080   1.540638   0.000000
    11  C    4.391573   2.931750   3.136527   2.538961   1.536888
    12  C    3.816889   2.464066   2.555475   2.948876   2.545460
    13  C    2.523013   1.535900   2.135780   2.542210   3.004383
    14  H    2.728362   2.199170   2.518510   3.520740   4.011725
    15  N    3.166765   2.510510   3.423261   2.976823   3.554003
    16  C    3.102557   3.061905   4.084383   3.607422   4.543246
    17  H    2.097187   3.518770   4.098170   4.498525   5.902898
    18  H    1.022875   2.048601   2.305794   2.762444   4.082673
    19  H    2.922142   2.195351   3.083906   1.110802   2.185421
    20  H    2.762110   2.195431   2.531504   1.110693   2.174372
    21  H    4.729343   3.493947   3.692597   2.186116   1.111999
    22  H    4.115415   2.795191   2.449043   2.176472   1.112950
    23  H    4.704495   3.387921   3.890243   2.839093   2.171610
    24  H    5.406036   3.918524   3.907527   3.500833   2.181639
    25  H    4.668608   3.443041   3.587981   3.959446   3.501176
    26  H    4.005576   2.696603   2.298584   3.345016   2.827678
    27  H    4.119544   4.100702   5.146925   4.424555   5.290393
                   11         12         13         14         15
    11  C    0.000000
    12  C    1.543985   0.000000
    13  C    2.561990   1.553310   0.000000
    14  H    3.507061   2.170858   1.115297   0.000000
    15  N    2.965030   2.448390   1.464572   2.121964   0.000000
    16  C    4.192722   3.667946   2.381432   2.694244   1.292663
    17  H    6.281258   5.558312   4.061375   3.881192   4.264361
    18  H    4.889695   4.483007   3.378998   3.628038   4.092250
    19  H    2.840475   3.368085   2.787356   3.815465   2.632113
    20  H    3.493267   3.946753   3.506125   4.368627   3.992512
    21  H    2.180740   3.506075   3.990260   5.046391   4.275238
    22  H    2.168347   2.838770   3.450086   4.279269   4.330811
    23  H    1.113464   2.180887   2.831927   3.830110   2.643971
    24  H    1.111841   2.186298   3.522924   4.338675   3.972508
    25  H    2.179464   1.112075   2.187744   2.493622   2.683650
    26  H    2.181542   1.110186   2.190197   2.482804   3.409604
    27  H    4.849444   4.487642   3.376452   3.690574   2.049417
                   16         17         18         19         20
    16  C    0.000000
    17  H    3.549094   0.000000
    18  H    4.051052   2.427336   0.000000
    19  H    3.081017   4.520872   3.270441   0.000000
    20  H    4.434960   4.597432   2.539322   1.796833   0.000000
    21  H    5.200733   6.681438   4.841178   2.496412   2.530956
    22  H    5.323671   6.209885   4.151780   3.098142   2.470851
    23  H    3.808369   6.405701   5.296465   2.689303   3.848783
    24  H    5.234322   7.335173   5.845101   3.863108   4.330341
    25  H    3.894089   6.194361   5.434590   4.198853   5.002735
    26  H    4.530701   5.819695   4.518845   4.037247   4.153751
    27  H    1.100600   4.295634   5.022301   3.695860   5.237466
                   21         22         23         24         25
    21  H    0.000000
    22  H    1.799285   0.000000
    23  H    2.467818   3.084217   0.000000
    24  H    2.541544   2.467537   1.794471   0.000000
    25  H    4.336960   3.841730   2.487307   2.518619   0.000000
    26  H    3.852046   2.668542   3.097481   2.498610   1.794989
    27  H    5.800876   6.174295   4.243738   5.839658   4.550732
                   26         27
    26  H    0.000000
    27  H    5.442175   0.000000
 Symmetry turned off by external request.
 Stoichiometry    C9H13N3O2
 Framework group  C1[X(C9H13N3O2)]
 Deg. of freedom    75
 Full point group                 C1      NOp   1
 Rotational constants (GHZ):           1.6802479           0.4002066           0.3553173
 Standard basis: 6-31G(d) (6D, 7F)
   236 basis functions,   444 primitive gaussians,   236 cartesian basis functions
    52 alpha electrons       52 beta electrons
       nuclear repulsion energy       917.4877056840 Hartrees.
 NAtoms=   27 NActive=   27 NUniq=   27 SFac= 1.00D+00 NAtFMM=   60 NAOKFM=F Big=F
 Integral buffers will be    131072 words long.
 Raffenetti 1 integral format.
 Two-electron integral symmetry is turned off.
 One-electron integrals computed using PRISM.
 NBasis=   236 RedAO= T EigKep=  1.31D-03  NBF=   236
 NBsUse=   236 1.00D-06 EigRej= -1.00D+00 NBFU=   236
 ExpMin= 1.61D-01 ExpMax= 5.48D+03 ExpMxC= 8.25D+02 IAcc=3 IRadAn=         5 AccDes= 0.00D+00
 Harris functional with IExCor=  205 and IRadAn=       5 diagonalized for initial guess.
 HarFok:  IExCor=  205 AccDes= 0.00D+00 IRadAn=         5 IDoV= 1 UseB2=F ITyADJ=14
 ICtDFT=  3500011 ScaDFX=  1.000000  1.000000  1.000000  1.000000
 FoFCou: FMM=F IPFlag=           0 FMFlag=      100000 FMFlg1=           0
         NFxFlg=           0 DoJE=T BraDBF=F KetDBF=T FulRan=T
         wScrn=  0.000000 ICntrl=       500 IOpCl=  0 I1Cent=   200000004 NGrid=           0
         NMat0=    1 NMatS0=      1 NMatT0=    0 NMatD0=    1 NMtDS0=    0 NMtDT0=    0
 Symmetry not used in FoFCou.
 Keep R1 ints in memory in canonical form, NReq=397720213.
 Requested convergence on RMS density matrix=1.00D-08 within 128 cycles.
 Requested convergence on MAX density matrix=1.00D-06.
 Requested convergence on             energy=1.00D-06.
 No special actions if energy rises.
 SCF Done:  E(RHF) =  -661.279061969     A.U. after   16 cycles
            NFock= 16  Conv=0.74D-08     -V/T= 2.0037
 ExpMin= 1.61D-01 ExpMax= 5.48D+03 ExpMxC= 8.25D+02 IAcc=3 IRadAn=         5 AccDes= 0.00D+00
 HarFok:  IExCor=  205 AccDes= 0.00D+00 IRadAn=         5 IDoV=-2 UseB2=F ITyADJ=14
 ICtDFT= 12500011 ScaDFX=  1.000000  1.000000  1.000000  1.000000
 Range of M.O.s used for correlation:    15   236
 NBasis=   236 NAE=    52 NBE=    52 NFC=    14 NFV=     0
 NROrb=    222 NOA=    38 NOB=    38 NVA=   184 NVB=   184
 Fully direct method using O(ONN) memory.
 JobTyp=1 Pass  1:  I=  15 to  52 NPSUse=  4 ParTrn=T ParDer=T DoDerP=T.
 Spin components of T(2) and E(2):
     alpha-alpha T2 =       0.9205941086D-01 E2=     -0.2718661906D+00
     alpha-beta  T2 =       0.5000925940D+00 E2=     -0.1494287259D+01
     beta-beta   T2 =       0.9205941086D-01 E2=     -0.2718661906D+00
 ANorm=    0.1297771712D+01
 E2 =    -0.2038019640D+01 EUMP2 =    -0.66331708160911D+03
          IDoAtm=111111111111111111111111111
          Differentiating once with respect to electric field.
                with respect to dipole field.
          Differentiating once with respect to nuclear coordinates.
 Keep R1 ints in memory in canonical form, NReq=397723379.
          There are     1 degrees of freedom in the 1st order CPHF.  IDoFFX=0 NUNeed=     1.
 LinEq1:  Iter=  0 NonCon=     1 RMS=4.62D-03 Max=1.22D-01 NDo=     1
 AX will form     1 AO Fock derivatives at one time.
 LinEq1:  Iter=  1 NonCon=     1 RMS=1.57D-03 Max=3.10D-02 NDo=     1
 LinEq1:  Iter=  2 NonCon=     1 RMS=6.39D-04 Max=1.92D-02 NDo=     1
 LinEq1:  Iter=  3 NonCon=     1 RMS=2.91D-04 Max=8.72D-03 NDo=     1
 LinEq1:  Iter=  4 NonCon=     1 RMS=8.94D-05 Max=1.95D-03 NDo=     1
 LinEq1:  Iter=  5 NonCon=     1 RMS=3.76D-05 Max=1.91D-03 NDo=     1
 LinEq1:  Iter=  6 NonCon=     1 RMS=1.59D-05 Max=6.04D-04 NDo=     1
 LinEq1:  Iter=  7 NonCon=     1 RMS=6.46D-06 Max=1.31D-04 NDo=     1
 LinEq1:  Iter=  8 NonCon=     1 RMS=2.59D-06 Max=7.03D-05 NDo=     1
 LinEq1:  Iter=  9 NonCon=     1 RMS=1.06D-06 Max=3.20D-05 NDo=     1
 LinEq1:  Iter= 10 NonCon=     1 RMS=4.62D-07 Max=1.07D-05 NDo=     1
 LinEq1:  Iter= 11 NonCon=     1 RMS=1.57D-07 Max=6.07D-06 NDo=     1
 LinEq1:  Iter= 12 NonCon=     1 RMS=5.34D-08 Max=9.72D-07 NDo=     1
 LinEq1:  Iter= 13 NonCon=     1 RMS=1.69D-08 Max=3.36D-07 NDo=     1
 LinEq1:  Iter= 14 NonCon=     1 RMS=5.12D-09 Max=1.48D-07 NDo=     1
 LinEq1:  Iter= 15 NonCon=     1 RMS=1.91D-09 Max=4.81D-08 NDo=     1
 LinEq1:  Iter= 16 NonCon=     1 RMS=7.29D-10 Max=1.58D-08 NDo=     1
 LinEq1:  Iter= 17 NonCon=     1 RMS=2.44D-10 Max=3.94D-09 NDo=     1
 LinEq1:  Iter= 18 NonCon=     1 RMS=8.45D-11 Max=1.06D-09 NDo=     1
 LinEq1:  Iter= 19 NonCon=     0 RMS=2.79D-11 Max=3.17D-10 NDo=     1
 Linear equations converged to 1.000D-10 1.000D-09 after    19 iterations.
 End of Minotr F.D. properties file   721 does not exist.
 End of Minotr F.D. properties file   722 does not exist.
 End of Minotr F.D. properties file   788 does not exist.

 **********************************************************************

            Population analysis using the SCF Density.

 **********************************************************************

 Alpha  occ. eigenvalues --  -20.59954 -20.59870 -15.85437 -15.63109 -15.56887
 Alpha  occ. eigenvalues --  -11.35593 -11.30539 -11.29998 -11.29996 -11.27644
 Alpha  occ. eigenvalues --  -11.24564 -11.23834 -11.23367 -11.22821  -1.58501
 Alpha  occ. eigenvalues --   -1.38527  -1.28427  -1.22690  -1.13143  -1.08196
 Alpha  occ. eigenvalues --   -1.01747  -1.00562  -0.93245  -0.89065  -0.84875
 Alpha  occ. eigenvalues --   -0.81484  -0.78093  -0.76889  -0.74188  -0.71066
 Alpha  occ. eigenvalues --   -0.70521  -0.69913  -0.67352  -0.64280  -0.63232
 Alpha  occ. eigenvalues --   -0.61573  -0.60293  -0.57347  -0.56419  -0.54850
 Alpha  occ. eigenvalues --   -0.53520  -0.50665  -0.49323  -0.48388  -0.48027
 Alpha  occ. eigenvalues --   -0.47532  -0.46113  -0.45677  -0.44328  -0.42012
 Alpha  occ. eigenvalues --   -0.40010  -0.33700
 Alpha virt. eigenvalues --    0.07624   0.11659   0.18314   0.21432   0.23372
 Alpha virt. eigenvalues --    0.24256   0.26317   0.27820   0.28611   0.28922
 Alpha virt. eigenvalues --    0.29955   0.31134   0.31906   0.32306   0.33342
 Alpha virt. eigenvalues --    0.33826   0.34211   0.35370   0.37571   0.38443
 Alpha virt. eigenvalues --    0.40624   0.41846   0.44735   0.45428   0.45806
 Alpha virt. eigenvalues --    0.46052   0.49262   0.53132   0.57879   0.59032
 Alpha virt. eigenvalues --    0.63469   0.69231   0.69362   0.72327   0.74068
 Alpha virt. eigenvalues --    0.75087   0.75820   0.75992   0.77802   0.79317
 Alpha virt. eigenvalues --    0.80549   0.83682   0.85128   0.85403   0.88020
 Alpha virt. eigenvalues --    0.89053   0.90192   0.90845   0.91937   0.93819
 Alpha virt. eigenvalues --    0.95154   0.97244   0.98870   1.00433   1.01883
 Alpha virt. eigenvalues --    1.02766   1.05122   1.06497   1.06941   1.08738
 Alpha virt. eigenvalues --    1.09440   1.10521   1.11300   1.11925   1.13312
 Alpha virt. eigenvalues --    1.13848   1.14225   1.15426   1.16331   1.17307
 Alpha virt. eigenvalues --    1.18017   1.19921   1.21139   1.22409   1.22844
 Alpha virt. eigenvalues --    1.23301   1.24650   1.25611   1.27028   1.27620
 Alpha virt. eigenvalues --    1.29489   1.31372   1.33604   1.35993   1.39951
 Alpha virt. eigenvalues --    1.43144   1.46109   1.47684   1.49124   1.52564
 Alpha virt. eigenvalues --    1.54496   1.55399   1.60639   1.61285   1.66335
 Alpha virt. eigenvalues --    1.68696   1.70395   1.72986   1.73323   1.77102
 Alpha virt. eigenvalues --    1.77811   1.80213   1.84457   1.89014   1.92713
 Alpha virt. eigenvalues --    1.93257   1.95894   1.97439   1.99154   2.00904
 Alpha virt. eigenvalues --    2.03079   2.03651   2.05588   2.08944   2.11313
 Alpha virt. eigenvalues --    2.13029   2.13611   2.17797   2.18931   2.19316
 Alpha virt. eigenvalues --    2.20658   2.22237   2.24339   2.25085   2.26531
 Alpha virt. eigenvalues --    2.29323   2.32341   2.33467   2.35509   2.36114
 Alpha virt. eigenvalues --    2.38650   2.39896   2.41326   2.42510   2.46749
 Alpha virt. eigenvalues --    2.48287   2.50565   2.50911   2.56716   2.57157
 Alpha virt. eigenvalues --    2.60845   2.63037   2.66130   2.68454   2.68856
 Alpha virt. eigenvalues --    2.69786   2.70262   2.75299   2.77630   2.79319
 Alpha virt. eigenvalues --    2.84399   2.86601   2.90132   2.92009   2.95501
 Alpha virt. eigenvalues --    2.97739   2.98444   3.03177   3.04049   3.05714
 Alpha virt. eigenvalues --    3.07074   3.12648   3.19009   3.22599   3.26594
 Alpha virt. eigenvalues --    3.31027   3.33543   3.36554   3.44529   3.59368
 Alpha virt. eigenvalues --    4.11068   4.23280   4.32155   4.36285   4.43225
 Alpha virt. eigenvalues --    4.52902   4.59754   4.60258   4.70892   4.77649
 Alpha virt. eigenvalues --    4.96220   4.99276   5.02774   5.10003
          Condensed to atoms (all electrons):
               1          2          3          4          5          6
     1  O    8.308563   0.302983  -0.080924  -0.087750   0.004177  -0.000019
     2  N    0.302983   5.675771   0.312595   0.268451  -0.051592   0.000892
     3  O   -0.080924   0.312595   8.321586  -0.084513   0.008576   0.000405
     4  C   -0.087750   0.268451  -0.084513   5.256401   0.560010  -0.047342
     5  C    0.004177  -0.051592   0.008576   0.560010   4.682700   0.306926
     6  N   -0.000019   0.000892   0.000405  -0.047342   0.306926   7.190820
     7  C    0.000004  -0.000097   0.000002   0.004022  -0.029142   0.199352
     8  H   -0.000000   0.000002  -0.000000  -0.000178   0.002278  -0.050128
     9  C   -0.000000  -0.000003   0.000000   0.000477   0.001682  -0.056130
    10  C   -0.000000   0.000000  -0.000000  -0.000019  -0.000063   0.003340
    11  C   -0.000000  -0.000000  -0.000000  -0.000014   0.000014  -0.000154
    12  C   -0.000000   0.000002  -0.000000  -0.000097  -0.000122   0.003592
    13  C   -0.000027  -0.000009  -0.000002  -0.010416   0.000356  -0.044205
    14  H   -0.000003  -0.000055  -0.000000   0.002988   0.004836  -0.005567
    15  N    0.000199   0.001603  -0.000009  -0.060791  -0.003682   0.001826
    16  C    0.000891  -0.021511   0.001596   0.321405  -0.041169  -0.001170
    17  H    0.000154  -0.004201   0.011795  -0.028984   0.379205  -0.033926
    18  H    0.000000  -0.000038   0.000008   0.000951  -0.024362   0.328510
    19  H    0.000000  -0.000000   0.000000  -0.000746   0.000635   0.000668
    20  H    0.000000  -0.000000   0.000000  -0.000025   0.000030  -0.001732
    21  H   -0.000000  -0.000000   0.000000   0.000000   0.000001  -0.000059
    22  H   -0.000000   0.000000  -0.000000  -0.000000  -0.000002  -0.000098
    23  H    0.000000  -0.000000   0.000000   0.000024  -0.000000  -0.000024
    24  H    0.000000   0.000000   0.000000   0.000000  -0.000000   0.000004
    25  H    0.000000  -0.000000   0.000000   0.000019  -0.000001  -0.000071
    26  H    0.000000  -0.000000   0.000000   0.000006  -0.000001  -0.000067
    27  H    0.004740  -0.000096  -0.000012  -0.065084   0.002184   0.000051
               7          8          9         10         11         12
     1  O    0.000004  -0.000000  -0.000000  -0.000000  -0.000000  -0.000000
     2  N   -0.000097   0.000002  -0.000003   0.000000  -0.000000   0.000002
     3  O    0.000002  -0.000000   0.000000  -0.000000  -0.000000  -0.000000
     4  C    0.004022  -0.000178   0.000477  -0.000019  -0.000014  -0.000097
     5  C   -0.029142   0.002278   0.001682  -0.000063   0.000014  -0.000122
     6  N    0.199352  -0.050128  -0.056130   0.003340  -0.000154   0.003592
     7  C    4.999970   0.417023   0.340785  -0.049363  -0.007680  -0.064149
     8  H    0.417023   0.548189  -0.060768   0.001486  -0.000333  -0.002837
     9  C    0.340785  -0.060768   5.181423   0.317833  -0.053026  -0.006237
    10  C   -0.049363   0.001486   0.317833   5.126850   0.332767  -0.060103
    11  C   -0.007680  -0.000333  -0.053026   0.332767   5.123903   0.330612
    12  C   -0.064149  -0.002837  -0.006237  -0.060103   0.330612   5.137146
    13  C    0.333044  -0.040590  -0.050241  -0.001752  -0.047900   0.368159
    14  H   -0.040073  -0.000958   0.003870  -0.000392   0.003955  -0.040764
    15  N   -0.057940   0.004052  -0.012909   0.001465  -0.007697  -0.074166
    16  C   -0.002511   0.000034  -0.000933  -0.000023   0.000003   0.002499
    17  H    0.001461  -0.000019  -0.000066   0.000001   0.000000   0.000001
    18  H   -0.028557  -0.002650   0.000817  -0.000121   0.000011  -0.000136
    19  H   -0.034955   0.004106   0.385911  -0.032595  -0.002274   0.000637
    20  H   -0.041588  -0.001858   0.397260  -0.037412   0.004142  -0.000361
    21  H    0.004042  -0.000081  -0.035835   0.400116  -0.035864   0.004211
    22  H   -0.004202   0.003512  -0.045676   0.395965  -0.045631  -0.001235
    23  H    0.000425   0.000033  -0.002001  -0.040102   0.396711  -0.036656
    24  H   -0.000142  -0.000098   0.004394  -0.038483   0.400285  -0.037870
    25  H    0.004978  -0.000003  -0.000370   0.004099  -0.033973   0.395452
    26  H   -0.004449   0.001609   0.001036  -0.002399  -0.042299   0.394735
    27  H   -0.000408   0.000009  -0.000059   0.000005   0.000005  -0.000018
              13         14         15         16         17         18
     1  O   -0.000027  -0.000003   0.000199   0.000891   0.000154   0.000000
     2  N   -0.000009  -0.000055   0.001603  -0.021511  -0.004201  -0.000038
     3  O   -0.000002  -0.000000  -0.000009   0.001596   0.011795   0.000008
     4  C   -0.010416   0.002988  -0.060791   0.321405  -0.028984   0.000951
     5  C    0.000356   0.004836  -0.003682  -0.041169   0.379205  -0.024362
     6  N   -0.044205  -0.005567   0.001826  -0.001170  -0.033926   0.328510
     7  C    0.333044  -0.040073  -0.057940  -0.002511   0.001461  -0.028557
     8  H   -0.040590  -0.000958   0.004052   0.000034  -0.000019  -0.002650
     9  C   -0.050241   0.003870  -0.012909  -0.000933  -0.000066   0.000817
    10  C   -0.001752  -0.000392   0.001465  -0.000023   0.000001  -0.000121
    11  C   -0.047900   0.003955  -0.007697   0.000003   0.000000   0.000011
    12  C    0.368159  -0.040764  -0.074166   0.002499   0.000001  -0.000136
    13  C    5.024734   0.402214   0.238514  -0.069289  -0.000043   0.003689
    14  H    0.402214   0.519238  -0.035838  -0.004821   0.000065   0.000009
    15  N    0.238514  -0.035838   6.935981   0.588107  -0.000058  -0.000118
    16  C   -0.069289  -0.004821   0.588107   4.688881   0.001582  -0.000227
    17  H   -0.000043   0.000065  -0.000058   0.001582   0.389172  -0.001849
    18  H    0.003689   0.000009  -0.000118  -0.000227  -0.001849   0.325520
    19  H   -0.006311   0.000064   0.006946   0.002542   0.000011  -0.000127
    20  H    0.003863  -0.000049   0.000078  -0.000032  -0.000001   0.002884
    21  H   -0.000376   0.000009  -0.000029   0.000002  -0.000000  -0.000000
    22  H    0.000320  -0.000044   0.000002  -0.000001   0.000000   0.000002
    23  H   -0.005847   0.000008   0.006723   0.000062   0.000000   0.000000
    24  H    0.004140  -0.000058   0.000043   0.000005   0.000000  -0.000000
    25  H   -0.034520  -0.002654   0.000735  -0.000065  -0.000000   0.000002
    26  H   -0.044762  -0.000914   0.004185  -0.000055   0.000000  -0.000001
    27  H    0.004901  -0.000178  -0.040674   0.402238  -0.000059   0.000002
              19         20         21         22         23         24
     1  O    0.000000   0.000000  -0.000000  -0.000000   0.000000   0.000000
     2  N   -0.000000  -0.000000  -0.000000   0.000000  -0.000000   0.000000
     3  O    0.000000   0.000000   0.000000  -0.000000   0.000000   0.000000
     4  C   -0.000746  -0.000025   0.000000  -0.000000   0.000024   0.000000
     5  C    0.000635   0.000030   0.000001  -0.000002  -0.000000  -0.000000
     6  N    0.000668  -0.001732  -0.000059  -0.000098  -0.000024   0.000004
     7  C   -0.034955  -0.041588   0.004042  -0.004202   0.000425  -0.000142
     8  H    0.004106  -0.001858  -0.000081   0.003512   0.000033  -0.000098
     9  C    0.385911   0.397260  -0.035835  -0.045676  -0.002001   0.004394
    10  C   -0.032595  -0.037412   0.400116   0.395965  -0.040102  -0.038483
    11  C   -0.002274   0.004142  -0.035864  -0.045631   0.396711   0.400285
    12  C    0.000637  -0.000361   0.004211  -0.001235  -0.036656  -0.037870
    13  C   -0.006311   0.003863  -0.000376   0.000320  -0.005847   0.004140
    14  H    0.000064  -0.000049   0.000009  -0.000044   0.000008  -0.000058
    15  N    0.006946   0.000078  -0.000029   0.000002   0.006723   0.000043
    16  C    0.002542  -0.000032   0.000002  -0.000001   0.000062   0.000005
    17  H    0.000011  -0.000001  -0.000000   0.000000   0.000000   0.000000
    18  H   -0.000127   0.002884  -0.000000   0.000002   0.000000  -0.000000
    19  H    0.507171  -0.024044  -0.002593   0.003759   0.001641  -0.000070
    20  H   -0.024044   0.550308  -0.002612  -0.002968  -0.000050  -0.000090
    21  H   -0.002593  -0.002612   0.526415  -0.024719  -0.002817  -0.002059
    22  H    0.003759  -0.002968  -0.024719   0.568930   0.004064  -0.003596
    23  H    0.001641  -0.000050  -0.002817   0.004064   0.509951  -0.025015
    24  H   -0.000070  -0.000090  -0.002059  -0.003596  -0.025015   0.541226
    25  H   -0.000027   0.000011  -0.000086  -0.000082  -0.002096  -0.002380
    26  H    0.000023  -0.000035  -0.000074   0.002465   0.003822  -0.002770
    27  H    0.000073  -0.000000  -0.000000   0.000000  -0.000022  -0.000000
              25         26         27
     1  O    0.000000   0.000000   0.004740
     2  N   -0.000000  -0.000000  -0.000096
     3  O    0.000000   0.000000  -0.000012
     4  C    0.000019   0.000006  -0.065084
     5  C   -0.000001  -0.000001   0.002184
     6  N   -0.000071  -0.000067   0.000051
     7  C    0.004978  -0.004449  -0.000408
     8  H   -0.000003   0.001609   0.000009
     9  C   -0.000370   0.001036  -0.000059
    10  C    0.004099  -0.002399   0.000005
    11  C   -0.033973  -0.042299   0.000005
    12  C    0.395452   0.394735  -0.000018
    13  C   -0.034520  -0.044762   0.004901
    14  H   -0.002654  -0.000914  -0.000178
    15  N    0.000735   0.004185  -0.040674
    16  C   -0.000065  -0.000055   0.402238
    17  H   -0.000000   0.000000  -0.000059
    18  H    0.000002  -0.000001   0.000002
    19  H   -0.000027   0.000023   0.000073
    20  H    0.000011  -0.000035  -0.000000
    21  H   -0.000086  -0.000074  -0.000000
    22  H   -0.000082   0.002465   0.000000
    23  H   -0.002096   0.003822  -0.000022
    24  H   -0.002380  -0.002770  -0.000000
    25  H    0.510799  -0.023108  -0.000010
    26  H   -0.023108   0.560779   0.000001
    27  H   -0.000010   0.000001   0.453005
 Mulliken charges:
               1
     1  O   -0.452989
     2  N    0.515303
     3  O   -0.491101
     4  C   -0.028797
     5  C    0.196528
     6  N   -0.795695
     7  C    0.060149
     8  H    0.178169
     9  C   -0.311234
    10  C   -0.321100
    11  C   -0.315562
    12  C   -0.312293
    13  C   -0.027644
    14  H    0.195111
    15  N   -0.496551
    16  C    0.131960
    17  H    0.285760
    18  H    0.395778
    19  H    0.189554
    20  H    0.154281
    21  H    0.172408
    22  H    0.149234
    23  H    0.191165
    24  H    0.162534
    25  H    0.183351
    26  H    0.152273
    27  H    0.239405
 Sum of Mulliken charges =  -0.00000
 Mulliken charges with hydrogens summed into heavy atoms:
               1
     1  O   -0.452989
     2  N    0.515303
     3  O   -0.491101
     4  C   -0.028797
     5  C    0.482288
     6  N   -0.399917
     7  C    0.238318
     9  C    0.032601
    10  C    0.000542
    11  C    0.038138
    12  C    0.023331
    13  C    0.167468
    15  N   -0.496551
    16  C    0.371366
 Electronic spatial extent (au):  <R**2>=           3124.0840
 Charge=             -0.0000 electrons
 Dipole moment (field-independent basis, Debye):
    X=              5.1977    Y=              4.4456    Z=              0.4498  Tot=              6.8544
 Quadrupole moment (field-independent basis, Debye-Ang):
   XX=           -104.7334   YY=            -80.3820   ZZ=            -82.2893
   XY=             -1.7966   XZ=              1.1239   YZ=             -0.0091
 Traceless Quadrupole moment (field-independent basis, Debye-Ang):
   XX=            -15.5985   YY=              8.7529   ZZ=              6.8456
   XY=             -1.7966   XZ=              1.1239   YZ=             -0.0091
 Octapole moment (field-independent basis, Debye-Ang**2):
  XXX=             97.6871  YYY=             35.8728  ZZZ=             -5.5885  XYY=             -1.4997
  XXY=             11.0029  XXZ=             -1.4702  XZZ=             -8.3303  YZZ=             -3.0250
  YYZ=              0.4331  XYZ=             -1.4030
 Hexadecapole moment (field-independent basis, Debye-Ang**3):
 XXXX=          -3547.6028 YYYY=           -618.8434 ZZZZ=           -299.0157 XXXY=            -33.1808
 XXXZ=             34.3802 YYYX=            -15.8480 YYYZ=             11.1098 ZZZX=             25.0150
 ZZZY=              9.0465 XXYY=           -656.5367 XXZZ=           -543.8348 YYZZ=           -164.2234
 XXYZ=              2.1039 YYXZ=             11.7615 ZZXY=              3.8554
 N-N= 9.174877056840D+02 E-N=-3.380988617690D+03  KE= 6.588427955104D+02
 Calling FoFJK, ICntrl=  10002127 FMM=F ISym2X=0 I1Cent= 0 IOpClX= 0 NMat=1 NMatS=1 NMatT=0.
 -------------------------------------------------------------------
 Center     Atomic                   Forces (Hartrees/Bohr)
 Number     Number              X              Y              Z
 -------------------------------------------------------------------
      1        8          -0.013047559   -0.018240733   -0.002459803
      2        7           0.053784590    0.004115029   -0.003714894
      3        8          -0.002439921    0.009397029    0.002215089
      4        6          -0.004282242    0.022175717    0.012182174
      5        6           0.005548569   -0.016683078   -0.005761111
      6        7           0.015225882   -0.009167178   -0.006000031
      7        6          -0.004909213    0.005369497    0.002808925
      8        1          -0.009979830   -0.001833466   -0.007673173
      9        6          -0.003921818    0.000080038   -0.002102840
     10        6           0.002822484   -0.000852537    0.000961286
     11        6          -0.001058518   -0.004612115   -0.002425718
     12        6           0.000836540   -0.008748934   -0.002840050
     13        6           0.009136971   -0.002047693    0.005267211
     14        1           0.000925515    0.004523875   -0.009833097
     15        7          -0.000646711    0.002419614    0.001141025
     16        6          -0.024085456    0.006582900    0.003305778
     17        1           0.006903348   -0.005900396   -0.006385729
     18        1          -0.017401898   -0.001758154    0.006362916
     19        1           0.003088013    0.005913135    0.007693335
     20        1          -0.003259656   -0.007339177    0.002608513
     21        1          -0.004371238    0.002392547    0.009597275
     22        1          -0.003955124   -0.003990444   -0.007414544
     23        1           0.003968189    0.006144062    0.009296100
     24        1          -0.009370267    0.002600937   -0.002160526
     25        1          -0.000753734    0.010565111   -0.002395684
     26        1          -0.004771097   -0.004823073   -0.004392658
     27        1           0.006014182    0.003717488    0.002120230
 -------------------------------------------------------------------
 Cartesian Forces:  Max     0.053784590 RMS     0.009590643

 GradGradGradGradGradGradGradGradGradGradGradGradGradGradGradGradGradGrad
 Berny optimization.
 FormGI is forming the generalized inverse of G from B-inverse, IUseBI=4.
 Internal  Forces:  Max     0.037055228 RMS     0.006952591
 Search for a local minimum.
 Step number   1 out of a maximum of   20
 All quantities printed in internal units (Hartrees-Bohrs-Radians)
 Mixed Optimization -- RFO/linear search
 Second derivative matrix not updated -- first step.
 ITU=  0
     Eigenvalues ---    0.00230   0.00770   0.01026   0.01137   0.01191
     Eigenvalues ---    0.01466   0.01528   0.01593   0.01960   0.02015
     Eigenvalues ---    0.02091   0.02690   0.03663   0.04506   0.04694
     Eigenvalues ---    0.04838   0.05082   0.05138   0.05304   0.05894
     Eigenvalues ---    0.06265   0.07216   0.07701   0.07726   0.07873
     Eigenvalues ---    0.07993   0.08050   0.08058   0.10459   0.11739
     Eigenvalues ---    0.12268   0.13493   0.15260   0.15743   0.15991
     Eigenvalues ---    0.16000   0.20085   0.21938   0.23137   0.24980
     Eigenvalues ---    0.25000   0.25373   0.26205   0.26651   0.27979
     Eigenvalues ---    0.28083   0.28474   0.29150   0.31458   0.31517
     Eigenvalues ---    0.32046   0.32236   0.32290   0.32381   0.32389
     Eigenvalues ---    0.32406   0.32515   0.32527   0.32580   0.33068
     Eigenvalues ---    0.33378   0.33616   0.35373   0.43882   0.44333
     Eigenvalues ---    0.49130   0.66975   0.90571   0.909741000.00000
     Eigenvalues --- 1000.000001000.000001000.000001000.000001000.00000
     Eigenvalues --- 1000.000001000.000001000.000001000.000001000.00000
     Eigenvalues --- 1000.000001000.000001000.000001000.000001000.00000
     Eigenvalues --- 1000.000001000.000001000.000001000.000001000.00000
     Eigenvalues --- 1000.000001000.000001000.000001000.000001000.00000
     Eigenvalues --- 1000.000001000.000001000.000001000.000001000.00000
     Eigenvalues --- 1000.000001000.000001000.000001000.000001000.00000
     Eigenvalues --- 1000.000001000.000001000.000001000.000001000.00000
     Eigenvalues --- 1000.000001000.000001000.000001000.000001000.00000
     Eigenvalues --- 1000.000001000.000001000.000001000.000001000.00000
     Eigenvalues --- 1000.000001000.000001000.000001000.000001000.00000
     Eigenvalues --- 1000.000001000.000001000.000001000.000001000.00000
     Eigenvalues --- 1000.000001000.000001000.000001000.000001000.00000
     Eigenvalues --- 1000.000001000.000001000.000001000.000001000.00000
     Eigenvalues --- 1000.000001000.000001000.000001000.000001000.00000
     Eigenvalues --- 1000.000001000.000001000.000001000.000001000.00000
     Eigenvalues --- 1000.000001000.000001000.000001000.000001000.00000
     Eigenvalues --- 1000.000001000.000001000.000001000.000001000.00000
     Eigenvalues --- 1000.00000
 RFO step:  Lambda=-2.33534059D-02 EMin= 2.30411177D-03
 Linear search not attempted -- first point.
 Iteration  1 RMS(Cart)=  0.05497617 RMS(Int)=  0.00103336
 Iteration  2 RMS(Cart)=  0.00113710 RMS(Int)=  0.00021235
 Iteration  3 RMS(Cart)=  0.00000089 RMS(Int)=  0.00021234
 Iteration  1 RMS(Cart)=  0.00003469 RMS(Int)=  0.00002454
 Iteration  2 RMS(Cart)=  0.00001710 RMS(Int)=  0.00002732
 Iteration  3 RMS(Cart)=  0.00000891 RMS(Int)=  0.00003033
 Iteration  4 RMS(Cart)=  0.00000499 RMS(Int)=  0.00003217
 Iteration  5 RMS(Cart)=  0.00000306 RMS(Int)=  0.00003324
 Iteration  6 RMS(Cart)=  0.00000209 RMS(Int)=  0.00003388
 Iteration  7 RMS(Cart)=  0.00000158 RMS(Int)=  0.00003430
 Iteration  8 RMS(Cart)=  0.00000127 RMS(Int)=  0.00003459
 Iteration  9 RMS(Cart)=  0.00000106 RMS(Int)=  0.00003480
 Iteration 10 RMS(Cart)=  0.00000091 RMS(Int)=  0.00003497
 Variable       Old X    -DE/DX   Delta X   Delta X   Delta X     New X
                                 (Linear)    (Quad)   (Total)
    R1        2.32487   0.02097   0.00000   0.02247   0.02247   2.34735
    R2        2.32671   0.00893   0.00000   0.00961   0.00961   2.33632
    R3        2.89691  -0.03706   0.00000  -0.11769  -0.11769   2.77922
    R4        2.64368  -0.03314   0.00000  -0.07166  -0.07139   2.57229
    R5        2.81693  -0.02405   0.00000  -0.06962  -0.06938   2.74755
    R6        2.59092  -0.02390   0.00000  -0.04644  -0.04633   2.54459
    R7        2.08393  -0.01020   0.00000  -0.02857  -0.02857   2.05536
    R8        2.82443  -0.01984   0.00000  -0.05513  -0.05525   2.76918
    R9        1.93295  -0.00668   0.00000  -0.01445  -0.01445   1.91850
   R10        2.11847  -0.01187   0.00000  -0.03513  -0.03513   2.08334
   R11        2.92739  -0.01300   0.00000  -0.04435  -0.04438   2.88302
   R12        2.90243  -0.00445   0.00000  -0.00872  -0.00882   2.89361
   R13        2.91138  -0.00467   0.00000  -0.01433  -0.01435   2.89703
   R14        2.09911  -0.00997   0.00000  -0.02860  -0.02860   2.07051
   R15        2.09891  -0.00802   0.00000  -0.02301  -0.02301   2.07590
   R16        2.90430  -0.00182   0.00000  -0.00714  -0.00719   2.89711
   R17        2.10137  -0.01056   0.00000  -0.03041  -0.03041   2.07096
   R18        2.10317  -0.00901   0.00000  -0.02602  -0.02602   2.07715
   R19        2.91771  -0.00904   0.00000  -0.02868  -0.02865   2.88906
   R20        2.10414  -0.01168   0.00000  -0.03378  -0.03378   2.07036
   R21        2.10108  -0.00994   0.00000  -0.02860  -0.02860   2.07247
   R22        2.93533  -0.01050   0.00000  -0.03638  -0.03636   2.89897
   R23        2.10152  -0.01070   0.00000  -0.03083  -0.03083   2.07069
   R24        2.09795  -0.00787   0.00000  -0.02255  -0.02255   2.07540
   R25        2.10761  -0.00915   0.00000  -0.02663  -0.02663   2.08098
   R26        2.76764  -0.00484   0.00000  -0.00988  -0.01017   2.75747
   R27        2.44278  -0.00605   0.00000  -0.00824  -0.00826   2.43452
   R28        2.07983  -0.00646   0.00000  -0.01798  -0.01798   2.06185
    A1        2.19715  -0.00307   0.00000   0.01856   0.01853   2.21568
    A2        1.97201   0.01626   0.00000   0.00000  -0.00000   1.97201
    A3        2.11400  -0.01319   0.00000  -0.01848  -0.01850   2.09550
    A4        2.00912  -0.00330   0.00000  -0.00987  -0.01029   1.99883
    A5        2.06218  -0.00724   0.00000  -0.02427  -0.02469   2.03749
    A6        2.21108   0.01048   0.00000   0.03276   0.03300   2.24408
    A7        2.20208   0.00692   0.00000   0.02258   0.02295   2.22502
    A8        2.06413  -0.00380   0.00000  -0.01298  -0.01322   2.05091
    A9        2.01603  -0.00308   0.00000  -0.00887  -0.00913   2.00690
   A10        2.25380  -0.00640   0.00000  -0.02254  -0.02259   2.23121
   A11        2.11609  -0.01195   0.00000  -0.06957  -0.06985   2.04624
   A12        1.87525   0.01850   0.00000   0.09875   0.09889   1.97414
   A13        1.83794  -0.00143   0.00000  -0.01728  -0.01708   1.82086
   A14        2.00679  -0.00117   0.00000  -0.01220  -0.01218   1.99460
   A15        1.96721   0.00090   0.00000   0.00161   0.00108   1.96829
   A16        1.85178   0.00265   0.00000   0.02398   0.02381   1.87559
   A17        1.84903   0.00074   0.00000   0.01726   0.01713   1.86616
   A18        1.93704  -0.00137   0.00000  -0.00922  -0.00890   1.92814
   A19        1.91020   0.00013   0.00000  -0.00462  -0.00476   1.90544
   A20        1.92261  -0.00073   0.00000  -0.01287  -0.01284   1.90977
   A21        1.92283  -0.00165   0.00000  -0.00729  -0.00729   1.91554
   A22        1.91924  -0.00040   0.00000   0.00578   0.00574   1.92498
   A23        1.90441   0.00306   0.00000   0.02447   0.02449   1.92890
   A24        1.88435  -0.00039   0.00000  -0.00505  -0.00530   1.87905
   A25        1.94041  -0.00087   0.00000   0.00568   0.00555   1.94595
   A26        1.91896  -0.00068   0.00000  -0.00669  -0.00670   1.91227
   A27        1.90498   0.00030   0.00000  -0.00300  -0.00305   1.90193
   A28        1.91614   0.00080   0.00000   0.00711   0.00716   1.92329
   A29        1.89848   0.00169   0.00000   0.01106   0.01109   1.90957
   A30        1.88383  -0.00123   0.00000  -0.01465  -0.01474   1.86909
   A31        1.94470   0.00061   0.00000   0.00503   0.00516   1.94987
   A32        1.90235   0.00065   0.00000   0.00587   0.00581   1.90815
   A33        1.91752   0.00037   0.00000   0.00532   0.00530   1.92282
   A34        1.90646  -0.00111   0.00000  -0.01398  -0.01403   1.89243
   A35        1.91539  -0.00047   0.00000   0.00008  -0.00001   1.91538
   A36        1.87605  -0.00008   0.00000  -0.00269  -0.00272   1.87333
   A37        1.94810  -0.00288   0.00000  -0.01796  -0.01799   1.93011
   A38        1.90594   0.00253   0.00000   0.01696   0.01681   1.92274
   A39        1.91063   0.00134   0.00000   0.01313   0.01311   1.92374
   A40        1.90608   0.00016   0.00000  -0.00277  -0.00260   1.90347
   A41        1.91126  -0.00021   0.00000  -0.00491  -0.00486   1.90640
   A42        1.88059  -0.00086   0.00000  -0.00397  -0.00415   1.87643
   A43        1.84671   0.00442   0.00000   0.02379   0.02384   1.87055
   A44        1.93910  -0.00422   0.00000  -0.03159  -0.03200   1.90711
   A45        1.98211   0.00084   0.00000   0.01119   0.01135   1.99346
   A46        1.88049   0.00222   0.00000   0.03026   0.03057   1.91106
   A47        1.89210  -0.00378   0.00000  -0.02840  -0.02843   1.86367
   A48        1.91874   0.00074   0.00000  -0.00294  -0.00279   1.91594
   A49        2.08287  -0.00512   0.00000  -0.01019  -0.01055   2.07232
   A50        2.25173  -0.00599   0.00000  -0.02512  -0.02518   2.22656
   A51        1.97910   0.00617   0.00000   0.02995   0.02947   2.00856
   A52        2.05233  -0.00016   0.00000  -0.00449  -0.00496   2.04737
    D1       -3.03774  -0.00089   0.00000  -0.03366  -0.03296  -3.07070
    D2        0.14413   0.00028   0.00000   0.00000  -0.00000   0.14413
    D3        0.11223  -0.00131   0.00000  -0.04390  -0.04354   0.06869
    D4       -2.98908  -0.00014   0.00000  -0.01023  -0.01058  -2.99967
    D5        3.07552   0.00044   0.00000   0.01242   0.01267   3.08818
    D6       -0.01703  -0.00050   0.00000  -0.00630  -0.00612  -0.02315
    D7       -0.11036  -0.00136   0.00000  -0.02625  -0.02673  -0.13709
    D8        3.08027  -0.00231   0.00000  -0.04498  -0.04552   3.03475
    D9       -2.69094  -0.00190   0.00000  -0.04363  -0.04401  -2.73495
   D10        0.44221   0.00058   0.00000   0.00605   0.00597   0.44818
   D11        0.49613  -0.00016   0.00000  -0.00430  -0.00423   0.49190
   D12       -2.65391   0.00233   0.00000   0.04539   0.04575  -2.60816
   D13       -0.14018  -0.00005   0.00000   0.02708   0.02730  -0.11288
   D14        2.67010   0.00372   0.00000   0.07174   0.07094   2.74104
   D15        2.95356   0.00085   0.00000   0.04523   0.04556   2.99911
   D16       -0.51936   0.00462   0.00000   0.08988   0.08919  -0.43016
   D17       -2.47313  -0.00080   0.00000  -0.02086  -0.02051  -2.49365
   D18        1.77844  -0.00249   0.00000  -0.03240  -0.03209   1.74635
   D19       -0.46531  -0.00031   0.00000  -0.00966  -0.00965  -0.47496
   D20        0.96428  -0.00016   0.00000  -0.03810  -0.03850   0.92578
   D21       -1.06734  -0.00185   0.00000  -0.04964  -0.05008  -1.11741
   D22        2.97210   0.00033   0.00000  -0.02691  -0.02764   2.94446
   D23        2.94438   0.00243   0.00000   0.02550   0.02543   2.96982
   D24       -1.22663   0.00156   0.00000   0.02156   0.02151  -1.20512
   D25        0.85039  -0.00040   0.00000   0.00276   0.00278   0.85317
   D26        0.92069   0.00309   0.00000   0.03767   0.03768   0.95837
   D27        3.03287   0.00222   0.00000   0.03374   0.03375   3.06662
   D28       -1.17330   0.00025   0.00000   0.01493   0.01503  -1.15827
   D29       -1.08011   0.00142   0.00000   0.00858   0.00853  -1.07158
   D30        1.03206   0.00055   0.00000   0.00464   0.00461   1.03667
   D31        3.10908  -0.00142   0.00000  -0.01416  -0.01412   3.09496
   D32       -2.90055  -0.00115   0.00000  -0.01302  -0.01279  -2.91334
   D33       -0.86435   0.00186   0.00000   0.02044   0.02028  -0.84407
   D34        1.30938   0.00013   0.00000   0.00000  -0.00001   1.30937
   D35       -0.89942  -0.00197   0.00000  -0.02267  -0.02255  -0.92198
   D36        1.13678   0.00105   0.00000   0.01079   0.01052   1.14730
   D37       -2.97268  -0.00068   0.00000  -0.00965  -0.00977  -2.98245
   D38        1.10310   0.00089   0.00000   0.01062   0.01073   1.11383
   D39        3.13930   0.00391   0.00000   0.04408   0.04380  -3.10008
   D40       -0.97016   0.00218   0.00000   0.02364   0.02351  -0.94664
   D41        0.95665   0.00063   0.00000   0.00000   0.00001   0.95665
   D42        3.08230   0.00059   0.00000   0.00822   0.00817   3.09047
   D43       -1.13762  -0.00112   0.00000  -0.01533  -0.01530  -1.15292
   D44       -1.15757   0.00169   0.00000   0.01522   0.01529  -1.14228
   D45        0.96808   0.00166   0.00000   0.02343   0.02346   0.99154
   D46        3.03135  -0.00006   0.00000  -0.00011  -0.00001   3.03133
   D47        3.06189   0.00057   0.00000   0.00330   0.00327   3.06516
   D48       -1.09565   0.00053   0.00000   0.01152   0.01144  -1.08421
   D49        0.96762  -0.00118   0.00000  -0.01203  -0.01204   0.95559
   D50       -0.92191  -0.00080   0.00000   0.00000   0.00001  -0.92191
   D51        1.18325  -0.00137   0.00000  -0.01038  -0.01039   1.17286
   D52       -3.04850  -0.00087   0.00000  -0.00712  -0.00716  -3.05566
   D53       -3.04921   0.00009   0.00000  -0.00018  -0.00015  -3.04936
   D54       -0.94404  -0.00047   0.00000  -0.01055  -0.01055  -0.95459
   D55        1.10739   0.00003   0.00000  -0.00729  -0.00732   1.10008
   D56        1.17620   0.00013   0.00000   0.00695   0.00699   1.18319
   D57       -3.00182  -0.00044   0.00000  -0.00343  -0.00341  -3.00523
   D58       -0.95038   0.00006   0.00000  -0.00017  -0.00018  -0.95056
   D59        0.98761  -0.00078   0.00000  -0.01197  -0.01203   0.97558
   D60        3.09685  -0.00074   0.00000  -0.01562  -0.01578   3.08107
   D61       -1.13131   0.00047   0.00000  -0.00292  -0.00291  -1.13422
   D62       -1.11514  -0.00124   0.00000  -0.01325  -0.01325  -1.12839
   D63        0.99410  -0.00121   0.00000  -0.01690  -0.01700   0.97709
   D64        3.04913   0.00000   0.00000  -0.00421  -0.00413   3.04500
   D65        3.11543  -0.00023   0.00000  -0.00182  -0.00183   3.11359
   D66       -1.05852  -0.00019   0.00000  -0.00548  -0.00559  -1.06411
   D67        0.99651   0.00102   0.00000   0.00722   0.00729   1.00379
   D68       -1.05201   0.00009   0.00000   0.00020   0.00030  -1.05171
   D69       -3.12744   0.00159   0.00000   0.00938   0.00901  -3.11842
   D70        1.07995   0.00155   0.00000   0.01162   0.01149   1.09145
   D71        3.12202  -0.00133   0.00000  -0.00765  -0.00747   3.11455
   D72        1.04659   0.00017   0.00000   0.00153   0.00124   1.04784
   D73       -1.02920   0.00013   0.00000   0.00377   0.00372  -1.02548
   D74        1.06654  -0.00026   0.00000   0.00161   0.00182   1.06836
   D75       -1.00889   0.00124   0.00000   0.01079   0.01054  -0.99835
   D76       -3.08468   0.00121   0.00000   0.01303   0.01302  -3.07166
   D77       -1.17217   0.00332   0.00000   0.00000  -0.00000  -1.17217
   D78        3.06400  -0.00017   0.00000  -0.01751  -0.01738   3.04662
   D79        1.01250  -0.00106   0.00000  -0.03575  -0.03602   0.97649
   D80        0.12498   0.00199   0.00000   0.01807   0.01787   0.14285
   D81       -3.00786  -0.00061   0.00000  -0.03351  -0.03321  -3.04108
         Item               Value     Threshold  Converged?
 Maximum Force            0.037055     0.000450     NO 
 RMS     Force            0.006878     0.000300     NO 
 Maximum Displacement     0.292439     0.001800     NO 
 RMS     Displacement     0.055113     0.001200     NO 
 Predicted change in Energy=-1.305060D-02
 GradGradGradGradGradGradGradGradGradGradGradGradGradGradGradGradGradGrad

                          Input orientation:                          
 ---------------------------------------------------------------------
 Center     Atomic      Atomic             Coordinates (Angstroms)
 Number     Number       Type             X           Y           Z
 ---------------------------------------------------------------------
      1          8           0       -3.439435   -1.429061   -0.214991
      2          7           0       -3.137858   -0.239052   -0.025527
      3          8           0       -3.915408    0.704687    0.156901
      4          6           0       -1.685595   -0.006949   -0.029385
      5          6           0       -1.316824    1.270609    0.261668
      6          7           0       -0.066356    1.754606    0.385140
      7          6           0        1.193278    1.006072    0.365758
      8          1           0        1.826253    1.517901    1.109254
      9          6           0        1.928979    1.050472   -0.970022
     10          6           0        3.328343    0.449523   -0.794334
     11          6           0        3.262832   -0.962705   -0.201319
     12          6           0        2.438230   -0.998239    1.085564
     13          6           0        1.030324   -0.440840    0.839642
     14          1           0        0.460612   -0.452641    1.781951
     15          7           0        0.392763   -1.321276   -0.133796
     16          6           0       -0.845604   -1.124268   -0.429325
     17          1           0       -2.109179    1.992980    0.444246
     18          1           0        0.061105    2.752677    0.249871
     19          1           0        1.362729    0.482966   -1.716870
     20          1           0        1.997278    2.088865   -1.321903
     21          1           0        3.843539    0.430272   -1.761398
     22          1           0        3.914922    1.098387   -0.128680
     23          1           0        2.800384   -1.639976   -0.927792
     24          1           0        4.274506   -1.337075   -0.003521
     25          1           0        2.356525   -2.027124    1.453551
     26          1           0        2.930320   -0.405438    1.868250
     27          1           0       -1.325681   -1.852395   -1.084936
 ---------------------------------------------------------------------
                    Distance matrix (angstroms):
                    1          2          3          4          5
     1  O    0.000000
     2  N    1.242162   0.000000
     3  O    2.217596   1.236328   0.000000
     4  C    2.265570   1.470699   2.348019   0.000000
     5  C    3.467117   2.382797   2.661556   1.361197   0.000000
     6  N    4.676917   3.684759   3.996201   2.428341   1.346540
     7  C    5.265850   4.523514   5.121828   3.077379   2.526149
     8  H    6.177838   5.386744   5.876645   3.994339   3.264734
     9  C    5.961378   5.312983   5.962078   3.881762   3.478614
    10  C    7.047520   6.548050   7.310395   5.092453   4.833932
    11  C    6.718486   6.443866   7.378051   5.042812   5.116180
    12  C    6.035230   5.736170   6.643123   4.385396   4.463957
    13  C    4.697615   4.261805   5.122366   2.884387   2.961793
    14  H    4.489047   4.032565   4.809339   2.843551   2.905190
    15  N    3.834573   3.694349   4.769629   2.461286   3.130008
    16  C    2.620458   2.490199   3.621109   1.453939   2.536721
    17  H    3.730220   2.502166   2.237125   2.098444   1.087650
    18  H    5.473281   4.388582   4.473875   3.277877   2.023698
    19  H    5.382590   4.861815   5.605257   3.518508   3.422718
    20  H    6.569543   5.785275   6.250012   4.430190   3.763045
    21  H    7.673996   7.225037   7.997277   5.810538   5.606096
    22  H    7.777018   7.179212   7.845420   5.709414   5.249114
    23  H    6.283941   6.167608   7.195545   4.857769   5.180514
    24  H    7.717388   7.493283   8.442110   6.106776   6.175218
    25  H    6.060930   5.964321   6.962847   4.755938   5.078299
    26  H    6.779490   6.358999   7.143184   5.006644   4.840297
    27  H    2.324645   2.647491   3.845454   2.156246   3.400967
                    6          7          8          9         10
     6  N    0.000000
     7  C    1.465386   0.000000
     8  H    2.040181   1.102458   0.000000
     9  C    2.512693   1.525626   2.133643   0.000000
    10  C    3.823399   2.492802   2.649784   1.533045   0.000000
    11  C    4.337188   2.912166   3.151947   2.534353   1.533083
    12  C    3.787044   2.466838   2.589602   2.946521   2.534232
    13  C    2.495849   1.531233   2.131399   2.511269   2.956943
    14  H    2.664717   2.161075   2.490087   3.462485   3.959169
    15  N    3.152956   2.511360   3.414820   2.946934   3.491371
    16  C    3.091681   3.054102   4.060431   3.566532   4.475698
    17  H    2.057534   3.447662   4.019399   4.381233   5.786449
    18  H    1.015229   2.084676   2.319258   2.806171   4.131552
    19  H    2.842146   2.153995   3.045147   1.095666   2.171596
    20  H    2.698945   2.160337   2.503152   1.098519   2.176581
    21  H    4.652823   3.446770   3.673286   2.162514   1.095907
    22  H    4.067580   2.767731   2.463942   2.157341   1.099179
    23  H    4.633052   3.355239   3.882097   2.828364   2.159295
    24  H    5.343466   3.888531   3.922130   3.483677   2.170839
    25  H    4.616637   3.425889   3.600963   3.940571   3.482986
    26  H    3.980637   2.695767   2.343987   3.343373   2.824665
    27  H    4.093590   4.076825   5.109604   4.362643   5.200309
                   11         12         13         14         15
    11  C    0.000000
    12  C    1.528823   0.000000
    13  C    2.517942   1.534070   0.000000
    14  H    3.470729   2.166473   1.101207   0.000000
    15  N    2.893169   2.403150   1.459190   2.104571   0.000000
    16  C    4.117928   3.618609   2.365683   2.654623   1.288294
    17  H    6.165333   5.480658   3.992030   3.791351   4.192630
    18  H    4.925311   4.518681   3.389065   3.575044   4.105398
    19  H    2.827940   3.347284   2.738551   3.732415   2.588870
    20  H    3.488468   3.939613   3.465066   4.295870   3.951598
    21  H    2.170588   3.481485   3.929176   4.977857   4.198198
    22  H    2.163007   2.837402   3.409951   4.241280   4.273219
    23  H    1.095589   2.143965   2.773961   3.771870   2.555120
    24  H    1.096705   2.161672   3.469708   4.303013   3.883961
    25  H    2.166328   1.095762   2.156847   2.486228   2.621880
    26  H    2.168923   1.098254   2.160850   2.471666   3.359486
    27  H    4.756761   4.428056   3.353692   3.656391   2.034650
                   16         17         18         19         20
    16  C    0.000000
    17  H    3.475196   0.000000
    18  H    4.039075   2.307608   0.000000
    19  H    3.019554   4.359440   3.273207   0.000000
    20  H    4.382110   4.471182   2.580675   1.771316   0.000000
    21  H    5.116549   6.537720   4.872944   2.481769   2.520470
    22  H    5.262431   6.117053   4.210924   3.068351   2.466209
    23  H    3.715865   6.259766   5.309043   2.682607   3.834652
    24  H    5.142190   7.213959   5.877332   3.837520   4.319834
    25  H    3.822826   6.092820   5.437306   4.164103   4.977305
    26  H    4.478076   5.759926   4.563467   4.012442   4.155622
    27  H    1.091087   4.211791   4.991149   3.616739   5.160595
                   21         22         23         24         25
    21  H    0.000000
    22  H    1.765572   0.000000
    23  H    2.463534   3.062582   0.000000
    24  H    2.529700   2.465044   1.766086   0.000000
    25  H    4.311137   3.834172   2.453097   2.505569   0.000000
    26  H    3.834935   2.686756   3.059218   2.485621   1.769486
    27  H    5.691134   6.089783   4.134517   5.726876   4.475834
                   26         27
    26  H    0.000000
    27  H    5.378525   0.000000
 Symmetry turned off by external request.
 Stoichiometry    C9H13N3O2
 Framework group  C1[X(C9H13N3O2)]
 Deg. of freedom    75
 Full point group                 C1      NOp   1
 Rotational constants (GHZ):           1.6891401           0.4215404           0.3721752
 Standard basis: 6-31G(d) (6D, 7F)
   236 basis functions,   444 primitive gaussians,   236 cartesian basis functions
    52 alpha electrons       52 beta electrons
       nuclear repulsion energy       932.0706894148 Hartrees.
 NAtoms=   27 NActive=   27 NUniq=   27 SFac= 1.00D+00 NAtFMM=   60 NAOKFM=F Big=F
 Integral buffers will be    131072 words long.
 Raffenetti 1 integral format.
 Two-electron integral symmetry is turned off.
 One-electron integrals computed using PRISM.
 NBasis=   236 RedAO= T EigKep=  1.04D-03  NBF=   236
 NBsUse=   236 1.00D-06 EigRej= -1.00D+00 NBFU=   236
 Initial guess from the checkpoint file:  "/home/alexey/tmp/Gau-1206434.chk"
 B after Tr=     0.054738    0.002721   -0.001180
         Rot=    0.999999   -0.000686    0.001027    0.000637 Ang=  -0.16 deg.
 ExpMin= 1.61D-01 ExpMax= 5.48D+03 ExpMxC= 8.25D+02 IAcc=3 IRadAn=         5 AccDes= 0.00D+00
 Harris functional with IExCor=  205 and IRadAn=       5 diagonalized for initial guess.
 HarFok:  IExCor=  205 AccDes= 0.00D+00 IRadAn=         5 IDoV= 1 UseB2=F ITyADJ=14
 ICtDFT=  3500011 ScaDFX=  1.000000  1.000000  1.000000  1.000000
 FoFCou: FMM=F IPFlag=           0 FMFlag=      100000 FMFlg1=           0
         NFxFlg=           0 DoJE=T BraDBF=F KetDBF=T FulRan=T
         wScrn=  0.000000 ICntrl=       500 IOpCl=  0 I1Cent=   200000004 NGrid=           0
         NMat0=    1 NMatS0=      1 NMatT0=    0 NMatD0=    1 NMtDS0=    0 NMtDT0=    0
 Symmetry not used in FoFCou.
 Keep R1 ints in memory in canonical form, NReq=397720213.
 Requested convergence on RMS density matrix=1.00D-08 within 128 cycles.
 Requested convergence on MAX density matrix=1.00D-06.
 Requested convergence on             energy=1.00D-06.
 No special actions if energy rises.
 SCF Done:  E(RHF) =  -661.297081284     A.U. after   14 cycles
            NFock= 14  Conv=0.96D-08     -V/T= 2.0025
 ExpMin= 1.61D-01 ExpMax= 5.48D+03 ExpMxC= 8.25D+02 IAcc=3 IRadAn=         5 AccDes= 0.00D+00
 HarFok:  IExCor=  205 AccDes= 0.00D+00 IRadAn=         5 IDoV=-2 UseB2=F ITyADJ=14
 ICtDFT= 12500011 ScaDFX=  1.000000  1.000000  1.000000  1.000000
 Range of M.O.s used for correlation:    15   236
 NBasis=   236 NAE=    52 NBE=    52 NFC=    14 NFV=     0
 NROrb=    222 NOA=    38 NOB=    38 NVA=   184 NVB=   184
 Fully direct method using O(ONN) memory.
 JobTyp=1 Pass  1:  I=  15 to  52 NPSUse=  4 ParTrn=T ParDer=T DoDerP=T.
 Spin components of T(2) and E(2):
     alpha-alpha T2 =       0.9127188083D-01 E2=     -0.2723498845D+00
     alpha-beta  T2 =       0.4914681059D+00 E2=     -0.1488247615D+01
     beta-beta   T2 =       0.9127188083D-01 E2=     -0.2723498845D+00
 ANorm=    0.1293836105D+01
 E2 =    -0.2032947384D+01 EUMP2 =    -0.66333002866831D+03
          IDoAtm=111111111111111111111111111
          Differentiating once with respect to electric field.
                with respect to dipole field.
          Differentiating once with respect to nuclear coordinates.
 Keep R1 ints in memory in canonical form, NReq=397723379.
          There are     1 degrees of freedom in the 1st order CPHF.  IDoFFX=0 NUNeed=     1.
 LinEq1:  Iter=  0 NonCon=     1 RMS=4.57D-03 Max=1.16D-01 NDo=     1
 AX will form     1 AO Fock derivatives at one time.
 LinEq1:  Iter=  1 NonCon=     1 RMS=1.53D-03 Max=2.65D-02 NDo=     1
 LinEq1:  Iter=  2 NonCon=     1 RMS=6.38D-04 Max=1.92D-02 NDo=     1
 LinEq1:  Iter=  3 NonCon=     1 RMS=2.77D-04 Max=7.90D-03 NDo=     1
 LinEq1:  Iter=  4 NonCon=     1 RMS=8.60D-05 Max=1.81D-03 NDo=     1
 LinEq1:  Iter=  5 NonCon=     1 RMS=3.59D-05 Max=1.78D-03 NDo=     1
 LinEq1:  Iter=  6 NonCon=     1 RMS=1.39D-05 Max=5.29D-04 NDo=     1
 LinEq1:  Iter=  7 NonCon=     1 RMS=5.55D-06 Max=1.06D-04 NDo=     1
 LinEq1:  Iter=  8 NonCon=     1 RMS=2.20D-06 Max=5.05D-05 NDo=     1
[...]
    27  H    4.718308   4.417207   3.357884   3.662628   2.028187
                   16         17         18         19         20
    16  C    0.000000
    17  H    3.462625   0.000000
    18  H    4.091736   2.237000   0.000000
    19  H    2.991340   4.307725   3.514908   0.000000
    20  H    4.376870   4.455918   2.886148   1.768445   0.000000
    21  H    5.096530   6.514570   5.089625   2.499157   2.521199
    22  H    5.249975   6.101461   4.315307   3.070180   2.461372
    23  H    3.693791   6.233033   5.422369   2.704521   3.843041
    24  H    5.133648   7.198150   5.937613   3.849851   4.317148
    25  H    3.822176   6.080372   5.368633   4.172057   4.985161
    26  H    4.497248   5.774854   4.484342   4.036373   4.182269
    27  H    1.088944   4.217026   5.081092   3.576207   5.142717
                   21         22         23         24         25
    21  H    0.000000
    22  H    1.758856   0.000000
    23  H    2.469459   3.062219   0.000000
    24  H    2.517289   2.459838   1.764596   0.000000
    25  H    4.312036   3.839458   2.444136   2.519655   0.000000
    26  H    3.846643   2.704245   3.060368   2.491581   1.767973
    27  H    5.644561   6.055295   4.082832   5.688892   4.454046
                   26         27
    26  H    0.000000
    27  H    5.378232   0.000000
 Symmetry turned off by external request.
 Stoichiometry    C9H13N3O2
 Framework group  C1[X(C9H13N3O2)]
 Deg. of freedom    75
 Full point group                 C1      NOp   1
 Rotational constants (GHZ):           1.6811824           0.4201619           0.3726064

 **********************************************************************

            Population analysis using the SCF Density.

 **********************************************************************

 Alpha  occ. eigenvalues --  -20.59528 -20.59083 -15.84837 -15.63965 -15.56079
 Alpha  occ. eigenvalues --  -11.34848 -11.29539 -11.29513 -11.28568 -11.27082
 Alpha  occ. eigenvalues --  -11.23657 -11.23157 -11.22648 -11.22045  -1.57231
 Alpha  occ. eigenvalues --   -1.37198  -1.30846  -1.22992  -1.14548  -1.09675
 Alpha  occ. eigenvalues --   -1.02709  -1.01229  -0.94212  -0.89762  -0.85496
 Alpha  occ. eigenvalues --   -0.82405  -0.78552  -0.77463  -0.75073  -0.72019
 Alpha  occ. eigenvalues --   -0.69994  -0.69570  -0.67756  -0.64817  -0.63754
 Alpha  occ. eigenvalues --   -0.62276  -0.60235  -0.57624  -0.56948  -0.55023
 Alpha  occ. eigenvalues --   -0.54525  -0.50717  -0.50042  -0.48412  -0.48129
 Alpha  occ. eigenvalues --   -0.47596  -0.46104  -0.46059  -0.43922  -0.41578
 Alpha  occ. eigenvalues --   -0.39804  -0.33772
 Alpha virt. eigenvalues --    0.07667   0.11767   0.17392   0.21878   0.24111
 Alpha virt. eigenvalues --    0.25670   0.27167   0.28760   0.29092   0.29667
 Alpha virt. eigenvalues --    0.30690   0.31863   0.32062   0.32804   0.33997
 Alpha virt. eigenvalues --    0.34435   0.35954   0.37409   0.38626   0.40035
 Alpha virt. eigenvalues --    0.41231   0.42530   0.45291   0.46338   0.46801
 Alpha virt. eigenvalues --    0.47123   0.48528   0.54152   0.57743   0.59513
 Alpha virt. eigenvalues --    0.64030   0.69637   0.70042   0.72954   0.74309
 Alpha virt. eigenvalues --    0.74968   0.75844   0.76924   0.78693   0.79519
 Alpha virt. eigenvalues --    0.81528   0.84720   0.85756   0.85857   0.88564
 Alpha virt. eigenvalues --    0.89453   0.91034   0.92181   0.92911   0.94508
 Alpha virt. eigenvalues --    0.95435   0.98080   0.99743   1.01795   1.02501
 Alpha virt. eigenvalues --    1.03115   1.05943   1.06881   1.07809   1.09085
 Alpha virt. eigenvalues --    1.10263   1.11342   1.11895   1.12399   1.13975
 Alpha virt. eigenvalues --    1.14803   1.15030   1.15808   1.16987   1.18775
 Alpha virt. eigenvalues --    1.19161   1.21252   1.22465   1.23867   1.24380
 Alpha virt. eigenvalues --    1.24682   1.26429   1.26694   1.27647   1.29476
 Alpha virt. eigenvalues --    1.30219   1.33556   1.36321   1.37106   1.41098
 Alpha virt. eigenvalues --    1.42539   1.47349   1.48566   1.51153   1.54407
 Alpha virt. eigenvalues --    1.56115   1.58798   1.59756   1.63530   1.65482
 Alpha virt. eigenvalues --    1.67777   1.68634   1.72747   1.75496   1.77599
 Alpha virt. eigenvalues --    1.81709   1.84819   1.87832   1.90615   1.93371
 Alpha virt. eigenvalues --    1.95829   1.96678   1.99503   2.01500   2.02607
 Alpha virt. eigenvalues --    2.04874   2.05868   2.08107   2.09772   2.12180
 Alpha virt. eigenvalues --    2.13253   2.15361   2.18870   2.19998   2.22256
 Alpha virt. eigenvalues --    2.22761   2.24398   2.25725   2.28281   2.29619
 Alpha virt. eigenvalues --    2.32342   2.33803   2.34804   2.36590   2.38502
 Alpha virt. eigenvalues --    2.40503   2.41821   2.43106   2.45092   2.48029
 Alpha virt. eigenvalues --    2.50704   2.51969   2.53223   2.55638   2.61509
 Alpha virt. eigenvalues --    2.62452   2.65466   2.67846   2.70157   2.70533
 Alpha virt. eigenvalues --    2.72331   2.72622   2.78060   2.78368   2.82522
 Alpha virt. eigenvalues --    2.88326   2.89073   2.93078   2.93812   2.96463
 Alpha virt. eigenvalues --    2.99728   3.01342   3.04645   3.06000   3.07956
 Alpha virt. eigenvalues --    3.09454   3.15079   3.20981   3.25119   3.26997
 Alpha virt. eigenvalues --    3.33722   3.37707   3.38828   3.52333   3.65650
 Alpha virt. eigenvalues --    4.14590   4.28025   4.34966   4.38999   4.46247
 Alpha virt. eigenvalues --    4.56565   4.61947   4.62376   4.73491   4.79699
 Alpha virt. eigenvalues --    4.99388   5.00936   5.04965   5.11175
          Condensed to atoms (all electrons):
               1          2          3          4          5          6
     1  O    8.328878   0.299560  -0.076381  -0.092350   0.005229  -0.000021
     2  N    0.299560   5.716012   0.305950   0.264772  -0.057924   0.000967
     3  O   -0.076381   0.305950   8.341168  -0.090718   0.004863   0.000671
     4  C   -0.092350   0.264772  -0.090718   5.233684   0.554401  -0.045777
     5  C    0.005229  -0.057924   0.004863   0.554401   4.717301   0.317989
     6  N   -0.000021   0.000967   0.000671  -0.045777   0.317989   7.193818
     7  C    0.000005  -0.000145   0.000002   0.004257  -0.030472   0.170420
     8  H   -0.000000   0.000002  -0.000000  -0.000242   0.003127  -0.050682
     9  C   -0.000000  -0.000004  -0.000000   0.000827   0.000665  -0.061693
    10  C    0.000000   0.000000   0.000000  -0.000037  -0.000054   0.003748
    11  C   -0.000000  -0.000000  -0.000000  -0.000029   0.000025  -0.000190
    12  C   -0.000000   0.000002  -0.000000  -0.000121  -0.000176   0.003875
    13  C   -0.000035  -0.000027  -0.000004  -0.011196  -0.000775  -0.047612
    14  H   -0.000004  -0.000104   0.000000   0.002659   0.006158  -0.007000
    15  N    0.000433   0.002441  -0.000012  -0.063624  -0.006591   0.001549
    16  C   -0.002142  -0.023742   0.002217   0.333704  -0.049886  -0.001768
    17  H    0.000254  -0.007221   0.016903  -0.025724   0.376858  -0.034166
    18  H    0.000001  -0.000054   0.000012   0.001501  -0.031264   0.338785
    19  H    0.000001  -0.000004   0.000000  -0.001194   0.001214  -0.000340
    20  H    0.000000  -0.000000   0.000000  -0.000077   0.000154  -0.000405
    21  H   -0.000000   0.000000   0.000000   0.000001   0.000001  -0.000077
    22  H   -0.000000   0.000000  -0.000000  -0.000000  -0.000003  -0.000116
    23  H    0.000000  -0.000000   0.000000   0.000041  -0.000000  -0.000030
    24  H    0.000000   0.000000   0.000000   0.000000  -0.000000   0.000006
    25  H    0.000000  -0.000000   0.000000   0.000024  -0.000000  -0.000091
    26  H    0.000000  -0.000000   0.000000   0.000006  -0.000002  -0.000060
    27  H    0.004959  -0.000802  -0.000009  -0.061721   0.002257   0.000021
               7          8          9         10         11         12
     1  O    0.000005  -0.000000  -0.000000   0.000000  -0.000000  -0.000000
     2  N   -0.000145   0.000002  -0.000004   0.000000  -0.000000   0.000002
     3  O    0.000002  -0.000000  -0.000000   0.000000  -0.000000  -0.000000
     4  C    0.004257  -0.000242   0.000827  -0.000037  -0.000029  -0.000121
     5  C   -0.030472   0.003127   0.000665  -0.000054   0.000025  -0.000176
     6  N    0.170420  -0.050682  -0.061693   0.003748  -0.000190   0.003875
     7  C    5.015165   0.418520   0.350636  -0.054682  -0.008995  -0.061125
     8  H    0.418520   0.538825  -0.055173   0.000775  -0.000331  -0.002203
     9  C    0.350636  -0.055173   5.158104   0.324740  -0.050385  -0.005336
    10  C   -0.054682   0.000775   0.324740   5.119377   0.337032  -0.060959
    11  C   -0.008995  -0.000331  -0.050385   0.337032   5.119767   0.335961
    12  C   -0.061125  -0.002203  -0.005336  -0.060959   0.335961   5.118766
    13  C    0.339513  -0.038133  -0.060235  -0.000276  -0.050646   0.372155
    14  H   -0.046403  -0.000765   0.004431  -0.000406   0.004198  -0.036456
    15  N   -0.057808   0.003913  -0.014649   0.001555  -0.013067  -0.082209
    16  C   -0.001677   0.000011  -0.001278  -0.000030   0.000034   0.002508
    17  H    0.001688  -0.000047  -0.000073   0.000001   0.000000   0.000000
    18  H   -0.021290  -0.004478   0.001338  -0.000083   0.000004  -0.000114
    19  H   -0.036810   0.004371   0.390190  -0.032109  -0.002217   0.000695
    20  H   -0.042390  -0.002083   0.399464  -0.035343   0.003934  -0.000416
    21  H    0.004597  -0.000076  -0.036347   0.402403  -0.034916   0.004350
    22  H   -0.004837   0.003563  -0.046955   0.397728  -0.045427  -0.001024
    23  H    0.000573   0.000035  -0.001955  -0.039014   0.399161  -0.037874
    24  H   -0.000131  -0.000102   0.004387  -0.038447   0.402300  -0.038715
    25  H    0.005141  -0.000024  -0.000425   0.004191  -0.033422   0.398238
    26  H   -0.003894   0.001685   0.000966  -0.002233  -0.041484   0.396719
    27  H   -0.000412   0.000009  -0.000056   0.000007   0.000012  -0.000034
              13         14         15         16         17         18
     1  O   -0.000035  -0.000004   0.000433  -0.002142   0.000254   0.000001
     2  N   -0.000027  -0.000104   0.002441  -0.023742  -0.007221  -0.000054
     3  O   -0.000004   0.000000  -0.000012   0.002217   0.016903   0.000012
     4  C   -0.011196   0.002659  -0.063624   0.333704  -0.025724   0.001501
     5  C   -0.000775   0.006158  -0.006591  -0.049886   0.376858  -0.031264
     6  N   -0.047612  -0.007000   0.001549  -0.001768  -0.034166   0.338785
     7  C    0.339513  -0.046403  -0.057808  -0.001677   0.001688  -0.021290
     8  H   -0.038133  -0.000765   0.003913   0.000011  -0.000047  -0.004478
     9  C   -0.060235   0.004431  -0.014649  -0.001278  -0.000073   0.001338
    10  C   -0.000276  -0.000406   0.001555  -0.000030   0.000001  -0.000083
    11  C   -0.050646   0.004198  -0.013067   0.000034   0.000000   0.000004
    12  C    0.372155  -0.036456  -0.082209   0.002508   0.000000  -0.000114
    13  C    5.039595   0.402800   0.243437  -0.070382  -0.000007   0.002972
    14  H    0.402800   0.527028  -0.037292  -0.004389   0.000095  -0.000108
    15  N    0.243437  -0.037292   6.967506   0.584921  -0.000080  -0.000130
    16  C   -0.070382  -0.004389   0.584921   4.697364   0.001944  -0.000201
    17  H   -0.000007   0.000095  -0.000080   0.001944   0.381505  -0.002816
    18  H    0.002972  -0.000108  -0.000130  -0.000201  -0.002816   0.311115
    19  H   -0.007579   0.000105   0.007709   0.002995   0.000016  -0.000149
    20  H    0.004343  -0.000066   0.000126  -0.000037   0.000002   0.000792
    21  H   -0.000433   0.000010  -0.000041   0.000004  -0.000000   0.000001
    22  H    0.000045  -0.000055   0.000019  -0.000002   0.000000   0.000001
    23  H   -0.007520   0.000003   0.008611   0.000112   0.000000   0.000000
    24  H    0.004697  -0.000056   0.000137   0.000006   0.000000  -0.000000
    25  H   -0.035547  -0.002806   0.000391  -0.000024  -0.000000   0.000002
    26  H   -0.047422  -0.001047   0.004911  -0.000058   0.000000  -0.000000
    27  H    0.005053  -0.000177  -0.041265   0.403675  -0.000078   0.000001
              19         20         21         22         23         24
     1  O    0.000001   0.000000  -0.000000  -0.000000   0.000000   0.000000
     2  N   -0.000004  -0.000000   0.000000   0.000000  -0.000000   0.000000
     3  O    0.000000   0.000000   0.000000  -0.000000   0.000000   0.000000
     4  C   -0.001194  -0.000077   0.000001  -0.000000   0.000041   0.000000
     5  C    0.001214   0.000154   0.000001  -0.000003  -0.000000  -0.000000
     6  N   -0.000340  -0.000405  -0.000077  -0.000116  -0.000030   0.000006
     7  C   -0.036810  -0.042390   0.004597  -0.004837   0.000573  -0.000131
     8  H    0.004371  -0.002083  -0.000076   0.003563   0.000035  -0.000102
     9  C    0.390190   0.399464  -0.036347  -0.046955  -0.001955   0.004387
    10  C   -0.032109  -0.035343   0.402403   0.397728  -0.039014  -0.038447
    11  C   -0.002217   0.003934  -0.034916  -0.045427   0.399161   0.402300
    12  C    0.000695  -0.000416   0.004350  -0.001024  -0.037874  -0.038715
    13  C   -0.007579   0.004343  -0.000433   0.000045  -0.007520   0.004697
    14  H    0.000105  -0.000066   0.000010  -0.000055   0.000003  -0.000056
    15  N    0.007709   0.000126  -0.000041   0.000019   0.008611   0.000137
    16  C    0.002995  -0.000037   0.000004  -0.000002   0.000112   0.000006
    17  H    0.000016   0.000002  -0.000000   0.000000   0.000000   0.000000
    18  H   -0.000149   0.000792   0.000001   0.000001   0.000000  -0.000000
    19  H    0.505296  -0.024761  -0.002788   0.003963   0.001514  -0.000066
    20  H   -0.024761   0.541431  -0.002692  -0.002995  -0.000045  -0.000083
    21  H   -0.002788  -0.002692   0.524389  -0.027439  -0.002902  -0.002243
    22  H    0.003963  -0.002995  -0.027439   0.571569   0.004141  -0.003659
    23  H    0.001514  -0.000045  -0.002902   0.004141   0.499116  -0.025479
    24  H   -0.000066  -0.000083  -0.002243  -0.003659  -0.025479   0.538479
    25  H   -0.000029   0.000012  -0.000087  -0.000080  -0.002320  -0.002289
    26  H    0.000019  -0.000030  -0.000081   0.002381   0.004071  -0.003037
    27  H    0.000079   0.000000  -0.000000   0.000000  -0.000036  -0.000000
              25         26         27
     1  O    0.000000   0.000000   0.004959
     2  N   -0.000000  -0.000000  -0.000802
     3  O    0.000000   0.000000  -0.000009
     4  C    0.000024   0.000006  -0.061721
     5  C   -0.000000  -0.000002   0.002257
     6  N   -0.000091  -0.000060   0.000021
     7  C    0.005141  -0.003894  -0.000412
     8  H   -0.000024   0.001685   0.000009
     9  C   -0.000425   0.000966  -0.000056
    10  C    0.004191  -0.002233   0.000007
    11  C   -0.033422  -0.041484   0.000012
    12  C    0.398238   0.396719  -0.000034
    13  C   -0.035547  -0.047422   0.005053
    14  H   -0.002806  -0.001047  -0.000177
    15  N    0.000391   0.004911  -0.041265
    16  C   -0.000024  -0.000058   0.403675
    17  H   -0.000000   0.000000  -0.000078
    18  H    0.000002  -0.000000   0.000001
    19  H   -0.000029   0.000019   0.000079
    20  H    0.000012  -0.000030   0.000000
    21  H   -0.000087  -0.000081  -0.000000
    22  H   -0.000080   0.002381   0.000000
    23  H   -0.002320   0.004071  -0.000036
    24  H   -0.002289  -0.003037  -0.000000
    25  H    0.506418  -0.024100  -0.000013
    26  H   -0.024100   0.562452   0.000001
    27  H   -0.000013   0.000001   0.439947
 Mulliken charges:
               1
     1  O   -0.468384
     2  N    0.500321
     3  O   -0.504663
     4  C   -0.003069
     5  C    0.186905
     6  N   -0.781822
     7  C    0.060555
     8  H    0.179503
     9  C   -0.301185
    10  C   -0.327885
    11  C   -0.321319
    12  C   -0.306508
    13  C   -0.036781
    14  H    0.189647
    15  N   -0.510891
    16  C    0.126122
    17  H    0.290944
    18  H    0.404165
    19  H    0.189878
    20  H    0.161166
    21  H    0.174367
    22  H    0.149184
    23  H    0.199797
    24  H    0.164295
    25  H    0.186837
    26  H    0.150236
    27  H    0.248584
 Sum of Mulliken charges =  -0.00000
 Mulliken charges with hydrogens summed into heavy atoms:
               1
     1  O   -0.468384
     2  N    0.500321
     3  O   -0.504663
     4  C   -0.003069
     5  C    0.477849
     6  N   -0.377658
     7  C    0.240058
     9  C    0.049860
    10  C   -0.004334
    11  C    0.042773
    12  C    0.030566
    13  C    0.152866
    15  N   -0.510891
    16  C    0.374706
 Electronic spatial extent (au):  <R**2>=           3000.9764
 Charge=              0.0000 electrons
 Dipole moment (field-independent basis, Debye):
    X=              5.2584    Y=              4.8190    Z=              1.2389  Tot=              7.2393
 Quadrupole moment (field-independent basis, Debye-Ang):
   XX=           -105.4389   YY=            -79.3683   ZZ=            -81.4737
   XY=             -1.9523   XZ=              0.0800   YZ=              1.9178
 Traceless Quadrupole moment (field-independent basis, Debye-Ang):
   XX=            -16.6786   YY=              9.3920   ZZ=              7.2866
   XY=             -1.9523   XZ=              0.0800   YZ=              1.9178
 Octapole moment (field-independent basis, Debye-Ang**2):
  XXX=             88.6577  YYY=             35.9916  ZZZ=             -1.7669  XYY=             -4.4091
  XXY=              9.8565  XXZ=              3.9223  XZZ=            -10.0167  YZZ=             -0.5381
  YYZ=              7.7710  XYZ=              0.0693
 Hexadecapole moment (field-independent basis, Debye-Ang**3):
 XXXX=          -3364.8754 YYYY=           -601.9816 ZZZZ=           -302.9661 XXXY=            -19.8922
 XXXZ=             -5.9614 YYYX=             -8.0251 YYYZ=             25.6675 ZZZX=              5.3515
 ZZZY=              7.7314 XXYY=           -627.6014 XXZZ=           -522.4209 YYZZ=           -157.1696
 XXYZ=             -3.4961 YYXZ=              3.3289 ZZXY=              5.2953
 N-N= 9.314814988042D+02 E-N=-3.409694995495D+03  KE= 6.596267206167D+02
 Unable to Open any file for archive entry.
 1\1\GINC-LOTUS\FOpt\RMP2-FC\6-31G(d)\C9H13N3O2\ALEXEY\30-Jun-2023\0\\#
 MP2/6-31G* SCF=Tight Opt=(ModRedun, MaxCycle=20 ) NoSymm\\MolName:\\0,
 1\O,-3.4508075043,-1.4010452154,-0.3408045493\N,-3.1308009205,-0.21739
 04934,-0.1005340118\O,-3.9259721572,0.7210702463,0.0698983895\C,-1.688
 2720797,-0.022927808,-0.0190425484\C,-1.2998530832,1.2597188772,0.2699
 097509\N,-0.0566762584,1.7534460883,0.3792583453\C,1.2049083613,1.0257
 140734,0.355573427\H,1.8520293965,1.5532594158,1.0726265787\C,1.912519
 7256,1.0353053944,-0.9981361682\C,3.3093649831,0.4262230165,-0.8301951
 638\C,3.2573368261,-0.9697798049,-0.2036661105\C,2.4587666078,-0.97900
 87708,1.1016337922\C,1.0507309771,-0.4226732117,0.8617253773\H,0.47208
 26034,-0.3996414001,1.7988786883\N,0.4052140503,-1.3142584267,-0.09648
 63801\C,-0.8406777134,-1.1367024607,-0.3987806903\H,-2.0960903094,1.98
 47382933,0.4199512405\H,0.0016010034,2.7373423154,0.6134664168\H,1.319
 4016687,0.4590752103,-1.7162280098\H,1.9813331573,2.063180789,-1.37550
 77278\H,3.8160769408,0.3872060637,-1.8012633232\H,3.9085057642,1.09148
 6413,-0.1922204058\H,2.7803946142,-1.6657744082,-0.9007859257\H,4.2754
 070649,-1.3349879671,-0.0236783967\H,2.3706211828,-2.0007774604,1.4853
 530581\H,2.9677156825,-0.3819792648,1.870970239\H,-1.2938805839,-1.887
 8395042,-1.0439158923\\Version=ES64L-G16RevC.02\HF=-661.298783\MP2=-66
 3.3335017\RMSD=9.118e-09\RMSF=3.179e-03\Dipole=1.9233058,1.6911703,0.4
 565083\PG=C01 [X(C9H13N3O2)]\\@
 The archive entry for this job was punched.


 IF YOU GET CONFUSED, LOGIC OUT YOUR DILEMMA

           --  PICKER X-RAY CORP.    DIGITAL PRINTER MANUAL CA. 1964
 Job cpu time:       0 days  1 hours 19 minutes 35.3 seconds.
 Elapsed time:       0 days  0 hours 24 minutes  7.2 seconds.
 File lengths (MBytes):  RWF=     36 Int=      0 D2E=      0 Chk=      7 Scr=      1
 Normal termination of Gaussian 16 at Fri Jun 30 21:19:35 2023.
