 Entering Gaussian System, Link 0=g16
 Initial command:
 /home/alexey/programs//g16/l1.exe "/home/alexey/tmp/Gau-1475480.inp" -scrdir="/home/alexey/tmp/"
 Entering Link 1 = /home/alexey/programs//g16/l1.exe PID=   1475482.
  
 Copyright (c) 1988-2021, Gaussian, Inc.  All Rights Reserved.
  
 This is part of the Gaussian(R) 16 program.  It is based on
 the Gaussian(R) 09 system (copyright 2009, Gaussian, Inc.),
 the Gaussian(R) 03 system (copyright 2003, Gaussian, Inc.),
 the Gaussian(R) 98 system (copyright 1998, Gaussian, Inc.),
 the Gaussian(R) 94 system (copyright 1995, Gaussian, Inc.),
 the Gaussian 92(TM) system (copyright 1992, Gaussian, Inc.),
 the Gaussian 90(TM) system (copyright 1990, Gaussian, Inc.),
 the Gaussian 88(TM) system (copyright 1988, Gaussian, Inc.),
 the Gaussian 86(TM) system (copyright 1986, Carnegie Mellon
 University), and the Gaussian 82(TM) system (copyright 1983,
 Carnegie Mellon University). Gaussian is a federally registered
 trademark of Gaussian, Inc.
  
 This software contains proprietary and confidential information,
 including trade secrets, belonging to Gaussian, Inc.
  
 This software is provided under written license and may be
 used, copied, transmitted, or stored only in accord with that
 written license.
  
 The following legend is applicable only to US Government
 contracts under FAR:
  
                    RESTRICTED RIGHTS LEGEND
  
 Use, reproduction and disclosure by the US Government is
 subject to restrictions as set forth in subparagraphs (a)
 and (c) of the Commercial Computer Software - Restricted
 Rights clause in FAR 52.227-19.
  
 Gaussian, Inc.
 340 Quinnipiac St., Bldg. 40, Wallingford CT 06492
  
  
 ---------------------------------------------------------------
 Warning -- This program may not be used in any manner that
 competes with the business of Gaussian, Inc. or will provide
 assistance to any competitor of Gaussian, Inc.  The licensee
 of this program is prohibited from giving any competitor of
 Gaussian, Inc. access to this program.  By using this program,
 the user acknowledges that Gaussian, Inc. is engaged in the
 business of creating and licensing software in the field of
 computational chemistry and represents and warrants to the
 licensee that it is not a competitor of Gaussian, Inc. and that
 it will not use this program in any manner prohibited above.
 ---------------------------------------------------------------
  

 Cite this work as:
 Gaussian 16, Revision C.02,
 M. J. Frisch, G. W. Trucks, H. B. Schlegel, G. E. Scuseria, 
 M. A. Robb, J. R. Cheeseman, G. Scalmani, V. Barone, 
 G. A. Petersson, H. Nakatsuji, X. Li, M. Caricato, A. V. Marenich, 
 J. Bloino, B. G. Janesko, R. Gomperts, B. Mennucci, H. P. Hratchian, 
 J. V. Ortiz, A. F. Izmaylov, J. L. Sonnenberg, D. Williams-Young, 
 F. Ding, F. Lipparini, F. Egidi, J. Goings, B. Peng, A. Petrone, 
 T. Henderson, D. Ranasinghe, V. G. Zakrzewski, J. Gao, N. Rega, 
 G. Zheng, W. Liang, M. Hada, M. Ehara, K. Toyota, R. Fukuda, 
 J. Hasegawa, M. Ishida, T. Nakajima, Y. Honda, O. Kitao, H. Nakai, 
 T. Vreven, K. Throssell, J. A. Montgomery, Jr., J. E. Peralta, 
 F. Ogliaro, M. J. Bearpark, J. J. Heyd, E. N. Brothers, K. N. Kudin, 
 V. N. Staroverov, T. A. Keith, R. Kobayashi, J. Normand, 
 K. Raghavachari, A. P. Rendell, J. C. Burant, S. S. Iyengar, 
 J. Tomasi, M. Cossi, J. M. Millam, M. Klene, C. Adamo, R. Cammi, 
 J. W. Ochterski, R. L. Martin, K. Morokuma, O. Farkas, 
 J. B. Foresman, and D. J. Fox, Gaussian, Inc., Wallingford CT, 2019.
 
 ******************************************
 Gaussian 16:  ES64L-G16RevC.02  7-Dec-2021
                 2-Jul-2023 
 ******************************************
 %mem=8GB
 %NPROCS=4
 Will use up to    4 processors via shared memory.
 %NoSave
 ---------------------------------------------------------
 #MP2/6-31G* SCF=Tight Opt=(ModRedun, MaxCycle=20 ) NoSymm
 ---------------------------------------------------------
 1/6=20,18=120,19=15,38=1/1,3;
 2/9=110,12=2,15=1,17=6,18=5,40=1/2;
 3/5=1,6=6,7=1,11=9,25=1,30=1,71=1/1,2,3;
 4//1;
 5/5=2,32=2,38=5/2;
 8/6=4,10=2/1;
 9/15=2,16=-3/6;
 10/5=1,31=1/2;
 6/7=2,8=2,9=2,10=2/1;
 7/12=2,30=1/1,2,3,16;
 1/6=20,18=20,19=15/3(2);
 2/9=110,15=1/2;
 99//99;
 2/9=110,15=1/2;
 3/5=1,6=6,7=1,11=9,25=1,30=1,71=1/1,2,3;
 4/5=5,16=3,69=1/1;
 5/5=2,32=2,38=5/2;
 8/6=4,10=2/1;
 9/15=2,16=-3/6;
 10/5=1,31=1/2;
 7/12=2,30=1/1,2,3,16;
 1/6=20,18=20,19=15/3(-8);
 2/9=110,15=1/2;
 6/7=2,8=2,9=2,10=2/1;
 99/9=10/99;
 --------
 MolName:
 --------
 Symbolic Z-matrix:
 Charge =  0 Multiplicity = 1
 8                    0    -3.55613  -1.52547  -0.05187 
 7                    0    -3.23185  -0.35619   0.14665 
 8                    0    -4.0222    0.53319   0.46341 
 6                    0    -1.76413   0.0062   -0.02487 
 6                    0    -1.37415   1.30606   0.32574 
 7                    0    -0.08909   1.78983   0.23898 
 6                    0     1.19513   1.01536   0.283 
 1                    0     1.81535   1.51391   1.07168 
 6                    0     2.03624   1.05147  -1.01591 
 6                    0     3.4251    0.44456  -0.743 
 6                    0     3.30394  -0.96822  -0.15057 
 6                    0     2.38001  -0.98392   1.08687 
 6                    0     0.96635  -0.42425   0.76339 
 1                    0     0.37926  -0.45482   1.71178 
 7                    0     0.35169  -1.28825  -0.25084 
 6                    0    -0.86773  -1.03     -0.5992 
 1                    0    -2.13608   1.99953   0.71891 
 1                    0     0.11721   2.74953  -0.04875 
 1                    0     1.52414   0.47959  -1.81895 
 1                    0     2.15839   2.09899  -1.36438 
 1                    0     4.01593   0.40899  -1.68438 
 1                    0     3.97075   1.09105  -0.0198 
 1                    0     2.88894  -1.65174  -0.92545 
 1                    0     4.31072  -1.34942   0.12731 
 1                    0     2.28331  -2.02821   1.45687 
 1                    0     2.83957  -0.37971   1.8971 
 1                    0    -1.35867  -1.68507  -1.33471 
 
 The following ModRedundant input section has been read:
 D      13      15      16       4 F                                           
 D       1       2       4      16 F                                           
 D       7      13      15      16 F                                           
 D       7       9      10      11 F                                           
 D       9      10      11      12 F                                           
 D       6       7      13      15 F                                           
 

 GradGradGradGradGradGradGradGradGradGradGradGradGradGradGradGradGradGrad
 Berny optimization.
 Initialization pass.
                           ----------------------------
                           !    Initial Parameters    !
                           ! (Angstroms and Degrees)  !
 --------------------------                            --------------------------
 ! Name  Definition              Value          Derivative Info.                !
 --------------------------------------------------------------------------------
 ! R1    R(1,2)                  1.2295         estimate D2E/DX2                !
 ! R2    R(2,3)                  1.2313         estimate D2E/DX2                !
 ! R3    R(2,4)                  1.5215         estimate D2E/DX2                !
 ! R4    R(4,5)                  1.4017         estimate D2E/DX2                !
 ! R5    R(4,16)                 1.4856         estimate D2E/DX2                !
 ! R6    R(5,6)                  1.3758         estimate D2E/DX2                !
 ! R7    R(5,17)                 1.1027         estimate D2E/DX2                !
 ! R8    R(6,7)                  1.5003         estimate D2E/DX2                !
 ! R9    R(6,18)                 1.0229         estimate D2E/DX2                !
 ! R10   R(7,8)                  1.1204         estimate D2E/DX2                !
 ! R11   R(7,9)                  1.5479         estimate D2E/DX2                !
 ! R12   R(7,13)                 1.5348         estimate D2E/DX2                !
 ! R13   R(9,10)                 1.54           estimate D2E/DX2                !
 ! R14   R(9,19)                 1.1109         estimate D2E/DX2                !
 ! R15   R(9,20)                 1.1107         estimate D2E/DX2                !
 ! R16   R(10,11)                1.5367         estimate D2E/DX2                !
 ! R17   R(10,21)                1.112          estimate D2E/DX2                !
 ! R18   R(10,22)                1.113          estimate D2E/DX2                !
 ! R19   R(11,12)                1.5444         estimate D2E/DX2                !
 ! R20   R(11,23)                1.1135         estimate D2E/DX2                !
 ! R21   R(11,24)                1.1118         estimate D2E/DX2                !
 ! R22   R(12,13)                1.5544         estimate D2E/DX2                !
 ! R23   R(12,25)                1.1121         estimate D2E/DX2                !
 ! R24   R(12,26)                1.1103         estimate D2E/DX2                !
 ! R25   R(13,14)                1.1158         estimate D2E/DX2                !
 ! R26   R(13,15)                1.4673         estimate D2E/DX2                !
 ! R27   R(15,16)                1.2942         estimate D2E/DX2                !
 ! R28   R(16,27)                1.1005         estimate D2E/DX2                !
 ! A1    A(1,2,3)              123.9986         estimate D2E/DX2                !
 ! A2    A(1,2,4)              117.5629         estimate D2E/DX2                !
 ! A3    A(3,2,4)              118.4359         estimate D2E/DX2                !
 ! A4    A(2,4,5)              117.4566         estimate D2E/DX2                !
 ! A5    A(2,4,16)             117.3554         estimate D2E/DX2                !
 ! A6    A(5,4,16)             125.1451         estimate D2E/DX2                !
 ! A7    A(4,5,6)              124.7625         estimate D2E/DX2                !
 ! A8    A(4,5,17)             118.6943         estimate D2E/DX2                !
 ! A9    A(6,5,17)             116.5334         estimate D2E/DX2                !
 ! A10   A(5,6,7)              128.034          estimate D2E/DX2                !
 ! A11   A(5,6,18)             122.4112         estimate D2E/DX2                !
 ! A12   A(7,6,18)             108.6583         estimate D2E/DX2                !
 ! A13   A(6,7,8)              105.3549         estimate D2E/DX2                !
 ! A14   A(6,7,9)              115.37           estimate D2E/DX2                !
 ! A15   A(6,7,13)             111.4557         estimate D2E/DX2                !
 ! A16   A(8,7,9)              106.2316         estimate D2E/DX2                !
 ! A17   A(8,7,13)             106.2347         estimate D2E/DX2                !
 ! A18   A(9,7,13)             111.4406         estimate D2E/DX2                !
 ! A19   A(7,9,10)             109.3993         estimate D2E/DX2                !
 ! A20   A(7,9,19)             110.1263         estimate D2E/DX2                !
 ! A21   A(7,9,20)             110.1841         estimate D2E/DX2                !
 ! A22   A(10,9,19)            109.9343         estimate D2E/DX2                !
 ! A23   A(10,9,20)            109.1527         estimate D2E/DX2                !
 ! A24   A(19,9,20)            108.0232         estimate D2E/DX2                !
 ! A25   A(9,10,11)            111.07           estimate D2E/DX2                !
 ! A26   A(9,10,21)            109.9834         estimate D2E/DX2                !
 ! A27   A(9,10,22)            109.17           estimate D2E/DX2                !
 ! A28   A(11,10,21)           109.8063         estimate D2E/DX2                !
 ! A29   A(11,10,22)           108.7938         estimate D2E/DX2                !
 ! A30   A(21,10,22)           107.9498         estimate D2E/DX2                !
 ! A31   A(10,11,12)           111.4322         estimate D2E/DX2                !
 ! A32   A(10,11,23)           108.9924         estimate D2E/DX2                !
 ! A33   A(10,11,24)           109.8867         estimate D2E/DX2                !
 ! A34   A(12,11,23)           109.1705         estimate D2E/DX2                !
 ! A35   A(12,11,24)           109.7542         estimate D2E/DX2                !
 ! A36   A(23,11,24)           107.5149         estimate D2E/DX2                !
 ! A37   A(11,12,13)           111.9418         estimate D2E/DX2                !
 ! A38   A(11,12,25)           109.1559         estimate D2E/DX2                !
 ! A39   A(11,12,26)           109.3632         estimate D2E/DX2                !
 ! A40   A(13,12,25)           109.1623         estimate D2E/DX2                !
 ! A41   A(13,12,26)           109.4115         estimate D2E/DX2                !
 ! A42   A(25,12,26)           107.7105         estimate D2E/DX2                !
 ! A43   A(7,13,12)            105.503          estimate D2E/DX2                !
 ! A44   A(7,13,14)            111.7256         estimate D2E/DX2                !
 ! A45   A(7,13,15)            113.4788         estimate D2E/DX2                !
 ! A46   A(12,13,14)           106.9633         estimate D2E/DX2                !
 ! A47   A(12,13,15)           108.2281         estimate D2E/DX2                !
 ! A48   A(14,13,15)           110.5463         estimate D2E/DX2                !
 ! A49   A(13,15,16)           117.5969         estimate D2E/DX2                !
 ! A50   A(4,16,15)            127.1297         estimate D2E/DX2                !
 ! A51   A(4,16,27)            113.8519         estimate D2E/DX2                !
 ! A52   A(15,16,27)           118.7792         estimate D2E/DX2                !
 ! D1    D(1,2,4,5)           -173.9966         estimate D2E/DX2                !
 ! D2    D(1,2,4,16)             8.2589         Frozen                          !
 ! D3    D(3,2,4,5)              6.5645         estimate D2E/DX2                !
 ! D4    D(3,2,4,16)          -171.18           estimate D2E/DX2                !
 ! D5    D(2,4,5,6)            179.5924         estimate D2E/DX2                !
 ! D6    D(2,4,5,17)             0.7703         estimate D2E/DX2                !
 ! D7    D(16,4,5,6)            -2.8576         estimate D2E/DX2                !
 ! D8    D(16,4,5,17)          178.3203         estimate D2E/DX2                !
 ! D9    D(2,4,16,15)         -141.4326         estimate D2E/DX2                !
 ! D10   D(2,4,16,27)           32.8291         estimate D2E/DX2                !
 ! D11   D(5,4,16,15)           41.0152         estimate D2E/DX2                !
 ! D12   D(5,4,16,27)         -144.7231         estimate D2E/DX2                !
 ! D13   D(4,5,6,7)            -25.3994         estimate D2E/DX2                !
 ! D14   D(4,5,6,18)           142.4957         estimate D2E/DX2                !
 ! D15   D(17,5,6,7)           153.4457         estimate D2E/DX2                !
 ! D16   D(17,5,6,18)          -38.6592         estimate D2E/DX2                !
 ! D17   D(5,6,7,8)           -127.8438         estimate D2E/DX2                !
 ! D18   D(5,6,7,9)            115.347          estimate D2E/DX2                !
 ! D19   D(5,6,7,13)           -13.0452         estimate D2E/DX2                !
 ! D20   D(18,6,7,8)            62.9255         estimate D2E/DX2                !
 ! D21   D(18,6,7,9)           -53.8837         estimate D2E/DX2                !
 ! D22   D(18,6,7,13)          177.7241         estimate D2E/DX2                !
 ! D23   D(6,7,9,10)           169.5946         estimate D2E/DX2                !
 ! D24   D(6,7,9,19)           -69.4734         estimate D2E/DX2                !
 ! D25   D(6,7,9,20)            49.5916         estimate D2E/DX2                !
 ! D26   D(8,7,9,10)            53.2814         estimate D2E/DX2                !
 ! D27   D(8,7,9,19)           174.2134         estimate D2E/DX2                !
 ! D28   D(8,7,9,20)           -66.7216         estimate D2E/DX2                !
 ! D29   D(13,7,9,10)          -62.0058         estimate D2E/DX2                !
 ! D30   D(13,7,9,19)           58.9261         estimate D2E/DX2                !
 ! D31   D(13,7,9,20)          177.9912         estimate D2E/DX2                !
 ! D32   D(6,7,13,12)         -166.6575         estimate D2E/DX2                !
 ! D33   D(6,7,13,14)          -50.7797         estimate D2E/DX2                !
 ! D34   D(6,7,13,15)           75.0222         Frozen                          !
 ! D35   D(8,7,13,12)          -52.4043         estimate D2E/DX2                !
 ! D36   D(8,7,13,14)           63.4736         estimate D2E/DX2                !
 ! D37   D(8,7,13,15)         -170.7245         estimate D2E/DX2                !
 ! D38   D(9,7,13,12)           62.8811         estimate D2E/DX2                !
 ! D39   D(9,7,13,14)          178.7589         estimate D2E/DX2                !
 ! D40   D(9,7,13,15)          -55.4392         estimate D2E/DX2                !
 ! D41   D(7,9,10,11)           54.8124         Frozen                          !
 ! D42   D(7,9,10,21)          176.5804         estimate D2E/DX2                !
 ! D43   D(7,9,10,22)          -65.1513         estimate D2E/DX2                !
 ! D44   D(19,9,10,11)         -66.2361         estimate D2E/DX2                !
 ! D45   D(19,9,10,21)          55.5319         estimate D2E/DX2                !
 ! D46   D(19,9,10,22)         173.8002         estimate D2E/DX2                !
 ! D47   D(20,9,10,11)         175.4458         estimate D2E/DX2                !
 ! D48   D(20,9,10,21)         -62.7862         estimate D2E/DX2                !
 ! D49   D(20,9,10,22)          55.4821         estimate D2E/DX2                !
 ! D50   D(9,10,11,12)         -52.823          Frozen                          !
 ! D51   D(9,10,11,23)          67.7203         estimate D2E/DX2                !
 ! D52   D(9,10,11,24)        -174.7012         estimate D2E/DX2                !
 ! D53   D(21,10,11,12)       -174.6943         estimate D2E/DX2                !
 ! D54   D(21,10,11,23)        -54.151          estimate D2E/DX2                !
 ! D55   D(21,10,11,24)         63.4275         estimate D2E/DX2                !
 ! D56   D(22,10,11,12)         67.3642         estimate D2E/DX2                !
 ! D57   D(22,10,11,23)       -172.0925         estimate D2E/DX2                !
 ! D58   D(22,10,11,24)        -54.514          estimate D2E/DX2                !
 ! D59   D(10,11,12,13)         56.5394         estimate D2E/DX2                !
 ! D60   D(10,11,12,25)        177.5075         estimate D2E/DX2                !
 ! D61   D(10,11,12,26)        -64.8841         estimate D2E/DX2                !
 ! D62   D(23,11,12,13)        -63.8993         estimate D2E/DX2                !
 ! D63   D(23,11,12,25)         57.0688         estimate D2E/DX2                !
 ! D64   D(23,11,12,26)        174.6773         estimate D2E/DX2                !
 ! D65   D(24,11,12,13)        178.4943         estimate D2E/DX2                !
 ! D66   D(24,11,12,25)        -60.5376         estimate D2E/DX2                !
 ! D67   D(24,11,12,26)         57.0708         estimate D2E/DX2                !
 ! D68   D(11,12,13,7)         -59.817          estimate D2E/DX2                !
 ! D69   D(11,12,13,14)       -178.9095         estimate D2E/DX2                !
 ! D70   D(11,12,13,15)         61.9621         estimate D2E/DX2                !
 ! D71   D(25,12,13,7)         179.2187         estimate D2E/DX2                !
 ! D72   D(25,12,13,14)         60.1262         estimate D2E/DX2                !
 ! D73   D(25,12,13,15)        -59.0023         estimate D2E/DX2                !
 ! D74   D(26,12,13,7)          61.5787         estimate D2E/DX2                !
 ! D75   D(26,12,13,14)        -57.5138         estimate D2E/DX2                !
 ! D76   D(26,12,13,15)       -176.6422         estimate D2E/DX2                !
 ! D77   D(7,13,15,16)         -67.1591         Frozen                          !
 ! D78   D(12,13,15,16)        176.106          estimate D2E/DX2                !
 ! D79   D(14,13,15,16)         59.2677         estimate D2E/DX2                !
 ! D80   D(13,15,16,4)          -4.0616         Frozen                          !
 ! D81   D(13,15,16,27)       -178.0728         estimate D2E/DX2                !
 --------------------------------------------------------------------------------
 Trust Radius=3.00D-01 FncErr=1.00D-07 GrdErr=1.00D-07 EigMax=2.50D+02 EigMin=1.00D-04
 Number of steps in this run=     20 maximum allowed number of steps=    162.
 GradGradGradGradGradGradGradGradGradGradGradGradGradGradGradGradGradGrad

                          Input orientation:                          
 ---------------------------------------------------------------------
 Center     Atomic      Atomic             Coordinates (Angstroms)
 Number     Number       Type             X           Y           Z
 ---------------------------------------------------------------------
      1          8           0       -3.556130   -1.525470   -0.051870
      2          7           0       -3.231850   -0.356190    0.146650
      3          8           0       -4.022200    0.533190    0.463410
      4          6           0       -1.764130    0.006200   -0.024870
      5          6           0       -1.374150    1.306060    0.325740
      6          7           0       -0.089090    1.789830    0.238980
      7          6           0        1.195130    1.015360    0.283000
      8          1           0        1.815350    1.513910    1.071680
      9          6           0        2.036240    1.051470   -1.015910
     10          6           0        3.425100    0.444560   -0.743000
     11          6           0        3.303940   -0.968220   -0.150570
     12          6           0        2.380010   -0.983920    1.086870
     13          6           0        0.966350   -0.424250    0.763390
     14          1           0        0.379260   -0.454820    1.711780
     15          7           0        0.351690   -1.288250   -0.250840
     16          6           0       -0.867730   -1.030000   -0.599200
     17          1           0       -2.136080    1.999530    0.718910
     18          1           0        0.117210    2.749530   -0.048750
     19          1           0        1.524140    0.479590   -1.818950
     20          1           0        2.158390    2.098990   -1.364380
     21          1           0        4.015930    0.408990   -1.684380
     22          1           0        3.970750    1.091050   -0.019800
     23          1           0        2.888940   -1.651740   -0.925450
     24          1           0        4.310720   -1.349420    0.127310
     25          1           0        2.283310   -2.028210    1.456870
     26          1           0        2.839570   -0.379710    1.897100
     27          1           0       -1.358670   -1.685070   -1.334710
 ---------------------------------------------------------------------
                    Distance matrix (angstroms):
                    1          2          3          4          5
     1  O    0.000000
     2  N    1.229546   0.000000
     3  O    2.172744   1.231254   0.000000
     4  C    2.357542   1.521495   2.369602   0.000000
     5  C    3.594605   2.499239   2.761965   1.401659   0.000000
     6  N    4.805848   3.806687   4.135078   2.461039   1.375842
     7  C    5.398373   4.636582   5.242668   3.141720   2.586026
     8  H    6.273196   5.461427   5.950529   4.035875   3.282155
     9  C    6.232543   5.575466   6.257931   4.064180   3.673636
    10  C    7.286717   6.763702   7.544903   5.256993   4.991712
    11  C    6.883373   6.571109   7.503568   5.162425   5.223385
    12  C    6.068588   5.724599   6.608980   4.403430   4.462852
    13  C    4.725480   4.243805   5.088449   2.874398   2.943374
    14  H    4.443427   3.936937   4.680539   2.796894   2.845391
    15  N    3.920066   3.724043   4.791525   2.490654   3.168819
    16  C    2.787930   2.568925   3.677415   1.485631   2.563036
    17  H    3.877663   2.660378   2.402682   2.159843   1.102733
    18  H    5.636405   4.571639   4.723260   3.326540   2.109029
    19  H    5.740382   5.213593   5.997827   3.775651   3.699031
    20  H    6.893122   6.112758   6.632665   4.643298   3.995508
    21  H    7.983941   7.514552   8.321055   6.027048   5.822223
    22  H    7.968759   7.348446   8.026951   5.836589   5.360372
    23  H    6.505230   6.347592   7.380156   5.021043   5.337415
    24  H    7.870859   7.607709   8.549546   6.226128   6.277635
    25  H    6.052116   5.910103   6.878022   4.766146   5.076793
    26  H    6.783526   6.318763   7.069140   5.003694   4.802752
    27  H    2.549506   2.732975   3.904908   2.177263   3.421139
                    6          7          8          9         10
     6  N    0.000000
     7  C    1.500321   0.000000
     8  H    2.096762   1.120375   0.000000
     9  C    2.576228   1.547882   2.149576   0.000000
    10  C    3.888903   2.520170   2.651013   1.540049   0.000000
    11  C    4.389902   2.927397   3.141777   2.536735   1.536750
    12  C    3.809076   2.459119   2.560903   2.946638   2.545819
    13  C    2.508208   1.534794   2.138296   2.547219   3.011560
    14  H    2.725242   2.206464   2.519520   3.529134   4.013972
    15  N    3.147823   2.510577   3.426873   2.982839   3.562401
    16  C    3.043069   3.035979   4.057368   3.597111   4.541299
    17  H    2.112930   3.500795   3.996758   4.616998   5.956663
    18  H    1.022923   2.068651   2.380294   2.738883   4.091089
    19  H    2.924776   2.193967   3.083888   1.110930   2.184615
    20  H    2.778041   2.194535   2.528712   1.110698   2.174352
    21  H    4.738905   3.492160   3.695845   2.186048   1.111999
    22  H    4.127658   2.793114   2.452731   2.176265   1.112970
    23  H    4.697762   3.382716   3.893901   2.835952   2.171458
    24  H    5.406079   3.914502   3.913741   3.499212   2.181771
    25  H    4.657142   3.438812   3.593602   3.957286   3.501100
    26  H    4.004162   2.693645   2.305676   3.343537   2.827082
    27  H    4.020356   4.053542   5.108678   4.372150   5.269715
                   11         12         13         14         15
    11  C    0.000000
    12  C    1.544393   0.000000
    13  C    2.568181   1.554447   0.000000
    14  H    3.505093   2.161819   1.115819   0.000000
    15  N    2.971238   2.448707   1.467299   2.132427   0.000000
    16  C    4.196179   3.659613   2.363775   2.688205   1.294231
    17  H    6.257584   5.425075   3.937227   3.651926   4.235435
    18  H    4.897681   4.510936   3.384300   3.665514   4.049628
    19  H    2.836782   3.364248   2.792228   3.827522   2.637966
    20  H    3.491904   3.944880   3.509288   4.376072   3.997190
    21  H    2.180874   3.506602   3.998225   5.050291   4.285127
    22  H    2.168485   2.839132   3.454843   4.276317   4.337285
    23  H    1.113492   2.180464   2.838180   3.832244   2.650445
    24  H    1.111817   2.186775   3.527796   4.332116   3.977519
    25  H    2.179249   1.112112   2.188147   2.483131   2.682344
    26  H    2.180582   1.110287   2.190031   2.468423   3.410079
    27  H    4.863743   4.509256   3.376005   3.716856   2.063388
                   16         17         18         19         20
    16  C    0.000000
    17  H    3.538951   0.000000
    18  H    3.944357   2.495820   0.000000
    19  H    3.080210   4.706183   3.204011   0.000000
    20  H    4.419670   4.774145   2.514061   1.797599   0.000000
    21  H    5.205616   6.793589   4.832539   2.496420   2.531591
    22  H    5.314645   6.218071   4.195374   3.097858   2.471535
    23  H    3.821723   6.425459   5.274682   2.683950   3.846341
    24  H    5.238911   7.288806   5.866678   3.859823   4.330034
    25  H    3.892673   6.024806   5.457626   4.194806   5.000884
    26  H    4.516466   5.639682   4.581454   4.034573   4.152735
    27  H    1.100506   4.289289   4.847431   3.637421   5.166208
                   21         22         23         24         25
    21  H    0.000000
    22  H    1.799465   0.000000
    23  H    2.468337   3.084382   0.000000
    24  H    2.541875   2.468424   1.794759   0.000000
    25  H    4.336977   3.841587   2.486758   2.517713   0.000000
    26  H    3.851346   2.667810   3.096334   2.497354   1.794653
    27  H    5.778727   6.151305   4.267411   5.864482   4.601596
                   26         27
    26  H    0.000000
    27  H    5.456536   0.000000
 Symmetry turned off by external request.
 Stoichiometry    C9H13N3O2
 Framework group  C1[X(C9H13N3O2)]
 Deg. of freedom    75
 Full point group                 C1      NOp   1
 Rotational constants (GHZ):           1.6879207           0.4023955           0.3574664
 Standard basis: 6-31G(d) (6D, 7F)
   236 basis functions,   444 primitive gaussians,   236 cartesian basis functions
    52 alpha electrons       52 beta electrons
       nuclear repulsion energy       918.9187300798 Hartrees.
 NAtoms=   27 NActive=   27 NUniq=   27 SFac= 1.00D+00 NAtFMM=   60 NAOKFM=F Big=F
 Integral buffers will be    131072 words long.
 Raffenetti 1 integral format.
 Two-electron integral symmetry is turned off.
 One-electron integrals computed using PRISM.
 NBasis=   236 RedAO= T EigKep=  1.31D-03  NBF=   236
 NBsUse=   236 1.00D-06 EigRej= -1.00D+00 NBFU=   236
 ExpMin= 1.61D-01 ExpMax= 5.48D+03 ExpMxC= 8.25D+02 IAcc=3 IRadAn=         5 AccDes= 0.00D+00
 Harris functional with IExCor=  205 and IRadAn=       5 diagonalized for initial guess.
 HarFok:  IExCor=  205 AccDes= 0.00D+00 IRadAn=         5 IDoV= 1 UseB2=F ITyADJ=14
 ICtDFT=  3500011 ScaDFX=  1.000000  1.000000  1.000000  1.000000
 FoFCou: FMM=F IPFlag=           0 FMFlag=      100000 FMFlg1=           0
         NFxFlg=           0 DoJE=T BraDBF=F KetDBF=T FulRan=T
         wScrn=  0.000000 ICntrl=       500 IOpCl=  0 I1Cent=   200000004 NGrid=           0
         NMat0=    1 NMatS0=      1 NMatT0=    0 NMatD0=    1 NMtDS0=    0 NMtDT0=    0
 Symmetry not used in FoFCou.
 Keep R1 ints in memory in canonical form, NReq=397720213.
 Requested convergence on RMS density matrix=1.00D-08 within 128 cycles.
 Requested convergence on MAX density matrix=1.00D-06.
 Requested convergence on             energy=1.00D-06.
 No special actions if energy rises.
 SCF Done:  E(RHF) =  -661.273176401     A.U. after   16 cycles
            NFock= 16  Conv=0.86D-08     -V/T= 2.0037
 ExpMin= 1.61D-01 ExpMax= 5.48D+03 ExpMxC= 8.25D+02 IAcc=3 IRadAn=         5 AccDes= 0.00D+00
 HarFok:  IExCor=  205 AccDes= 0.00D+00 IRadAn=         5 IDoV=-2 UseB2=F ITyADJ=14
 ICtDFT= 12500011 ScaDFX=  1.000000  1.000000  1.000000  1.000000
 Range of M.O.s used for correlation:    15   236
 NBasis=   236 NAE=    52 NBE=    52 NFC=    14 NFV=     0
 NROrb=    222 NOA=    38 NOB=    38 NVA=   184 NVB=   184
 Fully direct method using O(ONN) memory.
 JobTyp=1 Pass  1:  I=  15 to  52 NPSUse=  4 ParTrn=T ParDer=T DoDerP=T.
 Spin components of T(2) and E(2):
     alpha-alpha T2 =       0.9195789141D-01 E2=     -0.2717670821D+00
     alpha-beta  T2 =       0.5007603253D+00 E2=     -0.1494847579D+01
     beta-beta   T2 =       0.9195789141D-01 E2=     -0.2717670821D+00
 ANorm=    0.1297950734D+01
 E2 =    -0.2038381743D+01 EUMP2 =    -0.66331155814417D+03
          IDoAtm=111111111111111111111111111
          Differentiating once with respect to electric field.
                with respect to dipole field.
          Differentiating once with respect to nuclear coordinates.
 Keep R1 ints in memory in canonical form, NReq=397723379.
          There are     1 degrees of freedom in the 1st order CPHF.  IDoFFX=0 NUNeed=     1.
 LinEq1:  Iter=  0 NonCon=     1 RMS=4.58D-03 Max=1.10D-01 NDo=     1
 AX will form     1 AO Fock derivatives at one time.
 LinEq1:  Iter=  1 NonCon=     1 RMS=1.55D-03 Max=3.04D-02 NDo=     1
 LinEq1:  Iter=  2 NonCon=     1 RMS=6.35D-04 Max=1.74D-02 NDo=     1
 LinEq1:  Iter=  3 NonCon=     1 RMS=2.96D-04 Max=9.19D-03 NDo=     1
 LinEq1:  Iter=  4 NonCon=     1 RMS=9.09D-05 Max=1.97D-03 NDo=     1
 LinEq1:  Iter=  5 NonCon=     1 RMS=3.85D-05 Max=2.04D-03 NDo=     1
 LinEq1:  Iter=  6 NonCon=     1 RMS=1.56D-05 Max=5.80D-04 NDo=     1
 LinEq1:  Iter=  7 NonCon=     1 RMS=6.17D-06 Max=1.13D-04 NDo=     1
 LinEq1:  Iter=  8 NonCon=     1 RMS=2.50D-06 Max=6.65D-05 NDo=     1
 LinEq1:  Iter=  9 NonCon=     1 RMS=9.51D-07 Max=2.66D-05 NDo=     1
 LinEq1:  Iter= 10 NonCon=     1 RMS=4.63D-07 Max=1.50D-05 NDo=     1
 LinEq1:  Iter= 11 NonCon=     1 RMS=1.63D-07 Max=5.85D-06 NDo=     1
 LinEq1:  Iter= 12 NonCon=     1 RMS=5.71D-08 Max=9.28D-07 NDo=     1
 LinEq1:  Iter= 13 NonCon=     1 RMS=1.83D-08 Max=3.40D-07 NDo=     1
 LinEq1:  Iter= 14 NonCon=     1 RMS=6.26D-09 Max=1.53D-07 NDo=     1
 LinEq1:  Iter= 15 NonCon=     1 RMS=2.46D-09 Max=5.06D-08 NDo=     1
 LinEq1:  Iter= 16 NonCon=     1 RMS=9.35D-10 Max=1.43D-08 NDo=     1
 LinEq1:  Iter= 17 NonCon=     1 RMS=2.88D-10 Max=4.32D-09 NDo=     1
 LinEq1:  Iter= 18 NonCon=     1 RMS=9.66D-11 Max=1.27D-09 NDo=     1
 LinEq1:  Iter= 19 NonCon=     0 RMS=3.17D-11 Max=8.27D-10 NDo=     1
 Linear equations converged to 1.000D-10 1.000D-09 after    19 iterations.
 End of Minotr F.D. properties file   721 does not exist.
 End of Minotr F.D. properties file   722 does not exist.
 End of Minotr F.D. properties file   788 does not exist.

 **********************************************************************

            Population analysis using the SCF Density.

 **********************************************************************

 Alpha  occ. eigenvalues --  -20.60019 -20.59530 -15.85435 -15.62328 -15.57529
 Alpha  occ. eigenvalues --  -11.35618 -11.30601 -11.30218 -11.30017 -11.27711
 Alpha  occ. eigenvalues --  -11.24570 -11.23832 -11.23380 -11.22831  -1.58658
 Alpha  occ. eigenvalues --   -1.38185  -1.28077  -1.22807  -1.13227  -1.08330
 Alpha  occ. eigenvalues --   -1.01766  -1.00554  -0.93396  -0.89025  -0.84857
 Alpha  occ. eigenvalues --   -0.81506  -0.78142  -0.76817  -0.74007  -0.70885
 Alpha  occ. eigenvalues --   -0.70441  -0.69903  -0.67466  -0.64526  -0.63424
 Alpha  occ. eigenvalues --   -0.61505  -0.60660  -0.57359  -0.56259  -0.54964
 Alpha  occ. eigenvalues --   -0.53080  -0.50719  -0.49054  -0.48455  -0.47725
 Alpha  occ. eigenvalues --   -0.47238  -0.45995  -0.45708  -0.44090  -0.42160
 Alpha  occ. eigenvalues --   -0.40540  -0.33984
 Alpha virt. eigenvalues --    0.06849   0.11679   0.19044   0.21201   0.22767
 Alpha virt. eigenvalues --    0.24095   0.26285   0.27370   0.28541   0.28914
 Alpha virt. eigenvalues --    0.29876   0.31044   0.31893   0.32205   0.33381
 Alpha virt. eigenvalues --    0.33664   0.34157   0.35674   0.37492   0.38562
 Alpha virt. eigenvalues --    0.40806   0.42437   0.44894   0.45392   0.45616
 Alpha virt. eigenvalues --    0.46058   0.49401   0.52915   0.57597   0.58423
 Alpha virt. eigenvalues --    0.63244   0.69175   0.69912   0.72161   0.73970
 Alpha virt. eigenvalues --    0.75249   0.75718   0.76031   0.77548   0.79679
 Alpha virt. eigenvalues --    0.80233   0.83587   0.84900   0.85835   0.88241
 Alpha virt. eigenvalues --    0.88341   0.90345   0.91156   0.92085   0.93664
 Alpha virt. eigenvalues --    0.95857   0.97176   0.98216   1.00157   1.01878
 Alpha virt. eigenvalues --    1.02669   1.05231   1.05830   1.06515   1.08457
 Alpha virt. eigenvalues --    1.09243   1.10424   1.10800   1.11683   1.13181
 Alpha virt. eigenvalues --    1.13715   1.14321   1.14787   1.16269   1.17343
 Alpha virt. eigenvalues --    1.17741   1.19505   1.20542   1.21978   1.22917
 Alpha virt. eigenvalues --    1.23632   1.24474   1.25721   1.27085   1.27835
 Alpha virt. eigenvalues --    1.28827   1.31969   1.32294   1.35482   1.40693
 Alpha virt. eigenvalues --    1.41930   1.45107   1.46200   1.47790   1.51303
 Alpha virt. eigenvalues --    1.52329   1.55646   1.60704   1.62342   1.66351
 Alpha virt. eigenvalues --    1.69538   1.69931   1.71708   1.74265   1.76543
 Alpha virt. eigenvalues --    1.78757   1.80678   1.84186   1.88480   1.92463
 Alpha virt. eigenvalues --    1.93632   1.96679   1.97925   1.99035   2.00017
 Alpha virt. eigenvalues --    2.03498   2.03962   2.05942   2.08794   2.11827
 Alpha virt. eigenvalues --    2.12446   2.15542   2.17620   2.17836   2.19107
 Alpha virt. eigenvalues --    2.21397   2.22557   2.24727   2.25089   2.27190
 Alpha virt. eigenvalues --    2.29156   2.32653   2.34178   2.35589   2.36904
 Alpha virt. eigenvalues --    2.38446   2.39685   2.40699   2.42937   2.46177
 Alpha virt. eigenvalues --    2.48636   2.50233   2.52328   2.56186   2.57416
 Alpha virt. eigenvalues --    2.61326   2.62631   2.67169   2.68015   2.68934
 Alpha virt. eigenvalues --    2.70546   2.71526   2.75535   2.78852   2.80793
 Alpha virt. eigenvalues --    2.82954   2.86456   2.90373   2.92138   2.95723
 Alpha virt. eigenvalues --    2.97565   2.98681   3.02318   3.02657   3.05511
 Alpha virt. eigenvalues --    3.06820   3.11652   3.20071   3.22438   3.26994
 Alpha virt. eigenvalues --    3.28484   3.32847   3.36272   3.43697   3.57414
 Alpha virt. eigenvalues --    4.09206   4.23117   4.31878   4.35898   4.42480
 Alpha virt. eigenvalues --    4.53246   4.59623   4.60601   4.70757   4.77568
 Alpha virt. eigenvalues --    4.94048   4.99213   5.02091   5.11061
          Condensed to atoms (all electrons):
               1          2          3          4          5          6
     1  O    8.297161   0.314765  -0.088550  -0.080551   0.003276  -0.000016
     2  N    0.314765   5.688119   0.307903   0.262051  -0.042348   0.001005
     3  O   -0.088550   0.307903   8.328243  -0.086232   0.007568   0.000414
     4  C   -0.080551   0.262051  -0.086232   5.232593   0.573943  -0.052441
     5  C    0.003276  -0.042348   0.007568   0.573943   4.663968   0.305657
     6  N   -0.000016   0.001005   0.000414  -0.052441   0.305657   7.218473
     7  C    0.000003  -0.000083   0.000001   0.002138  -0.030146   0.197828
     8  H   -0.000000   0.000003  -0.000000  -0.000039   0.001421  -0.052639
     9  C   -0.000000  -0.000002   0.000000   0.000314   0.002239  -0.052082
    10  C   -0.000000   0.000000  -0.000000  -0.000012  -0.000074   0.003214
    11  C    0.000000  -0.000000  -0.000000  -0.000023   0.000013  -0.000163
    12  C   -0.000000   0.000002  -0.000000   0.000086  -0.000031   0.003701
    13  C   -0.000026  -0.000055  -0.000004  -0.013932   0.000074  -0.044678
    14  H   -0.000006  -0.000036  -0.000001   0.003509   0.006080  -0.006022
    15  N   -0.000072   0.001675  -0.000014  -0.061504  -0.004492   0.001800
    16  C    0.005081  -0.030356   0.001857   0.321664  -0.040040  -0.002415
    17  H    0.000084  -0.003151   0.010124  -0.032028   0.380878  -0.035573
    18  H    0.000000  -0.000036   0.000008   0.000687  -0.022530   0.326468
    19  H    0.000000   0.000001   0.000000  -0.000438   0.000239   0.001163
    20  H    0.000000  -0.000000   0.000000  -0.000014   0.000031  -0.002379
    21  H   -0.000000  -0.000000   0.000000  -0.000000   0.000001  -0.000053
    22  H   -0.000000   0.000000  -0.000000   0.000000  -0.000003  -0.000095
    23  H   -0.000000  -0.000000   0.000000   0.000023  -0.000001  -0.000024
    24  H   -0.000000   0.000000   0.000000   0.000000  -0.000000   0.000004
    25  H    0.000000  -0.000000   0.000000   0.000017  -0.000000  -0.000074
    26  H   -0.000000  -0.000000   0.000000   0.000010  -0.000003  -0.000067
    27  H    0.004157  -0.000138  -0.000018  -0.063902   0.002230   0.000122
               7          8          9         10         11         12
     1  O    0.000003  -0.000000  -0.000000  -0.000000   0.000000  -0.000000
     2  N   -0.000083   0.000003  -0.000002   0.000000  -0.000000   0.000002
     3  O    0.000001  -0.000000   0.000000  -0.000000  -0.000000  -0.000000
     4  C    0.002138  -0.000039   0.000314  -0.000012  -0.000023   0.000086
     5  C   -0.030146   0.001421   0.002239  -0.000074   0.000013  -0.000031
     6  N    0.197828  -0.052639  -0.052082   0.003214  -0.000163   0.003701
     7  C    4.974079   0.418845   0.339550  -0.049069  -0.007566  -0.064242
     8  H    0.418845   0.551710  -0.061700   0.001859  -0.000402  -0.002509
     9  C    0.339550  -0.061700   5.181486   0.316790  -0.053052  -0.006884
    10  C   -0.049069   0.001859   0.316790   5.127604   0.332592  -0.059510
    11  C   -0.007566  -0.000402  -0.053052   0.332592   5.122817   0.331085
    12  C   -0.064242  -0.002509  -0.006884  -0.059510   0.331085   5.137175
    13  C    0.340972  -0.043324  -0.046548  -0.002585  -0.047849   0.365417
    14  H   -0.038986  -0.000883   0.003828  -0.000397   0.003954  -0.041002
    15  N   -0.054823   0.003967  -0.012319   0.001476  -0.007565  -0.073144
    16  C   -0.004373   0.000154  -0.001412   0.000023  -0.000025   0.003230
    17  H    0.001506   0.000011  -0.000062   0.000001   0.000000   0.000001
    18  H   -0.027176  -0.001599   0.000613  -0.000122   0.000011  -0.000128
    19  H   -0.035194   0.004203   0.385014  -0.032392  -0.002413   0.000693
    20  H   -0.041038  -0.001972   0.397418  -0.037481   0.004163  -0.000347
    21  H    0.004013  -0.000087  -0.035814   0.400280  -0.035889   0.004184
    22  H   -0.004038   0.003500  -0.045636   0.395990  -0.045549  -0.001298
    23  H    0.000380   0.000036  -0.002041  -0.040121   0.396805  -0.036919
    24  H   -0.000140  -0.000092   0.004401  -0.038519   0.400338  -0.037766
    25  H    0.004949   0.000002  -0.000366   0.004105  -0.034175   0.395866
    26  H   -0.004484   0.001715   0.000989  -0.002363  -0.042366   0.395003
    27  H   -0.000396   0.000010  -0.000062   0.000006   0.000003  -0.000019
              13         14         15         16         17         18
     1  O   -0.000026  -0.000006  -0.000072   0.005081   0.000084   0.000000
     2  N   -0.000055  -0.000036   0.001675  -0.030356  -0.003151  -0.000036
     3  O   -0.000004  -0.000001  -0.000014   0.001857   0.010124   0.000008
     4  C   -0.013932   0.003509  -0.061504   0.321664  -0.032028   0.000687
     5  C    0.000074   0.006080  -0.004492  -0.040040   0.380878  -0.022530
     6  N   -0.044678  -0.006022   0.001800  -0.002415  -0.035573   0.326468
     7  C    0.340972  -0.038986  -0.054823  -0.004373   0.001506  -0.027176
     8  H   -0.043324  -0.000883   0.003967   0.000154   0.000011  -0.001599
     9  C   -0.046548   0.003828  -0.012319  -0.001412  -0.000062   0.000613
    10  C   -0.002585  -0.000397   0.001476   0.000023   0.000001  -0.000122
    11  C   -0.047849   0.003954  -0.007565  -0.000025   0.000000   0.000011
    12  C    0.365417  -0.041002  -0.073144   0.003230   0.000001  -0.000128
    13  C    5.043793   0.399051   0.237814  -0.071899  -0.000046   0.003619
    14  H    0.399051   0.520877  -0.035888  -0.004565   0.000139   0.000019
    15  N    0.237814  -0.035888   6.917847   0.580841  -0.000092  -0.000118
    16  C   -0.071899  -0.004565   0.580841   4.714328   0.001783  -0.000256
    17  H   -0.000046   0.000139  -0.000092   0.001783   0.395010  -0.001387
    18  H    0.003619   0.000019  -0.000118  -0.000256  -0.001387   0.322680
    19  H   -0.006530   0.000067   0.006861   0.002768   0.000009  -0.000100
    20  H    0.003839  -0.000046   0.000064  -0.000030   0.000000   0.003119
    21  H   -0.000346   0.000009  -0.000022   0.000001  -0.000000  -0.000000
    22  H    0.000338  -0.000046  -0.000003  -0.000002  -0.000000   0.000002
    23  H   -0.005584   0.000008   0.006511   0.000007   0.000000   0.000000
    24  H    0.004100  -0.000057   0.000052   0.000006   0.000000  -0.000000
    25  H   -0.034872  -0.002642   0.000320  -0.000068  -0.000000   0.000002
    26  H   -0.044591  -0.000988   0.004134  -0.000087   0.000000  -0.000000
    27  H    0.005003  -0.000208  -0.039090   0.401045  -0.000057   0.000004
              19         20         21         22         23         24
     1  O    0.000000   0.000000  -0.000000  -0.000000  -0.000000  -0.000000
     2  N    0.000001  -0.000000  -0.000000   0.000000  -0.000000   0.000000
     3  O    0.000000   0.000000   0.000000  -0.000000   0.000000   0.000000
     4  C   -0.000438  -0.000014  -0.000000   0.000000   0.000023   0.000000
     5  C    0.000239   0.000031   0.000001  -0.000003  -0.000001  -0.000000
     6  N    0.001163  -0.002379  -0.000053  -0.000095  -0.000024   0.000004
     7  C   -0.035194  -0.041038   0.004013  -0.004038   0.000380  -0.000140
     8  H    0.004203  -0.001972  -0.000087   0.003500   0.000036  -0.000092
     9  C    0.385014   0.397418  -0.035814  -0.045636  -0.002041   0.004401
    10  C   -0.032392  -0.037481   0.400280   0.395990  -0.040121  -0.038519
    11  C   -0.002413   0.004163  -0.035889  -0.045549   0.396805   0.400338
    12  C    0.000693  -0.000347   0.004184  -0.001298  -0.036919  -0.037766
    13  C   -0.006530   0.003839  -0.000346   0.000338  -0.005584   0.004100
    14  H    0.000067  -0.000046   0.000009  -0.000046   0.000008  -0.000057
    15  N    0.006861   0.000064  -0.000022  -0.000003   0.006511   0.000052
    16  C    0.002768  -0.000030   0.000001  -0.000002   0.000007   0.000006
    17  H    0.000009   0.000000  -0.000000  -0.000000   0.000000   0.000000
    18  H   -0.000100   0.003119  -0.000000   0.000002   0.000000  -0.000000
    19  H    0.508230  -0.024176  -0.002611   0.003767   0.001669  -0.000068
    20  H   -0.024176   0.549956  -0.002550  -0.002988  -0.000051  -0.000090
    21  H   -0.002611  -0.002550   0.526224  -0.024691  -0.002812  -0.002034
    22  H    0.003767  -0.002988  -0.024691   0.567890   0.004065  -0.003593
    23  H    0.001669  -0.000051  -0.002812   0.004065   0.511062  -0.025041
    24  H   -0.000068  -0.000090  -0.002034  -0.003593  -0.025041   0.541029
    25  H   -0.000027   0.000011  -0.000086  -0.000082  -0.002126  -0.002391
    26  H    0.000025  -0.000036  -0.000074   0.002480   0.003835  -0.002785
    27  H    0.000073  -0.000000  -0.000000   0.000000  -0.000019  -0.000000
              25         26         27
     1  O    0.000000  -0.000000   0.004157
     2  N   -0.000000  -0.000000  -0.000138
     3  O    0.000000   0.000000  -0.000018
     4  C    0.000017   0.000010  -0.063902
     5  C   -0.000000  -0.000003   0.002230
     6  N   -0.000074  -0.000067   0.000122
     7  C    0.004949  -0.004484  -0.000396
     8  H    0.000002   0.001715   0.000010
     9  C   -0.000366   0.000989  -0.000062
    10  C    0.004105  -0.002363   0.000006
    11  C   -0.034175  -0.042366   0.000003
    12  C    0.395866   0.395003  -0.000019
    13  C   -0.034872  -0.044591   0.005003
    14  H   -0.002642  -0.000988  -0.000208
    15  N    0.000320   0.004134  -0.039090
    16  C   -0.000068  -0.000087   0.401045
    17  H   -0.000000   0.000000  -0.000057
    18  H    0.000002  -0.000000   0.000004
    19  H   -0.000027   0.000025   0.000073
    20  H    0.000011  -0.000036  -0.000000
    21  H   -0.000086  -0.000074  -0.000000
    22  H   -0.000082   0.002480   0.000000
    23  H   -0.002126   0.003835  -0.000019
    24  H   -0.002391  -0.002785  -0.000000
    25  H    0.512457  -0.023096  -0.000007
    26  H   -0.023096   0.559861   0.000001
    27  H   -0.000007   0.000001   0.457238
 Mulliken charges:
               1
     1  O   -0.455307
     2  N    0.500681
     3  O   -0.481299
     4  C   -0.005920
     5  C    0.192049
     6  N   -0.811128
     7  C    0.077491
     8  H    0.177815
     9  C   -0.314663
    10  C   -0.321297
    11  C   -0.314746
    12  C   -0.312643
    13  C   -0.041149
    14  H    0.194233
    15  N   -0.474215
    16  C    0.122740
    17  H    0.282847
    18  H    0.396220
    19  H    0.189169
    20  H    0.154599
    21  H    0.172358
    22  H    0.149988
    23  H    0.190338
    24  H    0.162646
    25  H    0.182280
    26  H    0.152888
    27  H    0.234026
 Sum of Mulliken charges =  -0.00000
 Mulliken charges with hydrogens summed into heavy atoms:
               1
     1  O   -0.455307
     2  N    0.500681
     3  O   -0.481299
     4  C   -0.005920
     5  C    0.474896
     6  N   -0.414908
     7  C    0.255305
     9  C    0.029105
    10  C    0.001049
    11  C    0.038238
    12  C    0.022525
    13  C    0.153084
    15  N   -0.474215
    16  C    0.356766
 Electronic spatial extent (au):  <R**2>=           3108.9558
 Charge=             -0.0000 electrons
 Dipole moment (field-independent basis, Debye):
    X=              5.1566    Y=              4.4261    Z=              0.0467  Tot=              6.7958
 Quadrupole moment (field-independent basis, Debye-Ang):
   XX=           -104.7146   YY=            -81.0475   ZZ=            -81.9472
   XY=             -2.6346   XZ=              2.6442   YZ=             -0.4415
 Traceless Quadrupole moment (field-independent basis, Debye-Ang):
   XX=            -15.4781   YY=              8.1889   ZZ=              7.2892
   XY=             -2.6346   XZ=              2.6442   YZ=             -0.4415
 Octapole moment (field-independent basis, Debye-Ang**2):
  XXX=             95.7726  YYY=             37.7792  ZZZ=             -8.2435  XYY=             -0.8102
  XXY=             14.8484  XXZ=            -10.6337  XZZ=             -8.8157  YZZ=             -2.3102
  YYZ=             -2.0084  XYZ=             -2.3626
 Hexadecapole moment (field-independent basis, Debye-Ang**3):
 XXXX=          -3515.4419 YYYY=           -622.4590 ZZZZ=           -303.8987 XXXY=            -68.8147
 XXXZ=            105.0315 YYYX=            -43.1454 YYYZ=              4.9851 ZZZX=             61.9380
 ZZZY=             12.7093 XXYY=           -653.2864 XXZZ=           -544.0324 YYZZ=           -162.9766
 XXYZ=              2.4898 YYXZ=             22.9914 ZZXY=             -2.3464
 N-N= 9.189187300798D+02 E-N=-3.383857420656D+03  KE= 6.588559110208D+02
 Calling FoFJK, ICntrl=  10002127 FMM=F ISym2X=0 I1Cent= 0 IOpClX= 0 NMat=1 NMatS=1 NMatT=0.
 -------------------------------------------------------------------
 Center     Atomic                   Forces (Hartrees/Bohr)
 Number     Number              X              Y              Z
 -------------------------------------------------------------------
      1        8           0.002416723   -0.019490966   -0.005859144
      2        7           0.038121876    0.015842105   -0.002490550
      3        8          -0.005937726    0.014617224    0.004996098
      4        6          -0.000194146    0.018531000    0.009741604
      5        6          -0.000352446   -0.019685205   -0.011139721
      6        7           0.017585525   -0.012593262   -0.003460437
      7        6          -0.010012175    0.005613192    0.002798261
      8        1          -0.008077463   -0.002717460   -0.007609663
      9        6          -0.004941414   -0.000259887   -0.002319976
     10        6           0.002971175   -0.000716213    0.001309895
     11        6          -0.001439690   -0.004731835   -0.002543797
     12        6           0.001352780   -0.009097372   -0.002418541
     13        6           0.014466356   -0.007546862    0.009645012
     14        1           0.000167501    0.005571104   -0.010297708
     15        7          -0.000101378    0.010717470   -0.008148463
     16        6          -0.022008169   -0.001596814    0.012448990
     17        1           0.005279948   -0.004015608   -0.010180416
     18        1          -0.016542208   -0.001217014    0.009916041
     19        1           0.002958883    0.006148392    0.007818718
     20        1          -0.003497015   -0.007146123    0.002468444
     21        1          -0.004871276    0.002510665    0.009358056
     22        1          -0.003585320   -0.004034515   -0.007652170
     23        1           0.003772825    0.006171242    0.009396050
     24        1          -0.009213469    0.002758239   -0.002609179
     25        1          -0.000284830    0.010445035   -0.002356727
     26        1          -0.004719062   -0.004839274   -0.004619345
     27        1           0.006684194    0.000762741    0.003808667
 -------------------------------------------------------------------
 Cartesian Forces:  Max     0.038121876 RMS     0.009277028

 GradGradGradGradGradGradGradGradGradGradGradGradGradGradGradGradGradGrad
 Berny optimization.
 FormGI is forming the generalized inverse of G from B-inverse, IUseBI=4.
 Internal  Forces:  Max     0.038533054 RMS     0.006920062
 Search for a local minimum.
 Step number   1 out of a maximum of   20
 All quantities printed in internal units (Hartrees-Bohrs-Radians)
 Mixed Optimization -- RFO/linear search
 Second derivative matrix not updated -- first step.
 ITU=  0
     Eigenvalues ---    0.00230   0.00764   0.01020   0.01131   0.01181
     Eigenvalues ---    0.01531   0.01605   0.01950   0.02017   0.02040
     Eigenvalues ---    0.02667   0.03457   0.04487   0.04560   0.04845
     Eigenvalues ---    0.05065   0.05133   0.05304   0.05881   0.06175
     Eigenvalues ---    0.06478   0.07283   0.07696   0.07823   0.07977
     Eigenvalues ---    0.08051   0.08111   0.10008   0.10609   0.11976
     Eigenvalues ---    0.12635   0.13712   0.15783   0.15959   0.15998
     Eigenvalues ---    0.19808   0.21259   0.22357   0.24955   0.25000
     Eigenvalues ---    0.25000   0.25099   0.25880   0.26634   0.27998
     Eigenvalues ---    0.28099   0.28428   0.30223   0.30666   0.31526
     Eigenvalues ---    0.31992   0.32233   0.32288   0.32377   0.32389
     Eigenvalues ---    0.32408   0.32502   0.32526   0.32570   0.33081
     Eigenvalues ---    0.33382   0.33626   0.35007   0.43249   0.43875
     Eigenvalues ---    0.47115   0.65901   0.90566   0.912761000.00000
     Eigenvalues --- 1000.000001000.000001000.000001000.000001000.00000
     Eigenvalues --- 1000.000001000.000001000.000001000.000001000.00000
     Eigenvalues --- 1000.000001000.000001000.000001000.000001000.00000
     Eigenvalues --- 1000.000001000.000001000.000001000.000001000.00000
     Eigenvalues --- 1000.000001000.000001000.000001000.000001000.00000
     Eigenvalues --- 1000.000001000.000001000.000001000.000001000.00000
     Eigenvalues --- 1000.000001000.000001000.000001000.000001000.00000
     Eigenvalues --- 1000.000001000.000001000.000001000.000001000.00000
     Eigenvalues --- 1000.000001000.000001000.000001000.000001000.00000
     Eigenvalues --- 1000.000001000.000001000.000001000.000001000.00000
     Eigenvalues --- 1000.000001000.000001000.000001000.000001000.00000
     Eigenvalues --- 1000.000001000.000001000.000001000.000001000.00000
     Eigenvalues --- 1000.000001000.000001000.000001000.000001000.00000
     Eigenvalues --- 1000.000001000.000001000.000001000.000001000.00000
     Eigenvalues --- 1000.000001000.000001000.000001000.000001000.00000
     Eigenvalues --- 1000.000001000.000001000.000001000.000001000.00000
     Eigenvalues --- 1000.000001000.000001000.000001000.000001000.00000
     Eigenvalues --- 1000.000001000.000001000.000001000.000001000.00000
     Eigenvalues --- 1000.00000
 RFO step:  Lambda=-2.40136581D-02 EMin= 2.30350055D-03
 Linear search not attempted -- first point.
 Iteration  1 RMS(Cart)=  0.05256973 RMS(Int)=  0.00111922
 Iteration  2 RMS(Cart)=  0.00123236 RMS(Int)=  0.00031895
 Iteration  3 RMS(Cart)=  0.00000143 RMS(Int)=  0.00031895
 Iteration  4 RMS(Cart)=  0.00000000 RMS(Int)=  0.00031895
 Iteration  1 RMS(Cart)=  0.00003207 RMS(Int)=  0.00002503
 Iteration  2 RMS(Cart)=  0.00002172 RMS(Int)=  0.00002692
 Iteration  3 RMS(Cart)=  0.00001625 RMS(Int)=  0.00002978
 Iteration  4 RMS(Cart)=  0.00001295 RMS(Int)=  0.00003248
 Iteration  5 RMS(Cart)=  0.00001076 RMS(Int)=  0.00003496
 Iteration  6 RMS(Cart)=  0.00000919 RMS(Int)=  0.00003726
 Iteration  7 RMS(Cart)=  0.00000802 RMS(Int)=  0.00003943
 Iteration  8 RMS(Cart)=  0.00000709 RMS(Int)=  0.00004145
 Iteration  9 RMS(Cart)=  0.00000633 RMS(Int)=  0.00004336
 Iteration 10 RMS(Cart)=  0.00000569 RMS(Int)=  0.00004514
 Iteration 11 RMS(Cart)=  0.00000514 RMS(Int)=  0.00004681
 Iteration 12 RMS(Cart)=  0.00000465 RMS(Int)=  0.00004835
 Iteration 13 RMS(Cart)=  0.00000422 RMS(Int)=  0.00004979
 Iteration 14 RMS(Cart)=  0.00000384 RMS(Int)=  0.00005112
 Iteration 15 RMS(Cart)=  0.00000349 RMS(Int)=  0.00005235
 Iteration 16 RMS(Cart)=  0.00000318 RMS(Int)=  0.00005349
 Iteration 17 RMS(Cart)=  0.00000290 RMS(Int)=  0.00005453
 Iteration 18 RMS(Cart)=  0.00000264 RMS(Int)=  0.00005550
 Iteration 19 RMS(Cart)=  0.00000241 RMS(Int)=  0.00005638
 Iteration 20 RMS(Cart)=  0.00000220 RMS(Int)=  0.00005719
 Iteration 21 RMS(Cart)=  0.00000200 RMS(Int)=  0.00005794
 Iteration 22 RMS(Cart)=  0.00000183 RMS(Int)=  0.00005862
 Iteration 23 RMS(Cart)=  0.00000167 RMS(Int)=  0.00005925
 Iteration 24 RMS(Cart)=  0.00000152 RMS(Int)=  0.00005982
 Iteration 25 RMS(Cart)=  0.00000139 RMS(Int)=  0.00006035
 Iteration 26 RMS(Cart)=  0.00000127 RMS(Int)=  0.00006083
 Iteration 27 RMS(Cart)=  0.00000115 RMS(Int)=  0.00006127
 Iteration 28 RMS(Cart)=  0.00000105 RMS(Int)=  0.00006167
 Iteration 29 RMS(Cart)=  0.00000096 RMS(Int)=  0.00006204
 Variable       Old X    -DE/DX   Delta X   Delta X   Delta X     New X
                                 (Linear)    (Quad)   (Total)
    R1        2.32351   0.01884   0.00000   0.02012   0.02012   2.34362
    R2        2.32673   0.01566   0.00000   0.01684   0.01684   2.34357
    R3        2.87521  -0.03637   0.00000  -0.11148  -0.11148   2.76373
    R4        2.64875  -0.03853   0.00000  -0.08156  -0.08138   2.56738
    R5        2.80744  -0.01724   0.00000  -0.05392  -0.05387   2.75356
    R6        2.59996  -0.02245   0.00000  -0.03948  -0.03927   2.56069
    R7        2.08386  -0.00980   0.00000  -0.02740  -0.02740   2.05647
    R8        2.83520  -0.01984   0.00000  -0.05209  -0.05192   2.78327
    R9        1.93305  -0.00727   0.00000  -0.01570  -0.01570   1.91734
   R10        2.11720  -0.01104   0.00000  -0.03253  -0.03253   2.08467
   R11        2.92507  -0.01359   0.00000  -0.04657  -0.04663   2.87845
   R12        2.90034  -0.00522   0.00000  -0.01818  -0.01811   2.88223
   R13        2.91027  -0.00420   0.00000  -0.01311  -0.01317   2.89710
   R14        2.09935  -0.01018   0.00000  -0.02917  -0.02917   2.07019
   R15        2.09892  -0.00790   0.00000  -0.02261  -0.02261   2.07630
   R16        2.90404  -0.00182   0.00000  -0.00638  -0.00642   2.89762
   R17        2.10137  -0.01059   0.00000  -0.03044  -0.03044   2.07093
   R18        2.10321  -0.00907   0.00000  -0.02616  -0.02616   2.07705
   R19        2.91848  -0.00906   0.00000  -0.02818  -0.02813   2.89036
   R20        2.10419  -0.01173   0.00000  -0.03388  -0.03388   2.07032
   R21        2.10103  -0.00994   0.00000  -0.02856  -0.02856   2.07247
   R22        2.93748  -0.01021   0.00000  -0.03506  -0.03500   2.90248
   R23        2.10159  -0.01057   0.00000  -0.03038  -0.03038   2.07120
   R24        2.09814  -0.00796   0.00000  -0.02276  -0.02276   2.07538
   R25        2.10859  -0.00899   0.00000  -0.02615  -0.02615   2.08244
   R26        2.77279  -0.00607   0.00000  -0.01286  -0.01321   2.75958
   R27        2.44574  -0.00749   0.00000  -0.01220  -0.01248   2.43326
   R28        2.07966  -0.00598   0.00000  -0.01660  -0.01660   2.06305
    A1        2.16418   0.01027   0.00000   0.03752   0.03751   2.20169
    A2        2.05186  -0.00826   0.00000  -0.03010  -0.03011   2.02175
    A3        2.06710  -0.00202   0.00000  -0.00734  -0.00735   2.05975
    A4        2.05001  -0.00558   0.00000  -0.01202  -0.01225   2.03776
    A5        2.04824  -0.00482   0.00000  -0.00895  -0.00926   2.03898
    A6        2.18419   0.01038   0.00000   0.01906   0.01836   2.20256
    A7        2.17752   0.00439   0.00000   0.01652   0.01651   2.19403
    A8        2.07161  -0.00239   0.00000  -0.00920  -0.00924   2.06236
    A9        2.03389  -0.00199   0.00000  -0.00705  -0.00711   2.02678
   A10        2.23461  -0.00379   0.00000  -0.00810  -0.00839   2.22623
   A11        2.13648  -0.01300   0.00000  -0.07414  -0.07456   2.06192
   A12        1.89644   0.01686   0.00000   0.08873   0.08881   1.98525
   A13        1.83879  -0.00032   0.00000  -0.00921  -0.00897   1.82982
   A14        2.01359  -0.00410   0.00000  -0.01167  -0.01165   2.00193
   A15        1.94527   0.00384   0.00000  -0.00019  -0.00080   1.94446
   A16        1.85409   0.00304   0.00000   0.02289   0.02276   1.87686
   A17        1.85415  -0.00079   0.00000   0.00917   0.00897   1.86312
   A18        1.94501  -0.00140   0.00000  -0.00769  -0.00725   1.93775
   A19        1.90938   0.00010   0.00000  -0.00618  -0.00641   1.90297
   A20        1.92207  -0.00069   0.00000  -0.01080  -0.01073   1.91133
   A21        1.92308  -0.00160   0.00000  -0.00775  -0.00767   1.91540
   A22        1.91871  -0.00023   0.00000   0.00692   0.00692   1.92564
   A23        1.90507   0.00288   0.00000   0.02363   0.02366   1.92873
   A24        1.88536  -0.00044   0.00000  -0.00542  -0.00569   1.87967
   A25        1.93854  -0.00058   0.00000   0.00619   0.00608   1.94461
   A26        1.91957  -0.00092   0.00000  -0.00678  -0.00680   1.91278
   A27        1.90538   0.00041   0.00000  -0.00277  -0.00283   1.90255
   A28        1.91648   0.00085   0.00000   0.00730   0.00735   1.92383
   A29        1.89881   0.00144   0.00000   0.01024   0.01026   1.90907
   A30        1.88408  -0.00119   0.00000  -0.01466  -0.01474   1.86934
   A31        1.94486   0.00050   0.00000   0.00485   0.00496   1.94982
   A32        1.90228   0.00047   0.00000   0.00473   0.00472   1.90699
   A33        1.91788   0.00056   0.00000   0.00592   0.00587   1.92375
   A34        1.90538  -0.00077   0.00000  -0.01251  -0.01255   1.89284
   A35        1.91557  -0.00066   0.00000  -0.00042  -0.00050   1.91507
   A36        1.87649  -0.00012   0.00000  -0.00296  -0.00299   1.87350
   A37        1.95375  -0.00349   0.00000  -0.01944  -0.01942   1.93433
   A38        1.90513   0.00254   0.00000   0.01749   0.01738   1.92250
   A39        1.90875   0.00168   0.00000   0.01314   0.01306   1.92180
   A40        1.90524   0.00058   0.00000  -0.00021  -0.00009   1.90516
   A41        1.90959  -0.00023   0.00000  -0.00592  -0.00585   1.90374
   A42        1.87990  -0.00100   0.00000  -0.00453  -0.00470   1.87520
   A43        1.84137   0.00536   0.00000   0.02686   0.02682   1.86819
   A44        1.94998  -0.00469   0.00000  -0.03771  -0.03840   1.91158
   A45        1.98058  -0.00072   0.00000   0.00596   0.00635   1.98692
   A46        1.86686   0.00261   0.00000   0.03831   0.03881   1.90568
   A47        1.88894  -0.00243   0.00000  -0.02625  -0.02629   1.86264
   A48        1.92940   0.00038   0.00000  -0.00320  -0.00335   1.92605
   A49        2.05245  -0.00526   0.00000  -0.01356  -0.01389   2.03856
   A50        2.21883  -0.00248   0.00000  -0.01882  -0.01858   2.20025
   A51        1.98709   0.00668   0.00000   0.03650   0.03631   2.02340
   A52        2.07309  -0.00379   0.00000  -0.01897  -0.01911   2.05398
    D1       -3.03681  -0.00151   0.00000  -0.04974  -0.04940  -3.08622
    D2        0.14414  -0.00100   0.00000   0.00000   0.00000   0.14415
    D3        0.11457  -0.00117   0.00000  -0.05968  -0.05951   0.05506
    D4       -2.98765  -0.00066   0.00000  -0.00993  -0.01010  -2.99776
    D5        3.13448  -0.00176   0.00000  -0.01521  -0.01545   3.11903
    D6        0.01344  -0.00209   0.00000  -0.03148  -0.03183  -0.01838
    D7       -0.04987  -0.00273   0.00000  -0.07002  -0.07089  -0.12076
    D8        3.11228  -0.00307   0.00000  -0.08629  -0.08726   3.02501
    D9       -2.46846  -0.00402   0.00000  -0.01168  -0.01216  -2.48063
   D10        0.57298   0.00083   0.00000  -0.02778  -0.02833   0.54465
   D11        0.71585  -0.00303   0.00000   0.04315   0.04337   0.75922
   D12       -2.52590   0.00182   0.00000   0.02705   0.02721  -2.49869
   D13       -0.44330   0.00261   0.00000   0.04876   0.04879  -0.39452
   D14        2.48702   0.00492   0.00000   0.10159   0.09996   2.58697
   D15        2.67813   0.00293   0.00000   0.06468   0.06484   2.74297
   D16       -0.67473   0.00523   0.00000   0.11751   0.11601  -0.55872
   D17       -2.23130  -0.00175   0.00000  -0.02002  -0.01941  -2.25071
   D18        2.01318  -0.00305   0.00000  -0.03573  -0.03513   1.97806
   D19       -0.22768  -0.00099   0.00000  -0.01446  -0.01425  -0.24193
   D20        1.09826  -0.00114   0.00000  -0.05222  -0.05318   1.04507
   D21       -0.94045  -0.00244   0.00000  -0.06793  -0.06890  -1.00935
   D22        3.10187  -0.00039   0.00000  -0.04666  -0.04802   3.05385
   D23        2.95998   0.00164   0.00000   0.02571   0.02568   2.98567
   D24       -1.21254   0.00098   0.00000   0.02352   0.02351  -1.18903
   D25        0.86554  -0.00099   0.00000   0.00526   0.00533   0.87087
   D26        0.92994   0.00228   0.00000   0.02824   0.02819   0.95812
   D27        3.04060   0.00162   0.00000   0.02606   0.02601   3.06661
   D28       -1.16451  -0.00035   0.00000   0.00780   0.00784  -1.15667
   D29       -1.08221   0.00218   0.00000   0.00816   0.00810  -1.07410
   D30        1.02846   0.00152   0.00000   0.00598   0.00593   1.03438
   D31        3.10653  -0.00044   0.00000  -0.01228  -0.01225   3.09428
   D32       -2.90872  -0.00288   0.00000  -0.01151  -0.01125  -2.91997
   D33       -0.88627   0.00097   0.00000   0.03058   0.03024  -0.85603
   D34        1.30938  -0.00296   0.00000   0.00000   0.00001   1.30939
   D35       -0.91463  -0.00179   0.00000  -0.01734  -0.01724  -0.93186
   D36        1.10782   0.00205   0.00000   0.02474   0.02426   1.13208
   D37       -2.97971  -0.00187   0.00000  -0.00584  -0.00598  -2.98568
   D38        1.09748   0.00066   0.00000   0.01120   0.01131   1.10880
   D39        3.11993   0.00450   0.00000   0.05328   0.05281  -3.11044
   D40       -0.96760   0.00058   0.00000   0.02270   0.02258  -0.94502
   D41        0.95666   0.00054   0.00000   0.00000   0.00000   0.95666
   D42        3.08191   0.00060   0.00000   0.00874   0.00870   3.09061
   D43       -1.13711  -0.00115   0.00000  -0.01477  -0.01473  -1.15184
   D44       -1.15604   0.00148   0.00000   0.01292   0.01299  -1.14305
   D45        0.96921   0.00154   0.00000   0.02165   0.02169   0.99090
   D46        3.03339  -0.00021   0.00000  -0.00185  -0.00174   3.03164
   D47        3.06211   0.00042   0.00000   0.00126   0.00120   3.06330
   D48       -1.09583   0.00048   0.00000   0.01000   0.00989  -1.08593
   D49        0.96835  -0.00127   0.00000  -0.01350  -0.01354   0.95481
   D50       -0.92193  -0.00110   0.00000   0.00000   0.00000  -0.92193
   D51        1.18194  -0.00144   0.00000  -0.00940  -0.00940   1.17254
   D52       -3.04911  -0.00099   0.00000  -0.00679  -0.00681  -3.05592
   D53       -3.04899  -0.00013   0.00000  -0.00051  -0.00051  -3.04950
   D54       -0.94511  -0.00047   0.00000  -0.00991  -0.00991  -0.95502
   D55        1.10702  -0.00002   0.00000  -0.00730  -0.00732   1.09970
   D56        1.17573  -0.00003   0.00000   0.00699   0.00701   1.18274
   D57       -3.00358  -0.00037   0.00000  -0.00241  -0.00239  -3.00597
   D58       -0.95145   0.00008   0.00000   0.00020   0.00020  -0.95125
   D59        0.98680  -0.00102   0.00000  -0.01564  -0.01562   0.97118
   D60        3.09809  -0.00082   0.00000  -0.01661  -0.01672   3.08137
   D61       -1.13244   0.00041   0.00000  -0.00439  -0.00432  -1.13676
   D62       -1.11525  -0.00141   0.00000  -0.01637  -0.01633  -1.13159
   D63        0.99604  -0.00121   0.00000  -0.01735  -0.01744   0.97860
   D64        3.04869   0.00002   0.00000  -0.00512  -0.00504   3.04365
   D65        3.11531  -0.00043   0.00000  -0.00520  -0.00518   3.11014
   D66       -1.05658  -0.00023   0.00000  -0.00618  -0.00628  -1.06286
   D67        0.99607   0.00099   0.00000   0.00605   0.00612   1.00219
   D68       -1.04400   0.00021   0.00000   0.00255   0.00262  -1.04138
   D69       -3.12256   0.00165   0.00000   0.01386   0.01339  -3.10917
   D70        1.08144   0.00107   0.00000   0.01068   0.01073   1.09218
   D71        3.12796  -0.00112   0.00000  -0.00672  -0.00657   3.12138
   D72        1.04940   0.00032   0.00000   0.00459   0.00420   1.05360
   D73       -1.02978  -0.00026   0.00000   0.00140   0.00154  -1.02825
   D74        1.07475  -0.00011   0.00000   0.00228   0.00248   1.07723
   D75       -1.00381   0.00132   0.00000   0.01359   0.01325  -0.99055
   D76       -3.08299   0.00074   0.00000   0.01041   0.01059  -3.07240
   D77       -1.17215   0.00356   0.00000   0.00000   0.00001  -1.17214
   D78        3.07363  -0.00107   0.00000  -0.01964  -0.01960   3.05403
   D79        1.03442  -0.00300   0.00000  -0.04862  -0.04896   0.98546
   D80       -0.07089   0.00892   0.00000   0.00000   0.00001  -0.07088
   D81       -3.10796   0.00333   0.00000   0.01402   0.01362  -3.09434
         Item               Value     Threshold  Converged?
 Maximum Force            0.036474     0.000450     NO 
 RMS     Force            0.006839     0.000300     NO 
 Maximum Displacement     0.271708     0.001800     NO 
 RMS     Displacement     0.052948     0.001200     NO 
 Predicted change in Energy=-1.377058D-02
 GradGradGradGradGradGradGradGradGradGradGradGradGradGradGradGradGradGrad

                          Input orientation:                          
 ---------------------------------------------------------------------
 Center     Atomic      Atomic             Coordinates (Angstroms)
 Number     Number       Type             X           Y           Z
 ---------------------------------------------------------------------
      1          8           0       -3.412348   -1.517193   -0.076113
      2          7           0       -3.109433   -0.336157    0.150756
      3          8           0       -3.887740    0.565101    0.497142
      4          6           0       -1.695802    0.001779   -0.011618
      5          6           0       -1.331817    1.273989    0.296249
      6          7           0       -0.073414    1.773023    0.236474
      7          6           0        1.193112    1.023002    0.287982
      8          1           0        1.788237    1.526685    1.068425
      9          6           0        2.004841    1.055211   -1.000514
     10          6           0        3.381975    0.434174   -0.739465
     11          6           0        3.257695   -0.975711   -0.149589
     12          6           0        2.355108   -0.995083    1.085062
     13          6           0        0.972495   -0.410433    0.760053
     14          1           0        0.356939   -0.406567    1.674077
     15          7           0        0.375809   -1.279481   -0.250498
     16          6           0       -0.837861   -1.021547   -0.594669
     17          1           0       -2.106059    1.964521    0.624842
     18          1           0        0.041811    2.753993    0.004393
     19          1           0        1.476420    0.495414   -1.779941
     20          1           0        2.109825    2.092499   -1.347243
     21          1           0        3.954982    0.405099   -1.673163
     22          1           0        3.936723    1.074817   -0.039527
     23          1           0        2.829382   -1.646161   -0.902786
     24          1           0        4.248850   -1.366646    0.110302
     25          1           0        2.234926   -2.021972    1.448852
     26          1           0        2.810783   -0.410080    1.895170
     27          1           0       -1.313439   -1.689286   -1.315644
 ---------------------------------------------------------------------
                    Distance matrix (angstroms):
                    1          2          3          4          5
     1  O    0.000000
     2  N    1.240191   0.000000
     3  O    2.211462   1.240165   0.000000
     4  C    2.293026   1.462504   2.319646   0.000000
     5  C    3.501138   2.402844   2.660004   1.358597   0.000000
     6  N    4.698055   3.697757   4.009502   2.414746   1.355060
     7  C    5.272136   4.514204   5.105730   3.078714   2.537386
     8  H    6.133616   5.319725   5.785130   3.953525   3.224104
     9  C    6.067760   5.423755   6.099646   3.972705   3.586466
    10  C    7.100049   6.597293   7.375303   5.147868   4.898758
    11  C    6.692390   6.406212   7.338229   5.050906   5.130647
    12  C    5.906308   5.582859   6.461653   4.313503   4.400491
    13  C    4.599015   4.127820   4.964139   2.808060   2.891755
    14  H    4.301649   3.786978   4.510722   2.687389   2.752195
    15  N    3.799612   3.632874   4.705241   2.447501   3.120117
    16  C    2.672554   2.487057   3.607112   1.457123   2.511417
    17  H    3.784186   2.554337   2.269157   2.103745   1.088236
    18  H    5.493699   4.415970   4.524978   3.254879   2.040207
    19  H    5.554608   5.044715   5.827879   3.665192   3.578120
    20  H    6.718634   5.948363   6.457978   4.542884   3.900759
    21  H    7.779675   7.333628   8.139049   5.903792   5.708222
    22  H    7.792862   7.188558   7.859392   5.733892   5.282985
    23  H    6.297556   6.172162   7.208967   4.897670   5.223077
    24  H    7.664944   7.430200   8.371701   6.101339   6.176680
    25  H    5.871288   5.752321   6.714590   4.656088   4.991343
    26  H    6.621104   6.172309   6.911994   4.910680   4.749081
    27  H    2.443660   2.684563   3.872399   2.169421   3.373357
                    6          7          8          9         10
     6  N    0.000000
     7  C    1.472845   0.000000
     8  H    2.053916   1.103160   0.000000
     9  C    2.522803   1.523208   2.133005   0.000000
    10  C    3.832060   2.488672   2.646138   1.533079   0.000000
    11  C    4.335997   2.906686   3.147196   2.533448   1.533354
    12  C    3.778919   2.461348   2.584749   2.945507   2.534981
    13  C    2.477003   1.525208   2.124371   2.512657   2.960998
    14  H    2.646227   2.159655   2.480502   3.464940   3.960161
    15  N    3.123576   2.501874   3.407210   2.943986   3.494673
    16  C    3.014101   3.013985   4.019423   3.543810   4.466219
    17  H    2.078256   3.447384   3.943857   4.513105   5.858482
    18  H    1.014613   2.098153   2.385048   2.783735   4.134196
    19  H    2.846085   2.152887   3.045315   1.095495   2.171976
    20  H    2.716018   2.158274   2.501803   1.098731   2.176649
    21  H    4.663251   3.443229   3.670020   2.162904   1.095890
    22  H    4.079812   2.763575   2.459213   2.157788   1.099128
    23  H    4.627630   3.349588   3.877706   2.826098   2.158663
    24  H    5.343726   3.883236   3.917139   3.483516   2.171757
    25  H    4.604376   3.421236   3.596834   3.939718   3.483835
    26  H    3.979422   2.693257   2.340975   3.343890   2.824947
    27  H    3.991781   4.026279   5.064252   4.317702   5.185362
                   11         12         13         14         15
    11  C    0.000000
    12  C    1.529510   0.000000
    13  C    2.523713   1.535924   0.000000
    14  H    3.473337   2.164710   1.101982   0.000000
    15  N    2.899609   2.404626   1.460306   2.113368   0.000000
    16  C    4.119925   3.607942   2.342247   2.636846   1.287625
    17  H    6.165595   5.373366   3.890525   3.576214   4.177252
    18  H    4.927100   4.535940   3.383902   3.588355   4.055298
    19  H    2.827578   3.346926   2.743369   3.741263   2.588589
    20  H    3.487964   3.938201   3.463941   4.294917   3.947140
    21  H    2.171203   3.482515   3.934573   4.980837   4.203840
    22  H    2.162835   2.837374   3.410563   4.236247   4.274031
    23  H    1.095565   2.144849   2.782101   3.780184   2.565143
    24  H    1.096705   2.162054   3.474337   4.302803   3.890787
    25  H    2.166964   1.096033   2.159914   2.487387   2.625909
    26  H    2.168111   1.098246   2.160508   2.463787   3.359889
    27  H    4.771178   4.438867   3.342077   3.657043   2.038635
                   16         17         18         19         20
    16  C    0.000000
    17  H    3.465852   0.000000
    18  H    3.922678   2.370985   0.000000
    19  H    3.010306   4.558005   3.216074   0.000000
    20  H    4.353448   4.656089   2.557572   1.771754   0.000000
    21  H    5.115645   6.666996   4.862552   2.482505   2.521537
    22  H    5.244004   6.143954   4.241686   3.068850   2.466446
    23  H    3.732794   6.303114   5.287237   2.680718   3.833130
    24  H    5.146913   7.193489   5.889827   3.837533   4.320365
    25  H    3.823460   5.951072   5.450326   4.163852   4.976210
    26  H    4.459349   5.606050   4.610163   4.013338   4.155416
    27  H    1.091721   4.212367   4.829278   3.573765   5.101140
                   21         22         23         24         25
    21  H    0.000000
    22  H    1.765679   0.000000
    23  H    2.463356   3.061885   0.000000
    24  H    2.531045   2.465890   1.766173   0.000000
    25  H    4.312336   3.834251   2.454549   2.505406   0.000000
    26  H    3.834932   2.686207   3.058889   2.483708   1.768900
    27  H    5.680716   6.069014   4.163565   5.751215   4.510433
                   26         27
    26  H    0.000000
    27  H    5.380976   0.000000
 Symmetry turned off by external request.
 Stoichiometry    C9H13N3O2
 Framework group  C1[X(C9H13N3O2)]
 Deg. of freedom    75
 Full point group                 C1      NOp   1
 Rotational constants (GHZ):           1.7026410           0.4228877           0.3737800
 Standard basis: 6-31G(d) (6D, 7F)
   236 basis functions,   444 primitive gaussians,   236 cartesian basis functions
    52 alpha electrons       52 beta electrons
       nuclear repulsion energy       933.2329427195 Hartrees.
 NAtoms=   27 NActive=   27 NUniq=   27 SFac= 1.00D+00 NAtFMM=   60 NAOKFM=F Big=F
 Integral buffers will be    131072 words long.
 Raffenetti 1 integral format.
 Two-electron integral symmetry is turned off.
 One-electron integrals computed using PRISM.
 NBasis=   236 RedAO= T EigKep=  1.05D-03  NBF=   236
 NBsUse=   236 1.00D-06 EigRej= -1.00D+00 NBFU=   236
 Initial guess from the checkpoint file:  "/home/alexey/tmp/Gau-1475482.chk"
 B after Tr=     0.052930    0.003587    0.002137
         Rot=    1.000000   -0.000749   -0.000553    0.000324 Ang=  -0.11 deg.
 ExpMin= 1.61D-01 ExpMax= 5.48D+03 ExpMxC= 8.25D+02 IAcc=3 IRadAn=         5 AccDes= 0.00D+00
 Harris functional with IExCor=  205 and IRadAn=       5 diagonalized for initial guess.
 HarFok:  IExCor=  205 AccDes= 0.00D+00 IRadAn=         5 IDoV= 1 UseB2=F ITyADJ=14
 ICtDFT=  3500011 ScaDFX=  1.000000  1.000000  1.000000  1.000000
 FoFCou: FMM=F IPFlag=           0 FMFlag=      100000 FMFlg1=           0
         NFxFlg=           0 DoJE=T BraDBF=F KetDBF=T FulRan=T
         wScrn=  0.000000 ICntrl=       500 IOpCl=  0 I1Cent=   200000004 NGrid=           0
         NMat0=    1 NMatS0=      1 NMatT0=    0 NMatD0=    1 NMtDS0=    0 NMtDT0=    0
 Symmetry not used in FoFCou.
 Keep R1 ints in memory in canonical form, NReq=397720213.
 Requested convergence on RMS density matrix=1.00D-08 within 128 cycles.
 Requested convergence on MAX density matrix=1.00D-06.
 Requested convergence on             energy=1.00D-06.
 No special actions if energy rises.
 SCF Done:  E(RHF) =  -661.291438844     A.U. after   15 cycles
            NFock= 15  Conv=0.40D-08     -V/T= 2.0025
 ExpMin= 1.61D-01 ExpMax= 5.48D+03 ExpMxC= 8.25D+02 IAcc=3 IRadAn=         5 AccDes= 0.00D+00
 HarFok:  IExCor=  205 AccDes= 0.00D+00 IRadAn=         5 IDoV=-2 UseB2=F ITyADJ=14
 ICtDFT= 12500011 ScaDFX=  1.000000  1.000000  1.000000  1.000000
 Range of M.O.s used for correlation:    15   236
 NBasis=   236 NAE=    52 NBE=    52 NFC=    14 NFV=     0
 NROrb=    222 NOA=    38 NOB=    38 NVA=   184 NVB=   184
 Fully direct method using O(ONN) memory.
 JobTyp=1 Pass  1:  I=  15 to  52 NPSUse=  4 ParTrn=T ParDer=T DoDerP=T.
 Spin components of T(2) and E(2):
     alpha-alpha T2 =       0.9122430775D-01 E2=     -0.2723020803D+00
     alpha-beta  T2 =       0.4923485697D+00 E2=     -0.1489185459D+01
     beta-beta   T2 =       0.9122430775D-01 E2=     -0.2723020803D+00
 ANorm=    0.1294139554D+01
[...]
    27  H    4.739882   4.432808   3.349258   3.661105   2.034420
                   16         17         18         19         20
    16  C    0.000000
    17  H    3.442047   0.000000
    18  H    4.017263   2.233332   0.000000
    19  H    2.986240   4.457597   3.505426   0.000000
    20  H    4.350292   4.591610   2.881334   1.768629   0.000000
    21  H    5.099767   6.615196   5.085845   2.499891   2.522780
    22  H    5.233791   6.127434   4.314805   3.070735   2.461438
    23  H    3.718668   6.276185   5.414872   2.705325   3.843190
    24  H    5.143213   7.194213   5.932624   3.850818   4.317372
    25  H    3.821511   5.989744   5.363318   4.172146   4.985918
    26  H    4.479723   5.677551   4.490407   4.042677   4.189387
    27  H    1.090047   4.187339   4.975121   3.534046   5.082711
                   21         22         23         24         25
    21  H    0.000000
    22  H    1.758698   0.000000
    23  H    2.467915   3.061774   0.000000
    24  H    2.517139   2.459539   1.764567   0.000000
    25  H    4.312850   3.842749   2.443981   2.521073   0.000000
    26  H    3.850097   2.710066   3.060446   2.488003   1.767089
    27  H    5.638807   6.037852   4.123151   5.722336   4.491793
                   26         27
    26  H    0.000000
    27  H    5.385266   0.000000
 Symmetry turned off by external request.
 Stoichiometry    C9H13N3O2
 Framework group  C1[X(C9H13N3O2)]
 Deg. of freedom    75
 Full point group                 C1      NOp   1
 Rotational constants (GHZ):           1.7061074           0.4178464           0.3720774

 **********************************************************************

            Population analysis using the SCF Density.

 **********************************************************************

 Alpha  occ. eigenvalues --  -20.59233 -20.58908 -15.84743 -15.63950 -15.56453
 Alpha  occ. eigenvalues --  -11.35079 -11.29741 -11.29576 -11.28508 -11.27098
 Alpha  occ. eigenvalues --  -11.23704 -11.23226 -11.22735 -11.22123  -1.57112
 Alpha  occ. eigenvalues --   -1.36723  -1.30761  -1.23290  -1.14740  -1.09846
 Alpha  occ. eigenvalues --   -1.02772  -1.01340  -0.94379  -0.89674  -0.85615
 Alpha  occ. eigenvalues --   -0.82333  -0.78399  -0.77462  -0.75027  -0.71891
 Alpha  occ. eigenvalues --   -0.69798  -0.69546  -0.67854  -0.65033  -0.63708
 Alpha  occ. eigenvalues --   -0.62386  -0.60270  -0.57509  -0.57077  -0.54998
 Alpha  occ. eigenvalues --   -0.54642  -0.50841  -0.49879  -0.48627  -0.48015
 Alpha  occ. eigenvalues --   -0.47382  -0.46258  -0.46046  -0.43656  -0.41648
 Alpha  occ. eigenvalues --   -0.40325  -0.34024
 Alpha virt. eigenvalues --    0.07362   0.11994   0.17509   0.21688   0.23545
 Alpha virt. eigenvalues --    0.25107   0.27120   0.28298   0.29021   0.29590
 Alpha virt. eigenvalues --    0.30653   0.31868   0.32026   0.32682   0.33960
 Alpha virt. eigenvalues --    0.34317   0.35634   0.37184   0.38525   0.40117
 Alpha virt. eigenvalues --    0.41555   0.42939   0.45404   0.46113   0.46442
 Alpha virt. eigenvalues --    0.47137   0.48732   0.53742   0.57369   0.58857
 Alpha virt. eigenvalues --    0.63953   0.69553   0.70433   0.72781   0.74142
 Alpha virt. eigenvalues --    0.75649   0.75779   0.76951   0.78577   0.79450
 Alpha virt. eigenvalues --    0.80984   0.84787   0.85743   0.86628   0.88278
 Alpha virt. eigenvalues --    0.89499   0.90078   0.92372   0.92635   0.94359
 Alpha virt. eigenvalues --    0.96149   0.98026   0.98558   1.01570   1.02562
 Alpha virt. eigenvalues --    1.02858   1.05545   1.06546   1.07128   1.08995
 Alpha virt. eigenvalues --    1.09742   1.11260   1.11760   1.12302   1.13881
 Alpha virt. eigenvalues --    1.14610   1.14860   1.15720   1.16575   1.18693
 Alpha virt. eigenvalues --    1.19527   1.20386   1.21591   1.23524   1.23746
 Alpha virt. eigenvalues --    1.24568   1.25580   1.27300   1.27840   1.29396
 Alpha virt. eigenvalues --    1.30221   1.32761   1.34958   1.36694   1.40369
 Alpha virt. eigenvalues --    1.41324   1.45025   1.47314   1.50098   1.53041
 Alpha virt. eigenvalues --    1.56016   1.58953   1.60065   1.62577   1.67615
 Alpha virt. eigenvalues --    1.68713   1.69956   1.72943   1.74173   1.77041
 Alpha virt. eigenvalues --    1.81828   1.84144   1.86923   1.90789   1.93402
 Alpha virt. eigenvalues --    1.96087   1.98048   1.99590   2.01208   2.02696
 Alpha virt. eigenvalues --    2.04781   2.05722   2.08833   2.09484   2.12533
 Alpha virt. eigenvalues --    2.13859   2.15481   2.18440   2.20319   2.21542
 Alpha virt. eigenvalues --    2.23174   2.24996   2.26313   2.28146   2.30019
 Alpha virt. eigenvalues --    2.31309   2.33960   2.36144   2.36527   2.38815
 Alpha virt. eigenvalues --    2.40100   2.41347   2.42951   2.45328   2.48656
 Alpha virt. eigenvalues --    2.50881   2.51553   2.53378   2.55185   2.61993
 Alpha virt. eigenvalues --    2.63345   2.64875   2.67926   2.70753   2.72197
 Alpha virt. eigenvalues --    2.72577   2.74436   2.77834   2.79074   2.84359
 Alpha virt. eigenvalues --    2.87670   2.87998   2.92554   2.93986   2.96805
 Alpha virt. eigenvalues --    2.99025   3.01639   3.03733   3.04506   3.08013
 Alpha virt. eigenvalues --    3.08987   3.14190   3.21638   3.25138   3.26675
 Alpha virt. eigenvalues --    3.33471   3.37481   3.39015   3.51970   3.62485
 Alpha virt. eigenvalues --    4.13002   4.28554   4.32242   4.37307   4.45858
 Alpha virt. eigenvalues --    4.57315   4.62080   4.62816   4.73421   4.79744
 Alpha virt. eigenvalues --    4.97621   5.00673   5.03387   5.12790
          Condensed to atoms (all electrons):
               1          2          3          4          5          6
     1  O    8.313038   0.309517  -0.080669  -0.086680   0.004450  -0.000017
     2  N    0.309517   5.734150   0.297027   0.259658  -0.047065   0.001119
     3  O   -0.080669   0.297027   8.351737  -0.090907   0.003574   0.000697
     4  C   -0.086680   0.259658  -0.090907   5.221968   0.553206  -0.049660
     5  C    0.004450  -0.047065   0.003574   0.553206   4.707776   0.319965
     6  N   -0.000017   0.001119   0.000697  -0.049660   0.319965   7.196391
     7  C    0.000004  -0.000114   0.000003   0.003243  -0.029700   0.168367
     8  H   -0.000000   0.000002  -0.000000  -0.000229   0.002670  -0.051360
     9  C   -0.000000  -0.000002  -0.000000   0.000920   0.000914  -0.057957
    10  C    0.000000   0.000000   0.000000  -0.000037  -0.000052   0.003646
    11  C   -0.000000  -0.000000  -0.000000  -0.000027   0.000022  -0.000202
    12  C   -0.000000   0.000003  -0.000000   0.000002  -0.000087   0.003960
    13  C   -0.000030  -0.000090  -0.000007  -0.014476  -0.001227  -0.047291
    14  H   -0.000007  -0.000148   0.000000   0.003678   0.006890  -0.008055
    15  N    0.000199   0.002366  -0.000018  -0.064790  -0.005494   0.001687
    16  C    0.001694  -0.031177   0.002684   0.334208  -0.050166  -0.004467
    17  H    0.000189  -0.007271   0.016258  -0.024963   0.376168  -0.035839
    18  H    0.000001  -0.000050   0.000009   0.001747  -0.031648   0.337723
    19  H    0.000000  -0.000002   0.000000  -0.000938   0.000782   0.000147
    20  H    0.000000  -0.000000   0.000000  -0.000056   0.000137  -0.000885
    21  H   -0.000000   0.000000   0.000000   0.000000   0.000001  -0.000071
    22  H   -0.000000   0.000000  -0.000000   0.000000  -0.000004  -0.000115
    23  H    0.000000  -0.000000   0.000000   0.000035  -0.000001  -0.000030
    24  H    0.000000   0.000000   0.000000   0.000000  -0.000000   0.000006
    25  H    0.000000  -0.000000   0.000000   0.000018   0.000002  -0.000095
    26  H   -0.000000  -0.000000   0.000000   0.000010  -0.000004  -0.000055
    27  H    0.006246  -0.000801   0.000019  -0.060615   0.002303   0.000076
               7          8          9         10         11         12
     1  O    0.000004  -0.000000  -0.000000   0.000000  -0.000000  -0.000000
     2  N   -0.000114   0.000002  -0.000002   0.000000  -0.000000   0.000003
     3  O    0.000003  -0.000000  -0.000000   0.000000  -0.000000  -0.000000
     4  C    0.003243  -0.000229   0.000920  -0.000037  -0.000027   0.000002
     5  C   -0.029700   0.002670   0.000914  -0.000052   0.000022  -0.000087
     6  N    0.168367  -0.051360  -0.057957   0.003646  -0.000202   0.003960
     7  C    5.006651   0.419305   0.347695  -0.054970  -0.008951  -0.060956
     8  H    0.419305   0.539969  -0.056092   0.001153  -0.000446  -0.001988
     9  C    0.347695  -0.056092   5.157573   0.323031  -0.049911  -0.005803
    10  C   -0.054970   0.001153   0.323031   5.122820   0.336609  -0.060123
    11  C   -0.008951  -0.000446  -0.049911   0.336609   5.118507   0.336253
    12  C   -0.060956  -0.001988  -0.005803  -0.060123   0.336253   5.116669
    13  C    0.347038  -0.040068  -0.058140  -0.000872  -0.051305   0.369447
    14  H   -0.046597  -0.000699   0.004467  -0.000414   0.004157  -0.035464
    15  N   -0.055968   0.003906  -0.014399   0.001540  -0.012280  -0.080842
    16  C   -0.003658   0.000189  -0.002149   0.000034  -0.000026   0.003326
    17  H    0.001689  -0.000026  -0.000078   0.000001   0.000000   0.000000
    18  H   -0.021317  -0.004066   0.001136  -0.000088   0.000004  -0.000122
    19  H   -0.036971   0.004411   0.389752  -0.031658  -0.002297   0.000727
    20  H   -0.041907  -0.002124   0.399695  -0.035612   0.003931  -0.000395
    21  H    0.004607  -0.000082  -0.036196   0.402470  -0.034811   0.004291
    22  H   -0.004805   0.003564  -0.046808   0.397625  -0.045549  -0.000989
    23  H    0.000508   0.000038  -0.001913  -0.039084   0.399229  -0.037751
    24  H   -0.000129  -0.000101   0.004368  -0.038471   0.402332  -0.038768
    25  H    0.005127  -0.000019  -0.000425   0.004166  -0.033534   0.398705
    26  H   -0.004027   0.001758   0.000952  -0.002159  -0.041530   0.397025
    27  H   -0.000398   0.000011  -0.000078   0.000009   0.000007  -0.000036
              13         14         15         16         17         18
     1  O   -0.000030  -0.000007   0.000199   0.001694   0.000189   0.000001
     2  N   -0.000090  -0.000148   0.002366  -0.031177  -0.007271  -0.000050
     3  O   -0.000007   0.000000  -0.000018   0.002684   0.016258   0.000009
     4  C   -0.014476   0.003678  -0.064790   0.334208  -0.024963   0.001747
     5  C   -0.001227   0.006890  -0.005494  -0.050166   0.376168  -0.031648
     6  N   -0.047291  -0.008055   0.001687  -0.004467  -0.035839   0.337723
     7  C    0.347038  -0.046597  -0.055968  -0.003658   0.001689  -0.021317
     8  H   -0.040068  -0.000699   0.003906   0.000189  -0.000026  -0.004066
     9  C   -0.058140   0.004467  -0.014399  -0.002149  -0.000078   0.001136
    10  C   -0.000872  -0.000414   0.001540   0.000034   0.000001  -0.000088
    11  C   -0.051305   0.004157  -0.012280  -0.000026   0.000000   0.000004
    12  C    0.369447  -0.035464  -0.080842   0.003326   0.000000  -0.000122
    13  C    5.051928   0.400302   0.247124  -0.074620   0.000024   0.003094
    14  H    0.400302   0.528191  -0.038250  -0.003951   0.000198  -0.000117
    15  N    0.247124  -0.038250   6.949320   0.578101  -0.000120  -0.000120
    16  C   -0.074620  -0.003951   0.578101   4.735532   0.002614  -0.000205
    17  H    0.000024   0.000198  -0.000120   0.002614   0.384844  -0.003041
    18  H    0.003094  -0.000117  -0.000120  -0.000205  -0.003041   0.314636
    19  H   -0.007366   0.000115   0.007735   0.003387   0.000015  -0.000141
    20  H    0.004278  -0.000064   0.000116  -0.000033   0.000005   0.000817
    21  H   -0.000406   0.000010  -0.000036   0.000003  -0.000000   0.000001
    22  H    0.000074  -0.000058   0.000010  -0.000003   0.000000   0.000001
    23  H   -0.007120   0.000002   0.008224   0.000021   0.000000   0.000000
    24  H    0.004689  -0.000053   0.000147   0.000008   0.000000  -0.000000
    25  H   -0.035596  -0.002737  -0.000158  -0.000007  -0.000000   0.000002
    26  H   -0.047141  -0.001111   0.004799  -0.000097   0.000000  -0.000000
    27  H    0.005250  -0.000222  -0.039972   0.401066  -0.000079   0.000001
              19         20         21         22         23         24
     1  O    0.000000   0.000000  -0.000000  -0.000000   0.000000   0.000000
     2  N   -0.000002  -0.000000   0.000000   0.000000  -0.000000   0.000000
     3  O    0.000000   0.000000   0.000000  -0.000000   0.000000   0.000000
     4  C   -0.000938  -0.000056   0.000000   0.000000   0.000035   0.000000
     5  C    0.000782   0.000137   0.000001  -0.000004  -0.000001  -0.000000
     6  N    0.000147  -0.000885  -0.000071  -0.000115  -0.000030   0.000006
     7  C   -0.036971  -0.041907   0.004607  -0.004805   0.000508  -0.000129
     8  H    0.004411  -0.002124  -0.000082   0.003564   0.000038  -0.000101
     9  C    0.389752   0.399695  -0.036196  -0.046808  -0.001913   0.004368
    10  C   -0.031658  -0.035612   0.402470   0.397625  -0.039084  -0.038471
    11  C   -0.002297   0.003931  -0.034811  -0.045549   0.399229   0.402332
    12  C    0.000727  -0.000395   0.004291  -0.000989  -0.037751  -0.038768
    13  C   -0.007366   0.004278  -0.000406   0.000074  -0.007120   0.004689
    14  H    0.000115  -0.000064   0.000010  -0.000058   0.000002  -0.000053
    15  N    0.007735   0.000116  -0.000036   0.000010   0.008224   0.000147
    16  C    0.003387  -0.000033   0.000003  -0.000003   0.000021   0.000008
    17  H    0.000015   0.000005  -0.000000   0.000000   0.000000   0.000000
    18  H   -0.000141   0.000817   0.000001   0.000001   0.000000  -0.000000
    19  H    0.503029  -0.024534  -0.002796   0.003927   0.001513  -0.000063
    20  H   -0.024534   0.540938  -0.002626  -0.002995  -0.000047  -0.000082
    21  H   -0.002796  -0.002626   0.523415  -0.027358  -0.002905  -0.002220
    22  H    0.003927  -0.002995  -0.027358   0.571273   0.004149  -0.003685
    23  H    0.001513  -0.000047  -0.002905   0.004149   0.499780  -0.025538
    24  H   -0.000063  -0.000082  -0.002220  -0.003685  -0.025538   0.538422
    25  H   -0.000028   0.000012  -0.000086  -0.000079  -0.002386  -0.002250
    26  H    0.000019  -0.000030  -0.000082   0.002368   0.004062  -0.003104
    27  H    0.000094   0.000000  -0.000000   0.000000  -0.000032  -0.000000
              25         26         27
     1  O    0.000000  -0.000000   0.006246
     2  N   -0.000000  -0.000000  -0.000801
     3  O    0.000000   0.000000   0.000019
     4  C    0.000018   0.000010  -0.060615
     5  C    0.000002  -0.000004   0.002303
     6  N   -0.000095  -0.000055   0.000076
     7  C    0.005127  -0.004027  -0.000398
     8  H   -0.000019   0.001758   0.000011
     9  C   -0.000425   0.000952  -0.000078
    10  C    0.004166  -0.002159   0.000009
    11  C   -0.033534  -0.041530   0.000007
    12  C    0.398705   0.397025  -0.000036
    13  C   -0.035596  -0.047141   0.005250
    14  H   -0.002737  -0.001111  -0.000222
    15  N   -0.000158   0.004799  -0.039972
    16  C   -0.000007  -0.000097   0.401066
    17  H   -0.000000   0.000000  -0.000079
    18  H    0.000002  -0.000000   0.000001
    19  H   -0.000028   0.000019   0.000094
    20  H    0.000012  -0.000030   0.000000
    21  H   -0.000086  -0.000082  -0.000000
    22  H   -0.000079   0.002368   0.000000
    23  H   -0.002386   0.004062  -0.000032
    24  H   -0.002250  -0.003104  -0.000000
    25  H    0.507048  -0.024160  -0.000008
    26  H   -0.024160   0.561779   0.000001
    27  H   -0.000008   0.000001   0.440801
 Mulliken charges:
               1
     1  O   -0.467934
     2  N    0.482878
     3  O   -0.500409
     4  C    0.014687
     5  C    0.186587
     6  N   -0.777684
     7  C    0.066228
     8  H    0.180324
     9  C   -0.300554
    10  C   -0.329563
    11  C   -0.320183
    12  C   -0.307084
    13  C   -0.047493
    14  H    0.189936
    15  N   -0.492826
    16  C    0.107692
    17  H    0.289411
    18  H    0.401744
    19  H    0.191141
    20  H    0.161461
    21  H    0.174877
    22  H    0.149455
    23  H    0.199247
    24  H    0.164492
    25  H    0.186486
    26  H    0.150727
    27  H    0.246357
 Sum of Mulliken charges =  -0.00000
 Mulliken charges with hydrogens summed into heavy atoms:
               1
     1  O   -0.467934
     2  N    0.482878
     3  O   -0.500409
     4  C    0.014687
     5  C    0.475998
     6  N   -0.375940
     7  C    0.246552
     9  C    0.052048
    10  C   -0.005231
    11  C    0.043557
    12  C    0.030129
    13  C    0.142443
    15  N   -0.492826
    16  C    0.354048
 Electronic spatial extent (au):  <R**2>=           3005.8708
 Charge=              0.0000 electrons
 Dipole moment (field-independent basis, Debye):
    X=              5.4063    Y=              4.9015    Z=              0.8461  Tot=              7.3464
 Quadrupole moment (field-independent basis, Debye-Ang):
   XX=           -106.0177   YY=            -79.2520   ZZ=            -81.7517
   XY=             -2.6298   XZ=              1.7925   YZ=              1.3019
 Traceless Quadrupole moment (field-independent basis, Debye-Ang):
   XX=            -17.0106   YY=              9.7551   ZZ=              7.2554
   XY=             -2.6298   XZ=              1.7925   YZ=              1.3019
 Octapole moment (field-independent basis, Debye-Ang**2):
  XXX=             92.2090  YYY=             38.5470  ZZZ=             -5.0026  XYY=             -4.4332
  XXY=             13.3402  XXZ=             -4.8071  XZZ=             -9.1792  YZZ=             -0.6484
  YYZ=              6.5515  XYZ=              1.0992
 Hexadecapole moment (field-independent basis, Debye-Ang**3):
 XXXX=          -3390.2232 YYYY=           -592.1961 ZZZZ=           -305.1793 XXXY=            -48.2794
 XXXZ=             57.8649 YYYX=            -27.7813 YYYZ=             20.5492 ZZZX=             38.7290
 ZZZY=              7.6002 XXYY=           -625.4209 XXZZ=           -528.7975 YYZZ=           -156.6037
 XXYZ=             -9.8499 YYXZ=             14.0594 ZZXY=              1.1853
 N-N= 9.318869453142D+02 E-N=-3.410479333916D+03  KE= 6.596310498988D+02
 Unable to Open any file for archive entry.
 1\1\GINC-LOTUS\FOpt\RMP2-FC\6-31G(d)\C9H13N3O2\ALEXEY\02-Jul-2023\0\\#
 MP2/6-31G* SCF=Tight Opt=(ModRedun, MaxCycle=20 ) NoSymm\\MolName:\\0,
 1\O,-3.4915813751,-1.4344160578,-0.314276069\N,-3.1239589029,-0.296826
 4889,0.0395113812\O,-3.9053507859,0.6028047316,0.4043924281\C,-1.69904
 02723,-0.0435866098,0.0509702723\C,-1.3152016158,1.250978152,0.2912095
 77\N,-0.0681342764,1.7581910504,0.2518580889\C,1.2067787272,1.03339144
 22,0.2848112349\H,1.8207271831,1.5658622459,1.0276620654\C,1.974354858
 5,1.0321442915,-1.0330148612\C,3.3571719904,0.4153800861,-0.7901963556
 \C,3.2635766007,-0.9760354994,-0.1571919833\C,2.3996224293,-0.97254031
 94,1.1067873335\C,1.0106855234,-0.4000052758,0.7995528078\H,0.39323789
 43,-0.358199831,1.7123568124\N,0.3964113089,-1.2883216728,-0.184168598
 9\C,-0.8316346026,-1.0593629413,-0.519717212\H,-2.1007988278,1.9703579
 371,0.5087296376\H,-0.0076381178,2.7477507911,0.4627893145\H,1.4142330
 622,0.4556456754,-1.7760828364\H,2.0690817781,2.0576183587,-1.41152014
 04\H,3.9121387158,0.3653962734,-1.7339256916\H,3.9282912571,1.08116960
 39,-0.1275551144\H,2.8188735131,-1.6731938063,-0.8739688669\H,4.268786
 2861,-1.3460775975,0.0770548055\H,2.2826530226,-1.9921401209,1.4890346
 097\H,2.8772336951,-0.3793560688,1.8989192725\H,-1.2885190694,-1.75363
 83498,-1.2250119117\\Version=ES64L-G16RevC.02\HF=-661.2967922\MP2=-663
 .3318969\RMSD=8.466e-09\RMSF=3.174e-03\Dipole=1.9610023,1.7124796,0.32
 56528\PG=C01 [X(C9H13N3O2)]\\@
 The archive entry for this job was punched.


 Money is a good servant but a bad master.
                        -- French Proverb
 Job cpu time:       0 days  1 hours 20 minutes 42.0 seconds.
 Elapsed time:       0 days  0 hours 24 minutes 40.6 seconds.
 File lengths (MBytes):  RWF=     36 Int=      0 D2E=      0 Chk=      7 Scr=      1
 Normal termination of Gaussian 16 at Sun Jul  2 08:44:15 2023.
