 Entering Gaussian System, Link 0=g16
 Initial command:
 /home/alexey/programs//g16/l1.exe "/home/alexey/tmp/Gau-1472350.inp" -scrdir="/home/alexey/tmp/"
 Entering Link 1 = /home/alexey/programs//g16/l1.exe PID=   1472352.
  
 Copyright (c) 1988-2021, Gaussian, Inc.  All Rights Reserved.
  
 This is part of the Gaussian(R) 16 program.  It is based on
 the Gaussian(R) 09 system (copyright 2009, Gaussian, Inc.),
 the Gaussian(R) 03 system (copyright 2003, Gaussian, Inc.),
 the Gaussian(R) 98 system (copyright 1998, Gaussian, Inc.),
 the Gaussian(R) 94 system (copyright 1995, Gaussian, Inc.),
 the Gaussian 92(TM) system (copyright 1992, Gaussian, Inc.),
 the Gaussian 90(TM) system (copyright 1990, Gaussian, Inc.),
 the Gaussian 88(TM) system (copyright 1988, Gaussian, Inc.),
 the Gaussian 86(TM) system (copyright 1986, Carnegie Mellon
 University), and the Gaussian 82(TM) system (copyright 1983,
 Carnegie Mellon University). Gaussian is a federally registered
 trademark of Gaussian, Inc.
  
 This software contains proprietary and confidential information,
 including trade secrets, belonging to Gaussian, Inc.
  
 This software is provided under written license and may be
 used, copied, transmitted, or stored only in accord with that
 written license.
  
 The following legend is applicable only to US Government
 contracts under FAR:
  
                    RESTRICTED RIGHTS LEGEND
  
 Use, reproduction and disclosure by the US Government is
 subject to restrictions as set forth in subparagraphs (a)
 and (c) of the Commercial Computer Software - Restricted
 Rights clause in FAR 52.227-19.
  
 Gaussian, Inc.
 340 Quinnipiac St., Bldg. 40, Wallingford CT 06492
  
  
 ---------------------------------------------------------------
 Warning -- This program may not be used in any manner that
 competes with the business of Gaussian, Inc. or will provide
 assistance to any competitor of Gaussian, Inc.  The licensee
 of this program is prohibited from giving any competitor of
 Gaussian, Inc. access to this program.  By using this program,
 the user acknowledges that Gaussian, Inc. is engaged in the
 business of creating and licensing software in the field of
 computational chemistry and represents and warrants to the
 licensee that it is not a competitor of Gaussian, Inc. and that
 it will not use this program in any manner prohibited above.
 ---------------------------------------------------------------
  

 Cite this work as:
 Gaussian 16, Revision C.02,
 M. J. Frisch, G. W. Trucks, H. B. Schlegel, G. E. Scuseria, 
 M. A. Robb, J. R. Cheeseman, G. Scalmani, V. Barone, 
 G. A. Petersson, H. Nakatsuji, X. Li, M. Caricato, A. V. Marenich, 
 J. Bloino, B. G. Janesko, R. Gomperts, B. Mennucci, H. P. Hratchian, 
 J. V. Ortiz, A. F. Izmaylov, J. L. Sonnenberg, D. Williams-Young, 
 F. Ding, F. Lipparini, F. Egidi, J. Goings, B. Peng, A. Petrone, 
 T. Henderson, D. Ranasinghe, V. G. Zakrzewski, J. Gao, N. Rega, 
 G. Zheng, W. Liang, M. Hada, M. Ehara, K. Toyota, R. Fukuda, 
 J. Hasegawa, M. Ishida, T. Nakajima, Y. Honda, O. Kitao, H. Nakai, 
 T. Vreven, K. Throssell, J. A. Montgomery, Jr., J. E. Peralta, 
 F. Ogliaro, M. J. Bearpark, J. J. Heyd, E. N. Brothers, K. N. Kudin, 
 V. N. Staroverov, T. A. Keith, R. Kobayashi, J. Normand, 
 K. Raghavachari, A. P. Rendell, J. C. Burant, S. S. Iyengar, 
 J. Tomasi, M. Cossi, J. M. Millam, M. Klene, C. Adamo, R. Cammi, 
 J. W. Ochterski, R. L. Martin, K. Morokuma, O. Farkas, 
 J. B. Foresman, and D. J. Fox, Gaussian, Inc., Wallingford CT, 2019.
 
 ******************************************
 Gaussian 16:  ES64L-G16RevC.02  7-Dec-2021
                 2-Jul-2023 
 ******************************************
 %mem=8GB
 %NPROCS=4
 Will use up to    4 processors via shared memory.
 %NoSave
 ---------------------------------------------------------
 #MP2/6-31G* SCF=Tight Opt=(ModRedun, MaxCycle=20 ) NoSymm
 ---------------------------------------------------------
 1/6=20,18=120,19=15,38=1/1,3;
 2/9=110,12=2,15=1,17=6,18=5,40=1/2;
 3/5=1,6=6,7=1,11=9,25=1,30=1,71=1/1,2,3;
 4//1;
 5/5=2,32=2,38=5/2;
 8/6=4,10=2/1;
 9/15=2,16=-3/6;
 10/5=1,31=1/2;
 6/7=2,8=2,9=2,10=2/1;
 7/12=2,30=1/1,2,3,16;
 1/6=20,18=20,19=15/3(2);
 2/9=110,15=1/2;
 99//99;
 2/9=110,15=1/2;
 3/5=1,6=6,7=1,11=9,25=1,30=1,71=1/1,2,3;
 4/5=5,16=3,69=1/1;
 5/5=2,32=2,38=5/2;
 8/6=4,10=2/1;
 9/15=2,16=-3/6;
 10/5=1,31=1/2;
 7/12=2,30=1/1,2,3,16;
 1/6=20,18=20,19=15/3(-8);
 2/9=110,15=1/2;
 6/7=2,8=2,9=2,10=2/1;
 99/9=10/99;
 --------
 MolName:
 --------
 Symbolic Z-matrix:
 Charge =  0 Multiplicity = 1
 8                    0    -3.59208  -1.48179  -0.1194 
 7                    0    -3.24872  -0.31441   0.05824 
 8                    0    -4.0361    0.60358   0.29027 
 6                    0    -1.7606    0.00696  -0.03436 
 6                    0    -1.37348   1.31104   0.29748 
 7                    0    -0.084     1.78111   0.3186 
 6                    0     1.19549   1.00431   0.32467 
 1                    0     1.83924   1.50087   1.09622 
 6                    0     1.99776   1.04996  -0.99923 
 6                    0     3.39951   0.4537   -0.7701 
 6                    0     3.30995  -0.96163  -0.1779 
 6                    0     2.42497  -0.98882   1.08715 
 6                    0     0.99877  -0.44171   0.80353 
 1                    0     0.42952  -0.47747   1.76217 
 7                    0     0.36269  -1.30645  -0.19452 
 6                    0    -0.86886  -1.07941  -0.51727 
 1                    0    -2.15348   2.02867   0.60171 
 1                    0     0.13826   2.75337   0.09136 
 1                    0     1.46636   0.4767   -1.78852 
 1                    0     2.10143   2.09924  -1.34841 
 1                    0     3.96153   0.42568  -1.72922 
 1                    0     3.96145   1.10332  -0.06236 
 1                    0     2.87847  -1.64742  -0.94166 
 1                    0     4.32844  -1.33357   0.06807 
 1                    0     2.34842  -2.03474   1.45721 
 1                    0     2.90228  -0.38189   1.88491 
 1                    0    -1.3652   -1.78522  -1.20063 
 
 The following ModRedundant input section has been read:
 D      13      15      16       4 F                                           
 D       1       2       4      16 F                                           
 D       7      13      15      16 F                                           
 D       7       9      10      11 F                                           
 D       9      10      11      12 F                                           
 D       6       7      13      15 F                                           
 

 GradGradGradGradGradGradGradGradGradGradGradGradGradGradGradGradGradGrad
 Berny optimization.
 Initialization pass.
                           ----------------------------
                           !    Initial Parameters    !
                           ! (Angstroms and Degrees)  !
 --------------------------                            --------------------------
 ! Name  Definition              Value          Derivative Info.                !
 --------------------------------------------------------------------------------
 ! R1    R(1,2)                  1.2297         estimate D2E/DX2                !
 ! R2    R(2,3)                  1.2315         estimate D2E/DX2                !
 ! R3    R(2,4)                  1.5252         estimate D2E/DX2                !
 ! R4    R(4,5)                  1.4002         estimate D2E/DX2                !
 ! R5    R(4,16)                 1.4861         estimate D2E/DX2                !
 ! R6    R(5,6)                  1.3727         estimate D2E/DX2                !
 ! R7    R(5,17)                 1.1027         estimate D2E/DX2                !
 ! R8    R(6,7)                  1.4968         estimate D2E/DX2                !
 ! R9    R(6,18)                 1.0229         estimate D2E/DX2                !
 ! R10   R(7,8)                  1.1208         estimate D2E/DX2                !
 ! R11   R(7,9)                  1.5487         estimate D2E/DX2                !
 ! R12   R(7,13)                 1.5359         estimate D2E/DX2                !
 ! R13   R(9,10)                 1.5404         estimate D2E/DX2                !
 ! R14   R(9,19)                 1.1109         estimate D2E/DX2                !
 ! R15   R(9,20)                 1.1107         estimate D2E/DX2                !
 ! R16   R(10,11)                1.5368         estimate D2E/DX2                !
 ! R17   R(10,21)                1.112          estimate D2E/DX2                !
 ! R18   R(10,22)                1.113          estimate D2E/DX2                !
 ! R19   R(11,12)                1.5441         estimate D2E/DX2                !
 ! R20   R(11,23)                1.1135         estimate D2E/DX2                !
 ! R21   R(11,24)                1.1118         estimate D2E/DX2                !
 ! R22   R(12,13)                1.5536         estimate D2E/DX2                !
 ! R23   R(12,25)                1.1121         estimate D2E/DX2                !
 ! R24   R(12,26)                1.1102         estimate D2E/DX2                !
 ! R25   R(13,14)                1.1155         estimate D2E/DX2                !
 ! R26   R(13,15)                1.4658         estimate D2E/DX2                !
 ! R27   R(15,16)                1.2932         estimate D2E/DX2                !
 ! R28   R(16,27)                1.1007         estimate D2E/DX2                !
 ! A1    A(1,2,3)              123.8032         estimate D2E/DX2                !
 ! A2    A(1,2,4)              117.6242         estimate D2E/DX2                !
 ! A3    A(3,2,4)              118.5677         estimate D2E/DX2                !
 ! A4    A(2,4,5)              116.8458         estimate D2E/DX2                !
 ! A5    A(2,4,16)             116.8169         estimate D2E/DX2                !
 ! A6    A(5,4,16)             126.294          estimate D2E/DX2                !
 ! A7    A(4,5,6)              125.6131         estimate D2E/DX2                !
 ! A8    A(4,5,17)             118.4201         estimate D2E/DX2                !
 ! A9    A(6,5,17)             115.937          estimate D2E/DX2                !
 ! A10   A(5,6,7)              128.7072         estimate D2E/DX2                !
 ! A11   A(5,6,18)             121.7491         estimate D2E/DX2                !
 ! A12   A(7,6,18)             107.9649         estimate D2E/DX2                !
 ! A13   A(6,7,8)              105.2972         estimate D2E/DX2                !
 ! A14   A(6,7,9)              115.0902         estimate D2E/DX2                !
 ! A15   A(6,7,13)             112.3567         estimate D2E/DX2                !
 ! A16   A(8,7,9)              106.1328         estimate D2E/DX2                !
 ! A17   A(8,7,13)             106.0243         estimate D2E/DX2                !
 ! A18   A(9,7,13)             111.1387         estimate D2E/DX2                !
 ! A19   A(7,9,10)             109.4407         estimate D2E/DX2                !
 ! A20   A(7,9,19)             110.1435         estimate D2E/DX2                !
 ! A21   A(7,9,20)             110.1784         estimate D2E/DX2                !
 ! A22   A(10,9,19)            109.9525         estimate D2E/DX2                !
 ! A23   A(10,9,20)            109.1168         estimate D2E/DX2                !
 ! A24   A(19,9,20)            107.9865         estimate D2E/DX2                !
 ! A25   A(9,10,11)            111.1467         estimate D2E/DX2                !
 ! A26   A(9,10,21)            109.9603         estimate D2E/DX2                !
 ! A27   A(9,10,22)            109.154          estimate D2E/DX2                !
 ! A28   A(11,10,21)           109.7919         estimate D2E/DX2                !
 ! A29   A(11,10,22)           108.7793         estimate D2E/DX2                !
 ! A30   A(21,10,22)           107.9388         estimate D2E/DX2                !
 ! A31   A(10,11,12)           111.4268         estimate D2E/DX2                !
 ! A32   A(10,11,23)           108.9945         estimate D2E/DX2                !
 ! A33   A(10,11,24)           109.8735         estimate D2E/DX2                !
 ! A34   A(12,11,23)           109.2095         estimate D2E/DX2                !
 ! A35   A(12,11,24)           109.7477         estimate D2E/DX2                !
 ! A36   A(23,11,24)           107.4989         estimate D2E/DX2                !
 ! A37   A(11,12,13)           111.7377         estimate D2E/DX2                !
 ! A38   A(11,12,25)           109.1858         estimate D2E/DX2                !
 ! A39   A(11,12,26)           109.4306         estimate D2E/DX2                !
 ! A40   A(13,12,25)           109.1929         estimate D2E/DX2                !
 ! A41   A(13,12,26)           109.4703         estimate D2E/DX2                !
 ! A42   A(25,12,26)           107.7358         estimate D2E/DX2                !
 ! A43   A(7,13,12)            105.7166         estimate D2E/DX2                !
 ! A44   A(7,13,14)            111.3143         estimate D2E/DX2                !
 ! A45   A(7,13,15)            113.4984         estimate D2E/DX2                !
 ! A46   A(12,13,14)           107.4745         estimate D2E/DX2                !
 ! A47   A(12,13,15)           108.3553         estimate D2E/DX2                !
 ! A48   A(14,13,15)           110.1694         estimate D2E/DX2                !
 ! A49   A(13,15,16)           118.6607         estimate D2E/DX2                !
 ! A50   A(4,16,15)            128.2185         estimate D2E/DX2                !
 ! A51   A(4,16,27)            113.5728         estimate D2E/DX2                !
 ! A52   A(15,16,27)           118.1512         estimate D2E/DX2                !
 ! D1    D(1,2,4,5)           -173.9836         estimate D2E/DX2                !
 ! D2    D(1,2,4,16)             8.2586         Frozen                          !
 ! D3    D(3,2,4,5)              6.7957         estimate D2E/DX2                !
 ! D4    D(3,2,4,16)          -170.9621         estimate D2E/DX2                !
 ! D5    D(2,4,5,6)            177.7735         estimate D2E/DX2                !
 ! D6    D(2,4,5,17)            -0.1528         estimate D2E/DX2                !
 ! D7    D(16,4,5,6)            -4.7093         estimate D2E/DX2                !
 ! D8    D(16,4,5,17)          177.3644         estimate D2E/DX2                !
 ! D9    D(2,4,16,15)         -148.5075         estimate D2E/DX2                !
 ! D10   D(2,4,16,27)           28.6544         estimate D2E/DX2                !
 ! D11   D(5,4,16,15)           33.9747         estimate D2E/DX2                !
 ! D12   D(5,4,16,27)         -148.8634         estimate D2E/DX2                !
 ! D13   D(4,5,6,7)            -15.8829         estimate D2E/DX2                !
 ! D14   D(4,5,6,18)           147.9966         estimate D2E/DX2                !
 ! D15   D(17,5,6,7)           162.0891         estimate D2E/DX2                !
 ! D16   D(17,5,6,18)          -34.0314         estimate D2E/DX2                !
 ! D17   D(5,6,7,8)           -135.5007         estimate D2E/DX2                !
 ! D18   D(5,6,7,9)            108.0021         estimate D2E/DX2                !
 ! D19   D(5,6,7,13)           -20.5437         estimate D2E/DX2                !
 ! D20   D(18,6,7,8)            58.871          estimate D2E/DX2                !
 ! D21   D(18,6,7,9)           -57.6262         estimate D2E/DX2                !
 ! D22   D(18,6,7,13)          173.828          estimate D2E/DX2                !
 ! D23   D(6,7,9,10)           168.9513         estimate D2E/DX2                !
 ! D24   D(6,7,9,19)           -70.0569         estimate D2E/DX2                !
 ! D25   D(6,7,9,20)            48.9701         estimate D2E/DX2                !
 ! D26   D(8,7,9,10)            52.9307         estimate D2E/DX2                !
 ! D27   D(8,7,9,19)           173.9225         estimate D2E/DX2                !
 ! D28   D(8,7,9,20)           -67.0505         estimate D2E/DX2                !
 ! D29   D(13,7,9,10)          -61.8996         estimate D2E/DX2                !
 ! D30   D(13,7,9,19)           59.0922         estimate D2E/DX2                !
 ! D31   D(13,7,9,20)          178.1191         estimate D2E/DX2                !
 ! D32   D(6,7,13,12)         -166.3537         estimate D2E/DX2                !
 ! D33   D(6,7,13,14)          -49.9533         estimate D2E/DX2                !
 ! D34   D(6,7,13,15)           75.0217         Frozen                          !
 ! D35   D(8,7,13,12)          -51.8391         estimate D2E/DX2                !
 ! D36   D(8,7,13,14)           64.5613         estimate D2E/DX2                !
 ! D37   D(8,7,13,15)         -170.4637         estimate D2E/DX2                !
 ! D38   D(9,7,13,12)           63.0587         estimate D2E/DX2                !
 ! D39   D(9,7,13,14)          179.4592         estimate D2E/DX2                !
 ! D40   D(9,7,13,15)          -55.5659         estimate D2E/DX2                !
 ! D41   D(7,9,10,11)           54.8122         Frozen                          !
 ! D42   D(7,9,10,21)          176.5974         estimate D2E/DX2                !
 ! D43   D(7,9,10,22)          -65.171          estimate D2E/DX2                !
 ! D44   D(19,9,10,11)         -66.2954         estimate D2E/DX2                !
 ! D45   D(19,9,10,21)          55.4898         estimate D2E/DX2                !
 ! D46   D(19,9,10,22)         173.7214         estimate D2E/DX2                !
 ! D47   D(20,9,10,11)         175.4419         estimate D2E/DX2                !
 ! D48   D(20,9,10,21)         -62.7729         estimate D2E/DX2                !
 ! D49   D(20,9,10,22)          55.4587         estimate D2E/DX2                !
 ! D50   D(9,10,11,12)         -52.8222         Frozen                          !
 ! D51   D(9,10,11,23)          67.7677         estimate D2E/DX2                !
 ! D52   D(9,10,11,24)        -174.6794         estimate D2E/DX2                !
 ! D53   D(21,10,11,12)       -174.7055         estimate D2E/DX2                !
 ! D54   D(21,10,11,23)        -54.1155         estimate D2E/DX2                !
 ! D55   D(21,10,11,24)         63.4373         estimate D2E/DX2                !
 ! D56   D(22,10,11,12)         67.3832         estimate D2E/DX2                !
 ! D57   D(22,10,11,23)       -172.0268         estimate D2E/DX2                !
 ! D58   D(22,10,11,24)        -54.474          estimate D2E/DX2                !
 ! D59   D(10,11,12,13)         56.564          estimate D2E/DX2                !
 ! D60   D(10,11,12,25)        177.459          estimate D2E/DX2                !
 ! D61   D(10,11,12,26)        -64.8457         estimate D2E/DX2                !
 ! D62   D(23,11,12,13)        -63.8996         estimate D2E/DX2                !
 ! D63   D(23,11,12,25)         56.9954         estimate D2E/DX2                !
 ! D64   D(23,11,12,26)        174.6907         estimate D2E/DX2                !
 ! D65   D(24,11,12,13)        178.4941         estimate D2E/DX2                !
 ! D66   D(24,11,12,25)        -60.6109         estimate D2E/DX2                !
 ! D67   D(24,11,12,26)         57.0843         estimate D2E/DX2                !
 ! D68   D(11,12,13,7)         -60.0991         estimate D2E/DX2                !
 ! D69   D(11,12,13,14)       -179.076          estimate D2E/DX2                !
 ! D70   D(11,12,13,15)         61.8915         estimate D2E/DX2                !
 ! D71   D(25,12,13,7)         179.0101         estimate D2E/DX2                !
 ! D72   D(25,12,13,14)         60.0331         estimate D2E/DX2                !
 ! D73   D(25,12,13,15)        -58.9994         estimate D2E/DX2                !
 ! D74   D(26,12,13,7)          61.2877         estimate D2E/DX2                !
 ! D75   D(26,12,13,14)        -57.6892         estimate D2E/DX2                !
 ! D76   D(26,12,13,15)       -176.7218         estimate D2E/DX2                !
 ! D77   D(7,13,15,16)         -67.1595         Frozen                          !
 ! D78   D(12,13,15,16)        175.7458         estimate D2E/DX2                !
 ! D79   D(14,13,15,16)         58.4283         estimate D2E/DX2                !
 ! D80   D(13,15,16,4)           2.2815         Frozen                          !
 ! D81   D(13,15,16,27)       -174.7681         estimate D2E/DX2                !
 --------------------------------------------------------------------------------
 Trust Radius=3.00D-01 FncErr=1.00D-07 GrdErr=1.00D-07 EigMax=2.50D+02 EigMin=1.00D-04
 Number of steps in this run=     20 maximum allowed number of steps=    162.
 GradGradGradGradGradGradGradGradGradGradGradGradGradGradGradGradGradGrad

                          Input orientation:                          
 ---------------------------------------------------------------------
 Center     Atomic      Atomic             Coordinates (Angstroms)
 Number     Number       Type             X           Y           Z
 ---------------------------------------------------------------------
      1          8           0       -3.592080   -1.481790   -0.119400
      2          7           0       -3.248720   -0.314410    0.058240
      3          8           0       -4.036100    0.603580    0.290270
      4          6           0       -1.760600    0.006960   -0.034360
      5          6           0       -1.373480    1.311040    0.297480
      6          7           0       -0.084000    1.781110    0.318600
      7          6           0        1.195490    1.004310    0.324670
      8          1           0        1.839240    1.500870    1.096220
      9          6           0        1.997760    1.049960   -0.999230
     10          6           0        3.399510    0.453700   -0.770100
     11          6           0        3.309950   -0.961630   -0.177900
     12          6           0        2.424970   -0.988820    1.087150
     13          6           0        0.998770   -0.441710    0.803530
     14          1           0        0.429520   -0.477470    1.762170
     15          7           0        0.362690   -1.306450   -0.194520
     16          6           0       -0.868860   -1.079410   -0.517270
     17          1           0       -2.153480    2.028670    0.601710
     18          1           0        0.138260    2.753370    0.091360
     19          1           0        1.466360    0.476700   -1.788520
     20          1           0        2.101430    2.099240   -1.348410
     21          1           0        3.961530    0.425680   -1.729220
     22          1           0        3.961450    1.103320   -0.062360
     23          1           0        2.878470   -1.647420   -0.941660
     24          1           0        4.328440   -1.333570    0.068070
     25          1           0        2.348420   -2.034740    1.457210
     26          1           0        2.902280   -0.381890    1.884910
     27          1           0       -1.365200   -1.785220   -1.200630
 ---------------------------------------------------------------------
                    Distance matrix (angstroms):
                    1          2          3          4          5
     1  O    0.000000
     2  N    1.229727   0.000000
     3  O    2.171118   1.231467   0.000000
     4  C    2.361764   1.525239   2.374708   0.000000
     5  C    3.591083   2.493160   2.755013   1.400216   0.000000
     6  N    4.810924   3.804529   4.123891   2.466410   1.372651
     7  C    5.412829   4.643383   5.247028   3.140395   2.587360
     8  H    6.314525   5.500907   5.997858   4.058180   3.315960
     9  C    6.199207   5.523160   6.186237   4.017971   3.621447
    10  C    7.283671   6.743523   7.512333   5.231408   4.965500
    11  C    6.921850   6.594756   7.525524   5.164228   5.227383
    12  C    6.156596   5.805536   6.701954   4.446162   4.510117
    13  C    4.796819   4.314259   5.167783   2.918473   2.992622
    14  H    4.552168   4.057021   4.824616   2.873816   2.931705
    15  N    3.959368   3.753707   4.820020   2.501811   3.179246
    16  C    2.781391   2.565184   3.676409   1.486137   2.575405
    17  H    3.861722   2.642903   2.381624   2.155516   1.102701
    18  H    5.647693   4.569902   4.699622   3.341294   2.099562
    19  H    5.675338   5.125267   5.883412   3.702837   3.621079
    20  H    6.837419   6.035601   6.526220   4.584718   3.924947
    21  H    7.955312   7.465283   8.250580   5.982529   5.775267
    22  H    7.983850   7.349221   8.020904   5.826203   5.351085
    23  H    6.524689   6.349738   7.375360   5.008107   5.326071
    24  H    7.924125   7.645400   8.588798   6.235697   6.289553
    25  H    6.170980   6.020351   7.006039   4.824662   5.137291
    26  H    6.885038   6.416859   7.187151   5.057396   4.864984
    27  H    2.494017   2.701052   3.881089   2.174497   3.439655
                    6          7          8          9         10
     6  N    0.000000
     7  C    1.496847   0.000000
     8  H    2.093342   1.120837   0.000000
     9  C    2.570016   1.548687   2.149269   0.000000
    10  C    3.883571   2.521784   2.648426   1.540432   0.000000
    11  C    4.391814   2.930604   3.138515   2.538291   1.536841
    12  C    3.815509   2.462837   2.557678   2.948239   2.545578
    13  C    2.519618   1.535897   2.136744   2.544210   3.006929
    14  H    2.729245   2.201996   2.518855   3.523883   4.012519
    15  N    3.161622   2.510523   3.424508   2.978872   3.556922
    16  C    3.081762   3.051605   4.073696   3.603333   4.542393
    17  H    2.103375   3.513071   4.057700   4.555620   5.932798
    18  H    1.022901   2.057032   2.339195   2.747496   4.082444
    19  H    2.923193   2.194838   3.083778   1.110852   2.185126
    20  H    2.766990   2.195176   2.530416   1.110704   2.174225
    21  H    4.732554   3.493459   3.693678   2.186093   1.112008
    22  H    4.119490   2.794661   2.450332   2.176385   1.112959
    23  H    4.703116   3.386397   3.891617   2.838102   2.171548
    24  H    5.406813   3.917512   3.909892   3.500345   2.181691
    25  H    4.666242   3.442052   3.590281   3.958843   3.501147
    26  H    4.006216   2.696114   2.301493   3.344640   2.827459
    27  H    4.082676   4.082297   5.132479   4.403216   5.282100
                   11         12         13         14         15
    11  C    0.000000
    12  C    1.544112   0.000000
    13  C    2.564191   1.553646   0.000000
    14  H    3.506445   2.167707   1.115489   0.000000
    15  N    2.967409   2.448789   1.465768   2.126102   0.000000
    16  C    4.194222   3.664926   2.374703   2.691462   1.293225
    17  H    6.276843   5.504825   4.010011   3.781441   4.253013
    18  H    4.892172   4.497180   3.384701   3.648940   4.076056
    19  H    2.839316   3.366921   2.789416   3.820062   2.634112
    20  H    3.492784   3.946232   3.507582   4.371547   3.994171
    21  H    2.180775   3.506247   3.993136   5.047829   4.278695
    22  H    2.168368   2.838872   3.451718   4.278123   4.333074
    23  H    1.113469   2.180708   2.834201   3.831036   2.646437
    24  H    1.111828   2.186453   3.524630   4.336411   3.974527
    25  H    2.179378   1.112094   2.187829   2.490034   2.683606
    26  H    2.181164   1.110230   2.190048   2.477649   3.410038
    27  H    4.856059   4.498175   3.377874   3.702623   2.055987
                   16         17         18         19         20
    16  C    0.000000
    17  H    3.544365   0.000000
    18  H    4.009355   2.457177   0.000000
    19  H    3.080715   4.607065   3.237441   0.000000
    20  H    4.429134   4.681048   2.520885   1.797122   0.000000
    21  H    5.202575   6.737667   4.832189   2.496396   2.530966
    22  H    5.320070   6.220099   4.166903   3.098024   2.470922
    23  H    3.813820   6.419980   5.286098   2.687585   3.847947
    24  H    5.236330   7.321524   5.853309   3.862060   4.330147
    25  H    3.893856   6.124564   5.447600   4.197633   5.002229
    26  H    4.525318   5.746139   4.548240   4.036475   4.153520
    27  H    1.100683   4.291337   4.952618   3.671461   5.208492
                   21         22         23         24         25
    21  H    0.000000
    22  H    1.799338   0.000000
    23  H    2.467998   3.084248   0.000000
    24  H    2.541621   2.467818   1.794567   0.000000
    25  H    4.336949   3.841664   2.487076   2.518299   0.000000
    26  H    3.851768   2.668249   3.097036   2.498106   1.794882
    27  H    5.791506   6.165430   4.253797   5.850737   4.573549
                   26         27
    26  H    0.000000
    27  H    5.449888   0.000000
 Symmetry turned off by external request.
 Stoichiometry    C9H13N3O2
 Framework group  C1[X(C9H13N3O2)]
 Deg. of freedom    75
 Full point group                 C1      NOp   1
 Rotational constants (GHZ):           1.6829864           0.4009297           0.3558208
 Standard basis: 6-31G(d) (6D, 7F)
   236 basis functions,   444 primitive gaussians,   236 cartesian basis functions
    52 alpha electrons       52 beta electrons
       nuclear repulsion energy       918.0101832440 Hartrees.
 NAtoms=   27 NActive=   27 NUniq=   27 SFac= 1.00D+00 NAtFMM=   60 NAOKFM=F Big=F
 Integral buffers will be    131072 words long.
 Raffenetti 1 integral format.
 Two-electron integral symmetry is turned off.
 One-electron integrals computed using PRISM.
 NBasis=   236 RedAO= T EigKep=  1.28D-03  NBF=   236
 NBsUse=   236 1.00D-06 EigRej= -1.00D+00 NBFU=   236
 ExpMin= 1.61D-01 ExpMax= 5.48D+03 ExpMxC= 8.25D+02 IAcc=3 IRadAn=         5 AccDes= 0.00D+00
 Harris functional with IExCor=  205 and IRadAn=       5 diagonalized for initial guess.
 HarFok:  IExCor=  205 AccDes= 0.00D+00 IRadAn=         5 IDoV= 1 UseB2=F ITyADJ=14
 ICtDFT=  3500011 ScaDFX=  1.000000  1.000000  1.000000  1.000000
 FoFCou: FMM=F IPFlag=           0 FMFlag=      100000 FMFlg1=           0
         NFxFlg=           0 DoJE=T BraDBF=F KetDBF=T FulRan=T
         wScrn=  0.000000 ICntrl=       500 IOpCl=  0 I1Cent=   200000004 NGrid=           0
         NMat0=    1 NMatS0=      1 NMatT0=    0 NMatD0=    1 NMtDS0=    0 NMtDT0=    0
 Symmetry not used in FoFCou.
 Keep R1 ints in memory in canonical form, NReq=397720213.
 Requested convergence on RMS density matrix=1.00D-08 within 128 cycles.
 Requested convergence on MAX density matrix=1.00D-06.
 Requested convergence on             energy=1.00D-06.
 No special actions if energy rises.
 SCF Done:  E(RHF) =  -661.278344758     A.U. after   16 cycles
            NFock= 16  Conv=0.85D-08     -V/T= 2.0037
 ExpMin= 1.61D-01 ExpMax= 5.48D+03 ExpMxC= 8.25D+02 IAcc=3 IRadAn=         5 AccDes= 0.00D+00
 HarFok:  IExCor=  205 AccDes= 0.00D+00 IRadAn=         5 IDoV=-2 UseB2=F ITyADJ=14
 ICtDFT= 12500011 ScaDFX=  1.000000  1.000000  1.000000  1.000000
 Range of M.O.s used for correlation:    15   236
 NBasis=   236 NAE=    52 NBE=    52 NFC=    14 NFV=     0
 NROrb=    222 NOA=    38 NOB=    38 NVA=   184 NVB=   184
 Fully direct method using O(ONN) memory.
 JobTyp=1 Pass  1:  I=  15 to  52 NPSUse=  4 ParTrn=T ParDer=T DoDerP=T.
 Spin components of T(2) and E(2):
     alpha-alpha T2 =       0.9195075920D-01 E2=     -0.2717417005D+00
     alpha-beta  T2 =       0.5000701426D+00 E2=     -0.1494140283D+01
     beta-beta   T2 =       0.9195075920D-01 E2=     -0.2717417005D+00
 ANorm=    0.1297679337D+01
 E2 =    -0.2037623683D+01 EUMP2 =    -0.66331596844184D+03
          IDoAtm=111111111111111111111111111
          Differentiating once with respect to electric field.
                with respect to dipole field.
          Differentiating once with respect to nuclear coordinates.
 Keep R1 ints in memory in canonical form, NReq=397723379.
          There are     1 degrees of freedom in the 1st order CPHF.  IDoFFX=0 NUNeed=     1.
 LinEq1:  Iter=  0 NonCon=     1 RMS=4.59D-03 Max=1.11D-01 NDo=     1
 AX will form     1 AO Fock derivatives at one time.
 LinEq1:  Iter=  1 NonCon=     1 RMS=1.56D-03 Max=3.23D-02 NDo=     1
 LinEq1:  Iter=  2 NonCon=     1 RMS=6.37D-04 Max=1.77D-02 NDo=     1
 LinEq1:  Iter=  3 NonCon=     1 RMS=2.94D-04 Max=9.07D-03 NDo=     1
 LinEq1:  Iter=  4 NonCon=     1 RMS=9.03D-05 Max=2.02D-03 NDo=     1
 LinEq1:  Iter=  5 NonCon=     1 RMS=3.78D-05 Max=1.94D-03 NDo=     1
 LinEq1:  Iter=  6 NonCon=     1 RMS=1.55D-05 Max=5.86D-04 NDo=     1
 LinEq1:  Iter=  7 NonCon=     1 RMS=6.02D-06 Max=1.08D-04 NDo=     1
 LinEq1:  Iter=  8 NonCon=     1 RMS=2.42D-06 Max=6.34D-05 NDo=     1
 LinEq1:  Iter=  9 NonCon=     1 RMS=9.12D-07 Max=2.60D-05 NDo=     1
 LinEq1:  Iter= 10 NonCon=     1 RMS=4.47D-07 Max=1.51D-05 NDo=     1
 LinEq1:  Iter= 11 NonCon=     1 RMS=1.57D-07 Max=5.79D-06 NDo=     1
 LinEq1:  Iter= 12 NonCon=     1 RMS=5.52D-08 Max=8.19D-07 NDo=     1
 LinEq1:  Iter= 13 NonCon=     1 RMS=1.76D-08 Max=3.67D-07 NDo=     1
 LinEq1:  Iter= 14 NonCon=     1 RMS=5.75D-09 Max=1.54D-07 NDo=     1
 LinEq1:  Iter= 15 NonCon=     1 RMS=2.18D-09 Max=4.95D-08 NDo=     1
 LinEq1:  Iter= 16 NonCon=     1 RMS=8.34D-10 Max=1.32D-08 NDo=     1
 LinEq1:  Iter= 17 NonCon=     1 RMS=2.73D-10 Max=4.17D-09 NDo=     1
 LinEq1:  Iter= 18 NonCon=     1 RMS=9.27D-11 Max=1.07D-09 NDo=     1
 LinEq1:  Iter= 19 NonCon=     0 RMS=3.05D-11 Max=5.02D-10 NDo=     1
 Linear equations converged to 1.000D-10 1.000D-09 after    19 iterations.
 End of Minotr F.D. properties file   721 does not exist.
 End of Minotr F.D. properties file   722 does not exist.
 End of Minotr F.D. properties file   788 does not exist.

 **********************************************************************

            Population analysis using the SCF Density.

 **********************************************************************

 Alpha  occ. eigenvalues --  -20.59907 -20.59444 -15.85336 -15.62921 -15.57151
 Alpha  occ. eigenvalues --  -11.35761 -11.30525 -11.30131 -11.30054 -11.27718
 Alpha  occ. eigenvalues --  -11.24601 -11.23859 -11.23407 -11.22848  -1.58550
 Alpha  occ. eigenvalues --   -1.38063  -1.28364  -1.22792  -1.13257  -1.08355
 Alpha  occ. eigenvalues --   -1.01802  -1.00623  -0.93508  -0.88991  -0.84909
 Alpha  occ. eigenvalues --   -0.81532  -0.78075  -0.76892  -0.74207  -0.71014
 Alpha  occ. eigenvalues --   -0.70391  -0.69825  -0.67430  -0.64448  -0.63330
 Alpha  occ. eigenvalues --   -0.61562  -0.60538  -0.57408  -0.56386  -0.54920
 Alpha  occ. eigenvalues --   -0.53358  -0.50743  -0.49173  -0.48466  -0.47745
 Alpha  occ. eigenvalues --   -0.47566  -0.46071  -0.45727  -0.44038  -0.42108
 Alpha  occ. eigenvalues --   -0.40257  -0.33866
 Alpha virt. eigenvalues --    0.07159   0.11757   0.18571   0.21330   0.23158
 Alpha virt. eigenvalues --    0.24137   0.26264   0.27592   0.28563   0.28881
 Alpha virt. eigenvalues --    0.29964   0.31019   0.31872   0.32233   0.33367
 Alpha virt. eigenvalues --    0.33723   0.34179   0.35533   0.37530   0.38577
 Alpha virt. eigenvalues --    0.40717   0.42053   0.44749   0.45358   0.45666
 Alpha virt. eigenvalues --    0.45863   0.49594   0.53086   0.57626   0.58798
 Alpha virt. eigenvalues --    0.63269   0.69151   0.69524   0.72156   0.73980
 Alpha virt. eigenvalues --    0.75067   0.75786   0.75842   0.77619   0.79505
 Alpha virt. eigenvalues --    0.80398   0.83670   0.85174   0.85440   0.88077
 Alpha virt. eigenvalues --    0.88843   0.90146   0.90973   0.91869   0.93831
 Alpha virt. eigenvalues --    0.95458   0.97177   0.98549   1.00257   1.01933
 Alpha virt. eigenvalues --    1.02703   1.05175   1.06261   1.06822   1.08590
 Alpha virt. eigenvalues --    1.09430   1.10448   1.11033   1.11823   1.13249
 Alpha virt. eigenvalues --    1.13779   1.14298   1.15126   1.16341   1.17436
 Alpha virt. eigenvalues --    1.17801   1.19774   1.20859   1.22151   1.23111
 Alpha virt. eigenvalues --    1.23531   1.24338   1.25877   1.27157   1.27553
 Alpha virt. eigenvalues --    1.29321   1.31456   1.32744   1.35425   1.40119
 Alpha virt. eigenvalues --    1.42469   1.45625   1.46901   1.48326   1.52135
 Alpha virt. eigenvalues --    1.53371   1.55384   1.61044   1.61393   1.66156
 Alpha virt. eigenvalues --    1.69226   1.70149   1.72397   1.73670   1.77039
 Alpha virt. eigenvalues --    1.78694   1.79346   1.84277   1.88952   1.92655
 Alpha virt. eigenvalues --    1.93769   1.96342   1.97742   1.98951   2.00270
 Alpha virt. eigenvalues --    2.03210   2.03967   2.05931   2.08745   2.11890
 Alpha virt. eigenvalues --    2.12624   2.14603   2.17755   2.18763   2.19070
 Alpha virt. eigenvalues --    2.21203   2.22133   2.24403   2.25005   2.26794
 Alpha virt. eigenvalues --    2.29008   2.32517   2.34079   2.35648   2.36010
 Alpha virt. eigenvalues --    2.38292   2.39791   2.41178   2.42997   2.46235
 Alpha virt. eigenvalues --    2.48643   2.50313   2.51341   2.56642   2.57284
 Alpha virt. eigenvalues --    2.60974   2.62610   2.66530   2.68332   2.68791
 Alpha virt. eigenvalues --    2.70044   2.70812   2.75031   2.77981   2.80847
 Alpha virt. eigenvalues --    2.84130   2.86512   2.90188   2.91671   2.95489
 Alpha virt. eigenvalues --    2.97619   2.98546   3.02210   3.03016   3.05587
 Alpha virt. eigenvalues --    3.06860   3.12109   3.19645   3.22583   3.27158
 Alpha virt. eigenvalues --    3.29790   3.33472   3.36844   3.43567   3.58897
 Alpha virt. eigenvalues --    4.09603   4.23191   4.32014   4.36077   4.42798
 Alpha virt. eigenvalues --    4.52882   4.59826   4.60067   4.70822   4.77469
 Alpha virt. eigenvalues --    4.95472   4.99222   5.02401   5.10353
          Condensed to atoms (all electrons):
               1          2          3          4          5          6
     1  O    8.298699   0.313914  -0.089235  -0.079777   0.003421  -0.000014
     2  N    0.313914   5.685178   0.308340   0.264148  -0.044521   0.000922
     3  O   -0.089235   0.308340   8.330022  -0.086892   0.007850   0.000445
     4  C   -0.079777   0.264148  -0.086892   5.239343   0.569734  -0.049406
     5  C    0.003421  -0.044521   0.007850   0.569734   4.667186   0.306450
     6  N   -0.000014   0.000922   0.000445  -0.049406   0.306450   7.203172
     7  C    0.000003  -0.000090   0.000002   0.003284  -0.029648   0.197467
     8  H   -0.000000   0.000002  -0.000000  -0.000120   0.001904  -0.051394
     9  C   -0.000000  -0.000003   0.000000   0.000391   0.001992  -0.054487
    10  C   -0.000000   0.000000  -0.000000  -0.000015  -0.000070   0.003287
    11  C   -0.000000  -0.000000  -0.000000  -0.000018   0.000014  -0.000157
    12  C   -0.000000   0.000002  -0.000000  -0.000024  -0.000092   0.003609
    13  C   -0.000022  -0.000039  -0.000003  -0.011890   0.000406  -0.043686
    14  H   -0.000004  -0.000052  -0.000000   0.003285   0.005458  -0.005753
    15  N    0.000069   0.001669  -0.000014  -0.061268  -0.003923   0.001862
    16  C    0.004128  -0.028454   0.001899   0.320195  -0.040438  -0.001870
    17  H    0.000108  -0.003715   0.011188  -0.029286   0.378962  -0.034708
    18  H    0.000000  -0.000035   0.000008   0.000781  -0.023475   0.327412
    19  H    0.000000   0.000001   0.000000  -0.000615   0.000446   0.000900
    20  H    0.000000  -0.000000   0.000000  -0.000021   0.000033  -0.002059
    21  H   -0.000000  -0.000000   0.000000   0.000000   0.000001  -0.000056
    22  H   -0.000000   0.000000  -0.000000  -0.000000  -0.000002  -0.000097
    23  H    0.000000  -0.000000   0.000000   0.000024  -0.000000  -0.000024
    24  H    0.000000   0.000000   0.000000   0.000000  -0.000000   0.000004
    25  H    0.000000  -0.000000   0.000000   0.000018  -0.000001  -0.000072
    26  H    0.000000  -0.000000   0.000000   0.000008  -0.000001  -0.000066
    27  H    0.004803  -0.000208  -0.000010  -0.065023   0.002194   0.000076
               7          8          9         10         11         12
     1  O    0.000003  -0.000000  -0.000000  -0.000000  -0.000000  -0.000000
     2  N   -0.000090   0.000002  -0.000003   0.000000  -0.000000   0.000002
     3  O    0.000002  -0.000000   0.000000  -0.000000  -0.000000  -0.000000
     4  C    0.003284  -0.000120   0.000391  -0.000015  -0.000018  -0.000024
     5  C   -0.029648   0.001904   0.001992  -0.000070   0.000014  -0.000092
     6  N    0.197467  -0.051394  -0.054487   0.003287  -0.000157   0.003609
     7  C    4.989430   0.417893   0.340058  -0.049234  -0.007626  -0.063996
     8  H    0.417893   0.549510  -0.061310   0.001671  -0.000368  -0.002697
     9  C    0.340058  -0.061310   5.182090   0.317377  -0.052986  -0.006515
    10  C   -0.049234   0.001671   0.317377   5.127055   0.332709  -0.059870
    11  C   -0.007626  -0.000368  -0.052986   0.332709   5.123458   0.330826
    12  C   -0.063996  -0.002697  -0.006515  -0.059870   0.330826   5.136623
    13  C    0.336777  -0.041688  -0.048601  -0.002112  -0.047936   0.367152
    14  H   -0.039739  -0.000924   0.003863  -0.000394   0.003951  -0.040747
    15  N   -0.056715   0.004034  -0.012779   0.001489  -0.007688  -0.073637
    16  C   -0.003118   0.000076  -0.001131  -0.000004  -0.000006   0.002799
    17  H    0.001461  -0.000007  -0.000064   0.000001   0.000000   0.000001
    18  H   -0.027805  -0.002155   0.000754  -0.000122   0.000011  -0.000131
    19  H   -0.035029   0.004151   0.385395  -0.032446  -0.002330   0.000661
    20  H   -0.041392  -0.001897   0.397316  -0.037444   0.004148  -0.000354
    21  H    0.004028  -0.000083  -0.035823   0.400203  -0.035869   0.004199
    22  H   -0.004130   0.003507  -0.045672   0.395992  -0.045601  -0.001256
    23  H    0.000404   0.000034  -0.002014  -0.040100   0.396751  -0.036741
    24  H   -0.000140  -0.000095   0.004395  -0.038486   0.400307  -0.037837
    25  H    0.004951  -0.000001  -0.000367   0.004099  -0.034035   0.395653
    26  H   -0.004467   0.001659   0.001017  -0.002386  -0.042308   0.394835
    27  H   -0.000399   0.000009  -0.000061   0.000005   0.000004  -0.000019
              13         14         15         16         17         18
     1  O   -0.000022  -0.000004   0.000069   0.004128   0.000108   0.000000
     2  N   -0.000039  -0.000052   0.001669  -0.028454  -0.003715  -0.000035
     3  O   -0.000003  -0.000000  -0.000014   0.001899   0.011188   0.000008
     4  C   -0.011890   0.003285  -0.061268   0.320195  -0.029286   0.000781
     5  C    0.000406   0.005458  -0.003923  -0.040438   0.378962  -0.023475
     6  N   -0.043686  -0.005753   0.001862  -0.001870  -0.034708   0.327412
     7  C    0.336777  -0.039739  -0.056715  -0.003118   0.001461  -0.027805
     8  H   -0.041688  -0.000924   0.004034   0.000076  -0.000007  -0.002155
     9  C   -0.048601   0.003863  -0.012779  -0.001131  -0.000064   0.000754
    10  C   -0.002112  -0.000394   0.001489  -0.000004   0.000001  -0.000122
    11  C   -0.047936   0.003951  -0.007688  -0.000006   0.000000   0.000011
    12  C    0.367152  -0.040747  -0.073637   0.002799   0.000001  -0.000131
    13  C    5.031357   0.400676   0.238429  -0.070719  -0.000040   0.003615
    14  H    0.400676   0.520182  -0.036010  -0.004626   0.000092   0.000014
    15  N    0.238429  -0.036010   6.927745   0.585327  -0.000072  -0.000118
    16  C   -0.070719  -0.004626   0.585327   4.705017   0.001707  -0.000231
    17  H   -0.000040   0.000092  -0.000072   0.001707   0.389766  -0.001634
    18  H    0.003615   0.000014  -0.000118  -0.000231  -0.001634   0.323371
    19  H   -0.006415   0.000066   0.006967   0.002650   0.000010  -0.000118
    20  H    0.003847  -0.000048   0.000072  -0.000030  -0.000000   0.003037
    21  H   -0.000363   0.000009  -0.000026   0.000002  -0.000000  -0.000000
    22  H    0.000327  -0.000045   0.000000  -0.000001   0.000000   0.000002
    23  H   -0.005743   0.000008   0.006660   0.000038   0.000000   0.000000
    24  H    0.004125  -0.000057   0.000049   0.000005   0.000000  -0.000000
    25  H   -0.034630  -0.002647   0.000558  -0.000064  -0.000000   0.000002
    26  H   -0.044688  -0.000937   0.004161  -0.000069   0.000000  -0.000001
    27  H    0.004920  -0.000188  -0.039404   0.401631  -0.000057   0.000003
              19         20         21         22         23         24
     1  O    0.000000   0.000000  -0.000000  -0.000000   0.000000   0.000000
     2  N    0.000001  -0.000000  -0.000000   0.000000  -0.000000   0.000000
     3  O    0.000000   0.000000   0.000000  -0.000000   0.000000   0.000000
     4  C   -0.000615  -0.000021   0.000000  -0.000000   0.000024   0.000000
     5  C    0.000446   0.000033   0.000001  -0.000002  -0.000000  -0.000000
     6  N    0.000900  -0.002059  -0.000056  -0.000097  -0.000024   0.000004
     7  C   -0.035029  -0.041392   0.004028  -0.004130   0.000404  -0.000140
     8  H    0.004151  -0.001897  -0.000083   0.003507   0.000034  -0.000095
     9  C    0.385395   0.397316  -0.035823  -0.045672  -0.002014   0.004395
    10  C   -0.032446  -0.037444   0.400203   0.395992  -0.040100  -0.038486
    11  C   -0.002330   0.004148  -0.035869  -0.045601   0.396751   0.400307
    12  C    0.000661  -0.000354   0.004199  -0.001256  -0.036741  -0.037837
    13  C   -0.006415   0.003847  -0.000363   0.000327  -0.005743   0.004125
    14  H    0.000066  -0.000048   0.000009  -0.000045   0.000008  -0.000057
    15  N    0.006967   0.000072  -0.000026   0.000000   0.006660   0.000049
    16  C    0.002650  -0.000030   0.000002  -0.000001   0.000038   0.000005
    17  H    0.000010  -0.000000  -0.000000   0.000000   0.000000   0.000000
    18  H   -0.000118   0.003037  -0.000000   0.000002   0.000000  -0.000000
    19  H    0.507485  -0.024102  -0.002601   0.003760   0.001649  -0.000068
    20  H   -0.024102   0.550371  -0.002588  -0.002977  -0.000050  -0.000090
    21  H   -0.002601  -0.002588   0.526193  -0.024695  -0.002813  -0.002050
    22  H    0.003760  -0.002977  -0.024695   0.568434   0.004062  -0.003596
    23  H    0.001649  -0.000050  -0.002813   0.004062   0.510166  -0.025012
    24  H   -0.000068  -0.000090  -0.002050  -0.003596  -0.025012   0.541015
    25  H   -0.000027   0.000011  -0.000086  -0.000082  -0.002108  -0.002380
    26  H    0.000024  -0.000036  -0.000074   0.002471   0.003825  -0.002774
    27  H    0.000076  -0.000000  -0.000000   0.000000  -0.000020  -0.000000
              25         26         27
     1  O    0.000000   0.000000   0.004803
     2  N   -0.000000  -0.000000  -0.000208
     3  O    0.000000   0.000000  -0.000010
     4  C    0.000018   0.000008  -0.065023
     5  C   -0.000001  -0.000001   0.002194
     6  N   -0.000072  -0.000066   0.000076
     7  C    0.004951  -0.004467  -0.000399
     8  H   -0.000001   0.001659   0.000009
     9  C   -0.000367   0.001017  -0.000061
    10  C    0.004099  -0.002386   0.000005
    11  C   -0.034035  -0.042308   0.000004
    12  C    0.395653   0.394835  -0.000019
    13  C   -0.034630  -0.044688   0.004920
    14  H   -0.002647  -0.000937  -0.000188
    15  N    0.000558   0.004161  -0.039404
    16  C   -0.000064  -0.000069   0.401631
    17  H   -0.000000   0.000000  -0.000057
    18  H    0.000002  -0.000001   0.000003
    19  H   -0.000027   0.000024   0.000076
    20  H    0.000011  -0.000036  -0.000000
    21  H   -0.000086  -0.000074  -0.000000
    22  H   -0.000082   0.002471   0.000000
    23  H   -0.002108   0.003825  -0.000020
    24  H   -0.002380  -0.002774  -0.000000
    25  H    0.511136  -0.023090  -0.000008
    26  H   -0.023090   0.560220   0.000001
    27  H   -0.000008   0.000001   0.454619
 Mulliken charges:
               1
     1  O   -0.456091
     2  N    0.502942
     3  O   -0.483600
     4  C   -0.016856
     5  C    0.196121
     6  N   -0.801756
     7  C    0.067772
     8  H    0.178291
     9  C   -0.312836
    10  C   -0.321206
    11  C   -0.315254
    12  C   -0.312445
    13  C   -0.033057
    14  H    0.194566
    15  N   -0.487438
    16  C    0.125288
    17  H    0.286287
    18  H    0.396815
    19  H    0.189513
    20  H    0.154253
    21  H    0.172494
    22  H    0.149601
    23  H    0.191005
    24  H    0.162686
    25  H    0.183169
    26  H    0.152679
    27  H    0.237058
 Sum of Mulliken charges =  -0.00000
 Mulliken charges with hydrogens summed into heavy atoms:
               1
     1  O   -0.456091
     2  N    0.502942
     3  O   -0.483600
     4  C   -0.016856
     5  C    0.482408
     6  N   -0.404941
     7  C    0.246063
     9  C    0.030930
    10  C    0.000888
    11  C    0.038438
    12  C    0.023403
    13  C    0.161509
    15  N   -0.487438
    16  C    0.362346
 Electronic spatial extent (au):  <R**2>=           3120.1639
 Charge=              0.0000 electrons
 Dipole moment (field-independent basis, Debye):
    X=              5.2791    Y=              4.4679    Z=              0.2846  Tot=              6.9219
 Quadrupole moment (field-independent basis, Debye-Ang):
   XX=           -105.1929   YY=            -80.5887   ZZ=            -82.1034
   XY=             -2.2286   XZ=              1.7466   YZ=             -0.2056
 Traceless Quadrupole moment (field-independent basis, Debye-Ang):
   XX=            -15.8979   YY=              8.7063   ZZ=              7.1916
   XY=             -2.2286   XZ=              1.7466   YZ=             -0.2056
 Octapole moment (field-independent basis, Debye-Ang**2):
  XXX=             99.4478  YYY=             37.2808  ZZZ=             -6.6536  XYY=             -1.0930
  XXY=             13.1256  XXZ=             -5.2865  XZZ=             -8.6758  YZZ=             -2.7329
  YYZ=             -0.6499  XYZ=             -1.8870
 Hexadecapole moment (field-independent basis, Debye-Ang**3):
 XXXX=          -3546.8014 YYYY=           -621.0467 ZZZZ=           -299.4789 XXXY=            -53.5837
 XXXZ=             64.2420 YYYX=            -30.7839 YYYZ=              7.8806 ZZZX=             40.4891
 ZZZY=             10.2254 XXYY=           -655.9563 XXZZ=           -543.3447 YYZZ=           -163.7397
 XXYZ=              2.1063 YYXZ=             16.4189 ZZXY=              0.2908
 N-N= 9.180101832440D+02 E-N=-3.382033086105D+03  KE= 6.588551079010D+02
 Calling FoFJK, ICntrl=  10002127 FMM=F ISym2X=0 I1Cent= 0 IOpClX= 0 NMat=1 NMatS=1 NMatT=0.
 -------------------------------------------------------------------
 Center     Atomic                   Forces (Hartrees/Bohr)
 Number     Number              X              Y              Z
 -------------------------------------------------------------------
      1        8           0.002512466   -0.019384582   -0.004353534
      2        7           0.038706597    0.014863286   -0.002327069
      3        8          -0.005571788    0.015272115    0.004316966
      4        6          -0.002147649    0.012343764    0.009694316
      5        6           0.001919840   -0.017710542   -0.007927878
      6        7           0.015664358   -0.011807500   -0.004694827
      7        6          -0.006254424    0.005386156    0.002649668
      8        1          -0.009197833   -0.002081371   -0.007709995
      9        6          -0.004276714   -0.000114745   -0.002169736
     10        6           0.002905864   -0.000779418    0.001108509
     11        6          -0.001209583   -0.004670289   -0.002509953
     12        6           0.001035706   -0.008790770   -0.002697575
     13        6           0.010509545   -0.003861309    0.006679333
     14        1           0.000592630    0.004896559   -0.009888160
     15        7          -0.000039554    0.005024810   -0.003273628
     16        6          -0.021270936    0.003824307    0.007998399
     17        1           0.006417510   -0.005049564   -0.008409657
     18        1          -0.017114268   -0.001432731    0.008128256
     19        1           0.003036281    0.006001270    0.007758124
     20        1          -0.003359669   -0.007238896    0.002531049
     21        1          -0.004598038    0.002440177    0.009505015
     22        1          -0.003802046   -0.003995733   -0.007522543
     23        1           0.003874465    0.006153704    0.009361848
     24        1          -0.009301821    0.002686966   -0.002350756
     25        1          -0.000577892    0.010540470   -0.002387559
     26        1          -0.004749833   -0.004827648   -0.004492707
     27        1           0.006296784    0.002311514    0.002984093
 -------------------------------------------------------------------
 Cartesian Forces:  Max     0.038706597 RMS     0.008630164

 GradGradGradGradGradGradGradGradGradGradGradGradGradGradGradGradGradGrad
 Berny optimization.
 FormGI is forming the generalized inverse of G from B-inverse, IUseBI=4.
 Internal  Forces:  Max     0.037188453 RMS     0.006862596
 Search for a local minimum.
 Step number   1 out of a maximum of   20
 All quantities printed in internal units (Hartrees-Bohrs-Radians)
 Mixed Optimization -- RFO/linear search
 Second derivative matrix not updated -- first step.
 ITU=  0
     Eigenvalues ---    0.00231   0.00768   0.01062   0.01144   0.01193
     Eigenvalues ---    0.01530   0.01593   0.01928   0.02014   0.02071
     Eigenvalues ---    0.02668   0.03467   0.04486   0.04576   0.04839
     Eigenvalues ---    0.05054   0.05136   0.05300   0.05833   0.06165
     Eigenvalues ---    0.06512   0.07277   0.07702   0.07801   0.07988
     Eigenvalues ---    0.08051   0.08077   0.10132   0.10667   0.11993
     Eigenvalues ---    0.12714   0.13616   0.15645   0.15990   0.15993
     Eigenvalues ---    0.19886   0.21542   0.22749   0.24957   0.25000
     Eigenvalues ---    0.25000   0.25076   0.25911   0.26644   0.27986
     Eigenvalues ---    0.28088   0.28412   0.29867   0.31193   0.31479
     Eigenvalues ---    0.32026   0.32236   0.32289   0.32379   0.32388
     Eigenvalues ---    0.32407   0.32510   0.32526   0.32576   0.33243
     Eigenvalues ---    0.33385   0.33607   0.35221   0.43677   0.43878
     Eigenvalues ---    0.48016   0.66458   0.90478   0.912001000.00000
     Eigenvalues --- 1000.000001000.000001000.000001000.000001000.00000
     Eigenvalues --- 1000.000001000.000001000.000001000.000001000.00000
     Eigenvalues --- 1000.000001000.000001000.000001000.000001000.00000
     Eigenvalues --- 1000.000001000.000001000.000001000.000001000.00000
     Eigenvalues --- 1000.000001000.000001000.000001000.000001000.00000
     Eigenvalues --- 1000.000001000.000001000.000001000.000001000.00000
     Eigenvalues --- 1000.000001000.000001000.000001000.000001000.00000
     Eigenvalues --- 1000.000001000.000001000.000001000.000001000.00000
     Eigenvalues --- 1000.000001000.000001000.000001000.000001000.00000
     Eigenvalues --- 1000.000001000.000001000.000001000.000001000.00000
     Eigenvalues --- 1000.000001000.000001000.000001000.000001000.00000
     Eigenvalues --- 1000.000001000.000001000.000001000.000001000.00000
     Eigenvalues --- 1000.000001000.000001000.000001000.000001000.00000
     Eigenvalues --- 1000.000001000.000001000.000001000.000001000.00000
     Eigenvalues --- 1000.000001000.000001000.000001000.000001000.00000
     Eigenvalues --- 1000.000001000.000001000.000001000.000001000.00000
     Eigenvalues --- 1000.000001000.000001000.000001000.000001000.00000
     Eigenvalues --- 1000.000001000.000001000.000001000.000001000.00000
     Eigenvalues --- 1000.00000
 RFO step:  Lambda=-2.37281152D-02 EMin= 2.30669636D-03
 Linear search not attempted -- first point.
 Iteration  1 RMS(Cart)=  0.05329632 RMS(Int)=  0.00110829
 Iteration  2 RMS(Cart)=  0.00116452 RMS(Int)=  0.00029888
 Iteration  3 RMS(Cart)=  0.00000118 RMS(Int)=  0.00029887
 Iteration  4 RMS(Cart)=  0.00000000 RMS(Int)=  0.00029887
 Iteration  1 RMS(Cart)=  0.00002981 RMS(Int)=  0.00002065
 Iteration  2 RMS(Cart)=  0.00001672 RMS(Int)=  0.00002279
 Iteration  3 RMS(Cart)=  0.00001058 RMS(Int)=  0.00002523
 Iteration  4 RMS(Cart)=  0.00000744 RMS(Int)=  0.00002689
 Iteration  5 RMS(Cart)=  0.00000566 RMS(Int)=  0.00002804
 Iteration  6 RMS(Cart)=  0.00000456 RMS(Int)=  0.00002891
 Iteration  7 RMS(Cart)=  0.00000383 RMS(Int)=  0.00002964
 Iteration  8 RMS(Cart)=  0.00000330 RMS(Int)=  0.00003027
 Iteration  9 RMS(Cart)=  0.00000290 RMS(Int)=  0.00003085
 Iteration 10 RMS(Cart)=  0.00000259 RMS(Int)=  0.00003139
 Iteration 11 RMS(Cart)=  0.00000232 RMS(Int)=  0.00003189
 Iteration 12 RMS(Cart)=  0.00000210 RMS(Int)=  0.00003236
 Iteration 13 RMS(Cart)=  0.00000191 RMS(Int)=  0.00003281
 Iteration 14 RMS(Cart)=  0.00000174 RMS(Int)=  0.00003322
 Iteration 15 RMS(Cart)=  0.00000158 RMS(Int)=  0.00003361
 Iteration 16 RMS(Cart)=  0.00000144 RMS(Int)=  0.00003397
 Iteration 17 RMS(Cart)=  0.00000132 RMS(Int)=  0.00003431
 Iteration 18 RMS(Cart)=  0.00000121 RMS(Int)=  0.00003462
 Iteration 19 RMS(Cart)=  0.00000110 RMS(Int)=  0.00003492
 Iteration 20 RMS(Cart)=  0.00000101 RMS(Int)=  0.00003519
 Iteration 21 RMS(Cart)=  0.00000092 RMS(Int)=  0.00003544
 Variable       Old X    -DE/DX   Delta X   Delta X   Delta X     New X
                                 (Linear)    (Quad)   (Total)
    R1        2.32385   0.01833   0.00000   0.01959   0.01959   2.34344
    R2        2.32714   0.01576   0.00000   0.01697   0.01697   2.34411
    R3        2.88228  -0.03719   0.00000  -0.11535  -0.11535   2.76694
    R4        2.64602  -0.03618   0.00000  -0.07735  -0.07712   2.56891
    R5        2.80839  -0.01991   0.00000  -0.05943  -0.05929   2.74910
    R6        2.59393  -0.02351   0.00000  -0.04356  -0.04339   2.55055
    R7        2.08380  -0.01015   0.00000  -0.02837  -0.02837   2.05543
    R8        2.82863  -0.01964   0.00000  -0.05260  -0.05254   2.77609
    R9        1.93300  -0.00689   0.00000  -0.01489  -0.01489   1.91811
   R10        2.11807  -0.01151   0.00000  -0.03401  -0.03401   2.08407
   R11        2.92659  -0.01320   0.00000  -0.04518  -0.04522   2.88137
   R12        2.90242  -0.00504   0.00000  -0.01419  -0.01417   2.88825
   R13        2.91099  -0.00454   0.00000  -0.01403  -0.01407   2.89693
   R14        2.09921  -0.01006   0.00000  -0.02884  -0.02884   2.07036
   R15        2.09893  -0.00795   0.00000  -0.02277  -0.02277   2.07615
   R16        2.90421  -0.00187   0.00000  -0.00682  -0.00685   2.89736
   R17        2.10139  -0.01058   0.00000  -0.03045  -0.03045   2.07094
   R18        2.10319  -0.00904   0.00000  -0.02607  -0.02607   2.07712
   R19        2.91795  -0.00904   0.00000  -0.02838  -0.02834   2.88961
   R20        2.10415  -0.01171   0.00000  -0.03384  -0.03384   2.07031
   R21        2.10105  -0.00994   0.00000  -0.02858  -0.02858   2.07247
   R22        2.93597  -0.01041   0.00000  -0.03590  -0.03586   2.90010
   R23        2.10155  -0.01067   0.00000  -0.03070  -0.03070   2.07086
   R24        2.09803  -0.00791   0.00000  -0.02263  -0.02263   2.07540
   R25        2.10797  -0.00896   0.00000  -0.02604  -0.02604   2.08193
   R26        2.76990  -0.00556   0.00000  -0.01145  -0.01185   2.75805
   R27        2.44384  -0.00674   0.00000  -0.01029  -0.01049   2.43335
   R28        2.07999  -0.00617   0.00000  -0.01716  -0.01716   2.06283
    A1        2.16077   0.01070   0.00000   0.03918   0.03911   2.19988
    A2        2.05293  -0.00800   0.00000  -0.02914  -0.02921   2.02372
    A3        2.06940  -0.00270   0.00000  -0.00977  -0.00984   2.05956
    A4        2.03934  -0.00653   0.00000  -0.01823  -0.01858   2.02076
    A5        2.03884  -0.00369   0.00000  -0.00772  -0.00814   2.03070
    A6        2.20425   0.01018   0.00000   0.02418   0.02393   2.22817
    A7        2.19236   0.00542   0.00000   0.01821   0.01844   2.21081
    A8        2.06682  -0.00293   0.00000  -0.01009  -0.01029   2.05653
    A9        2.02348  -0.00246   0.00000  -0.00751  -0.00772   2.01576
   A10        2.24636  -0.00471   0.00000  -0.01284  -0.01293   2.23343
   A11        2.12492  -0.01269   0.00000  -0.07237  -0.07295   2.05197
   A12        1.88434   0.01755   0.00000   0.09372   0.09380   1.97814
   A13        1.83778  -0.00105   0.00000  -0.01321  -0.01299   1.82480
   A14        2.00870  -0.00213   0.00000  -0.01030  -0.01034   1.99836
   A15        1.96099   0.00183   0.00000  -0.00354  -0.00408   1.95691
   A16        1.85237   0.00274   0.00000   0.02357   0.02344   1.87581
   A17        1.85047   0.00020   0.00000   0.01580   0.01555   1.86602
   A18        1.93974  -0.00129   0.00000  -0.00808  -0.00772   1.93202
   A19        1.91010   0.00011   0.00000  -0.00579  -0.00597   1.90413
   A20        1.92237  -0.00072   0.00000  -0.01193  -0.01188   1.91049
   A21        1.92298  -0.00161   0.00000  -0.00722  -0.00718   1.91579
   A22        1.91903  -0.00032   0.00000   0.00614   0.00611   1.92514
   A23        1.90445   0.00297   0.00000   0.02437   0.02440   1.92884
   A24        1.88472  -0.00041   0.00000  -0.00514  -0.00540   1.87932
   A25        1.93988  -0.00080   0.00000   0.00536   0.00525   1.94513
   A26        1.91917  -0.00076   0.00000  -0.00661  -0.00663   1.91254
   A27        1.90510   0.00035   0.00000  -0.00281  -0.00287   1.90222
   A28        1.91623   0.00084   0.00000   0.00727   0.00731   1.92354
   A29        1.89856   0.00160   0.00000   0.01091   0.01093   1.90949
   A30        1.88389  -0.00122   0.00000  -0.01458  -0.01466   1.86923
   A31        1.94476   0.00051   0.00000   0.00488   0.00497   1.94974
   A32        1.90231   0.00062   0.00000   0.00560   0.00558   1.90789
   A33        1.91765   0.00044   0.00000   0.00540   0.00536   1.92302
   A34        1.90607  -0.00097   0.00000  -0.01340  -0.01344   1.89262
   A35        1.91546  -0.00052   0.00000  -0.00013  -0.00021   1.91525
   A36        1.87621  -0.00010   0.00000  -0.00271  -0.00275   1.87346
   A37        1.95019  -0.00303   0.00000  -0.01846  -0.01845   1.93174
   A38        1.90565   0.00254   0.00000   0.01732   0.01720   1.92285
   A39        1.90992   0.00144   0.00000   0.01307   0.01300   1.92292
   A40        1.90578   0.00025   0.00000  -0.00207  -0.00194   1.90383
   A41        1.91062  -0.00022   0.00000  -0.00520  -0.00513   1.90549
   A42        1.88035  -0.00090   0.00000  -0.00417  -0.00435   1.87600
   A43        1.84510   0.00468   0.00000   0.02375   0.02374   1.86884
   A44        1.94280  -0.00440   0.00000  -0.03425  -0.03474   1.90806
   A45        1.98092   0.00040   0.00000   0.01171   0.01208   1.99300
   A46        1.87578   0.00238   0.00000   0.03313   0.03351   1.90930
   A47        1.89116  -0.00333   0.00000  -0.02777  -0.02785   1.86330
   A48        1.92282   0.00056   0.00000  -0.00384  -0.00381   1.91901
   A49        2.07102  -0.00603   0.00000  -0.01420  -0.01459   2.05643
   A50        2.23784  -0.00393   0.00000  -0.02149  -0.02123   2.21661
   A51        1.98222   0.00614   0.00000   0.03302   0.03287   2.01509
   A52        2.06213  -0.00206   0.00000  -0.01116  -0.01130   2.05083
    D1       -3.03659  -0.00110   0.00000  -0.04490  -0.04438  -3.08097
    D2        0.14414  -0.00019   0.00000   0.00000   0.00000   0.14414
    D3        0.11861  -0.00159   0.00000  -0.06602  -0.06576   0.05285
    D4       -2.98385  -0.00068   0.00000  -0.02112  -0.02138  -3.00523
    D5        3.10273  -0.00044   0.00000   0.00248   0.00232   3.10505
    D6       -0.00267  -0.00126   0.00000  -0.01872  -0.01901  -0.02168
    D7       -0.08219  -0.00185   0.00000  -0.04819  -0.04892  -0.13111
    D8        3.09559  -0.00267   0.00000  -0.06939  -0.07025   3.02534
    D9       -2.59195  -0.00287   0.00000  -0.02297  -0.02363  -2.61558
   D10        0.50011   0.00053   0.00000  -0.01393  -0.01436   0.48575
   D11        0.59297  -0.00139   0.00000   0.02791   0.02808   0.62105
   D12       -2.59816   0.00201   0.00000   0.03695   0.03735  -2.56081
   D13       -0.27721   0.00113   0.00000   0.03080   0.03086  -0.24635
   D14        2.58303   0.00437   0.00000   0.08661   0.08505   2.66808
   D15        2.82899   0.00191   0.00000   0.05147   0.05170   2.88069
   D16       -0.59396   0.00515   0.00000   0.10728   0.10588  -0.48808
   D17       -2.36493  -0.00117   0.00000  -0.01418  -0.01365  -2.37858
   D18        1.88499  -0.00270   0.00000  -0.02887  -0.02833   1.85666
   D19       -0.35855  -0.00063   0.00000  -0.00482  -0.00471  -0.36326
   D20        1.02749  -0.00057   0.00000  -0.04439  -0.04529   0.98220
   D21       -1.00577  -0.00210   0.00000  -0.05908  -0.05998  -1.06574
   D22        3.03387  -0.00004   0.00000  -0.03504  -0.03635   2.99752
   D23        2.94876   0.00213   0.00000   0.02830   0.02826   2.97702
   D24       -1.22272   0.00135   0.00000   0.02467   0.02463  -1.19809
   D25        0.85469  -0.00061   0.00000   0.00638   0.00642   0.86111
   D26        0.92381   0.00277   0.00000   0.03467   0.03463   0.95845
   D27        3.03552   0.00200   0.00000   0.03104   0.03100   3.06652
   D28       -1.17025   0.00004   0.00000   0.01275   0.01279  -1.15746
   D29       -1.08035   0.00164   0.00000   0.00682   0.00680  -1.07355
   D30        1.03135   0.00087   0.00000   0.00318   0.00317   1.03453
   D31        3.10877  -0.00109   0.00000  -0.01510  -0.01504   3.09373
   D32       -2.90342  -0.00169   0.00000  -0.01207  -0.01178  -2.91520
   D33       -0.87185   0.00159   0.00000   0.02354   0.02338  -0.84847
   D34        1.30938  -0.00087   0.00000   0.00000   0.00001   1.30939
   D35       -0.90476  -0.00190   0.00000  -0.02040  -0.02032  -0.92508
   D36        1.12681   0.00138   0.00000   0.01521   0.01484   1.14164
   D37       -2.97515  -0.00108   0.00000  -0.00833  -0.00853  -2.98368
   D38        1.10058   0.00081   0.00000   0.01227   0.01238   1.11296
   D39        3.13215   0.00410   0.00000   0.04788   0.04754  -3.10350
   D40       -0.96981   0.00163   0.00000   0.02434   0.02417  -0.94564
   D41        0.95665   0.00057   0.00000   0.00000   0.00000   0.95666
   D42        3.08221   0.00058   0.00000   0.00825   0.00821   3.09042
   D43       -1.13745  -0.00114   0.00000  -0.01506  -0.01503  -1.15248
   D44       -1.15707   0.00159   0.00000   0.01457   0.01464  -1.14243
   D45        0.96848   0.00160   0.00000   0.02282   0.02285   0.99133
   D46        3.03201  -0.00012   0.00000  -0.00049  -0.00039   3.03162
   D47        3.06204   0.00050   0.00000   0.00261   0.00256   3.06460
   D48       -1.09559   0.00051   0.00000   0.01086   0.01077  -1.08482
   D49        0.96794  -0.00121   0.00000  -0.01245  -0.01247   0.95546
   D50       -0.92192  -0.00091   0.00000   0.00000   0.00000  -0.92192
   D51        1.18277  -0.00139   0.00000  -0.00993  -0.00993   1.17284
   D52       -3.04873  -0.00089   0.00000  -0.00681  -0.00683  -3.05556
   D53       -3.04919   0.00001   0.00000  -0.00016  -0.00015  -3.04933
   D54       -0.94449  -0.00047   0.00000  -0.01009  -0.01008  -0.95458
   D55        1.10719   0.00002   0.00000  -0.00697  -0.00698   1.10021
   D56        1.17606   0.00006   0.00000   0.00688   0.00690   1.18296
   D57       -3.00243  -0.00043   0.00000  -0.00305  -0.00304  -3.00547
   D58       -0.95075   0.00007   0.00000   0.00007   0.00007  -0.95068
   D59        0.98723  -0.00082   0.00000  -0.01282  -0.01282   0.97441
   D60        3.09724  -0.00075   0.00000  -0.01565  -0.01576   3.08148
   D61       -1.13177   0.00046   0.00000  -0.00306  -0.00300  -1.13478
   D62       -1.11526  -0.00127   0.00000  -0.01405  -0.01403  -1.12929
   D63        0.99476  -0.00120   0.00000  -0.01689  -0.01697   0.97778
   D64        3.04893   0.00001   0.00000  -0.00430  -0.00422   3.04471
   D65        3.11531  -0.00029   0.00000  -0.00282  -0.00281   3.11250
   D66       -1.05786  -0.00021   0.00000  -0.00565  -0.00575  -1.06361
   D67        0.99631   0.00100   0.00000   0.00694   0.00701   1.00332
   D68       -1.04893   0.00011   0.00000   0.00037   0.00044  -1.04849
   D69       -3.12547   0.00161   0.00000   0.01142   0.01106  -3.11441
   D70        1.08021   0.00144   0.00000   0.01273   0.01277   1.09298
   D71        3.12431  -0.00130   0.00000  -0.00807  -0.00795   3.11636
   D72        1.04778   0.00021   0.00000   0.00298   0.00267   1.05044
   D73       -1.02973   0.00004   0.00000   0.00429   0.00438  -1.02536
   D74        1.06967  -0.00023   0.00000   0.00118   0.00134   1.07101
   D75       -1.00687   0.00128   0.00000   0.01223   0.01196  -0.99491
   D76       -3.08438   0.00111   0.00000   0.01354   0.01367  -3.07070
   D77       -1.17215   0.00331   0.00000   0.00000   0.00001  -1.17214
   D78        3.06734  -0.00055   0.00000  -0.01820  -0.01807   3.04928
   D79        1.01977  -0.00178   0.00000  -0.03971  -0.03996   0.97981
   D80        0.03982   0.00487   0.00000   0.00000   0.00001   0.03983
   D81       -3.05028   0.00114   0.00000  -0.01045  -0.01050  -3.06078
         Item               Value     Threshold  Converged?
 Maximum Force            0.037188     0.000450     NO 
 RMS     Force            0.006885     0.000300     NO 
 Maximum Displacement     0.272235     0.001800     NO 
 RMS     Displacement     0.053586     0.001200     NO 
 Predicted change in Energy=-1.341392D-02
 GradGradGradGradGradGradGradGradGradGradGradGradGradGradGradGradGradGrad

                          Input orientation:                          
 ---------------------------------------------------------------------
 Center     Atomic      Atomic             Coordinates (Angstroms)
 Number     Number       Type             X           Y           Z
 ---------------------------------------------------------------------
      1          8           0       -3.453239   -1.468327   -0.151113
      2          7           0       -3.124007   -0.290716    0.055449
      3          8           0       -3.892039    0.645353    0.324922
      4          6           0       -1.690313   -0.003404   -0.021052
      5          6           0       -1.326067    1.271726    0.277867
      6          7           0       -0.069650    1.763326    0.315462
      7          6           0        1.193922    1.014135    0.329111
      8          1           0        1.808971    1.521955    1.090749
      9          6           0        1.966818    1.054009   -0.984633
     10          6           0        3.356283    0.443724   -0.767860
     11          6           0        3.262594   -0.967891   -0.176824
     12          6           0        2.399725   -0.996606    1.085247
     13          6           0        1.003356   -0.427318    0.800172
     14          1           0        0.409843   -0.432084    1.728333
     15          7           0        0.385825   -1.303504   -0.190328
     16          6           0       -0.841351   -1.079113   -0.509368
     17          1           0       -2.113384    1.979484    0.527410
     18          1           0        0.052542    2.754623    0.134713
     19          1           0        1.418895    0.490347   -1.747770
     20          1           0        2.052490    2.092116   -1.333960
     21          1           0        3.899730    0.420536   -1.719236
     22          1           0        3.927504    1.088381   -0.085008
     23          1           0        2.816819   -1.641688   -0.916777
     24          1           0        4.265019   -1.349915    0.051132
     25          1           0        2.299606   -2.024669    1.451238
     26          1           0        2.873797   -0.407467    1.881696
     27          1           0       -1.321667   -1.783032   -1.191562
 ---------------------------------------------------------------------
                    Distance matrix (angstroms):
                    1          2          3          4          5
     1  O    0.000000
     2  N    1.240092   0.000000
     3  O    2.210611   1.240449   0.000000
     4  C    2.295827   1.464200   2.321246   0.000000
     5  C    3.495250   2.392339   2.641736   1.359406   0.000000
     6  N    4.702122   3.689959   3.982539   2.420976   1.349692
     7  C    5.290495   4.519076   5.099316   3.078443   2.533639
     8  H    6.178581   5.356482   5.818629   3.975903   3.248362
     9  C    6.036054   5.367174   6.017320   3.926986   3.533327
    10  C    7.099711   6.573538   7.333008   5.121110   4.868628
    11  C    6.734501   6.426601   7.351400   5.048345   5.126250
    12  C    6.000691   5.663072   6.546788   4.351868   4.436071
    13  C    4.674385   4.196236   5.034022   2.847799   2.930148
    14  H    4.419222   3.912368   4.651519   2.766725   2.831997
    15  N    3.842801   3.661294   4.729022   2.455456   3.127554
    16  C    2.664919   2.480143   3.602294   1.454764   2.526091
    17  H    3.760719   2.529410   2.232604   2.100392   1.087686
    18  H    5.495953   4.401231   4.477155   3.266270   2.029788
    19  H    5.488479   4.949709   5.703166   3.590615   3.499797
    20  H    6.662502   5.865533   6.338963   4.485923   3.832190
    21  H    7.751965   7.279305   8.058586   5.857656   5.658790
    22  H    7.811305   7.186477   7.842804   5.723281   5.269279
    23  H    6.319012   6.169584   7.195912   4.878579   5.203716
    24  H    7.721814   7.464558   8.402003   6.106085   6.179373
    25  H    5.997689   5.862628   6.836233   4.708779   5.038703
    26  H    6.729719   6.270763   7.022002   4.961332   4.799044
    27  H    2.392732   2.651504   3.847543   2.161727   3.389806
                    6          7          8          9         10
     6  N    0.000000
     7  C    1.469044   0.000000
     8  H    2.046594   1.102841   0.000000
     9  C    2.518051   1.524756   2.133331   0.000000
    10  C    3.827787   2.490887   2.647864   1.532987   0.000000
    11  C    4.336559   2.909261   3.149459   2.533706   1.533217
    12  C    3.782540   2.463490   2.586923   2.945646   2.534473
    13  C    2.487008   1.528398   2.129112   2.511597   2.958666
    14  H    2.654420   2.159665   2.486432   3.463067   3.959738
    15  N    3.141453   2.508842   3.413169   2.947596   3.494276
    16  C    3.058648   3.037610   4.043530   3.558356   4.472804
    17  H    2.066034   3.451014   3.988929   4.448689   5.826967
    18  H    1.015023   2.090416   2.349153   2.794545   4.131537
    19  H    2.844850   2.153695   3.045253   1.095588   2.171605
    20  H    2.707799   2.159858   2.502719   1.098652   2.176590
    21  H    4.658225   3.445211   3.671569   2.162655   1.095897
    22  H    4.073471   2.765768   2.461417   2.157498   1.099165
    23  H    4.630792   3.352525   3.880020   2.827346   2.159199
    24  H    5.343360   3.885568   3.919262   3.483301   2.171103
    25  H    4.610018   3.422869   3.598502   3.939857   3.483378
    26  H    3.978607   2.693223   2.341393   3.342808   2.824441
    27  H    4.051583   4.057681   5.092423   4.348075   5.198190
                   11         12         13         14         15
    11  C    0.000000
    12  C    1.529114   0.000000
    13  C    2.520099   1.534668   0.000000
    14  H    3.472017   2.166074   1.101709   0.000000
    15  N    2.896311   2.403554   1.459499   2.107418   0.000000
    16  C    4.118898   3.613057   2.354288   2.644133   1.287672
    17  H    6.171232   5.434745   3.947298   3.691146   4.187984
    18  H    4.925302   4.525981   3.386980   3.580837   4.084743
    19  H    2.827287   3.346497   2.739852   3.735286   2.590513
    20  H    3.488116   3.938698   3.464499   4.295058   3.951696
    21  H    2.170877   3.481872   3.931318   4.979158   4.202071
    22  H    2.163050   2.837388   3.410503   4.239570   4.275008
    23  H    1.095559   2.144340   2.776915   3.775352   2.559653
    24  H    1.096705   2.161837   3.471411   4.303231   3.886978
    25  H    2.166729   1.095850   2.157703   2.486828   2.622475
    26  H    2.168581   1.098253   2.160703   2.468845   3.359490
    27  H    4.765459   4.432955   3.348238   3.653625   2.036651
                   16         17         18         19         20
    16  C    0.000000
    17  H    3.471022   0.000000
    18  H    3.988912   2.333728   0.000000
    19  H    3.017541   4.457687   3.246169   0.000000
    20  H    4.371609   4.564197   2.568212   1.771538   0.000000
    21  H    5.117673   6.605701   4.866821   2.481981   2.520895
    22  H    5.255482   6.136893   4.223739   3.068476   2.466383
    23  H    3.723530   6.285337   5.298529   2.681476   3.833997
    24  H    5.144172   7.210809   5.882107   3.837061   4.319878
    25  H    3.821474   6.030024   5.442809   4.163485   4.976577
    26  H    4.468850   5.692416   4.583693   4.011962   4.154866
    27  H    1.091601   4.211675   4.923187   3.603928   5.140232
                   21         22         23         24         25
    21  H    0.000000
    22  H    1.765641   0.000000
    23  H    2.463617   3.062473   0.000000
    24  H    2.530245   2.465307   1.766143   0.000000
    25  H    4.311767   3.834212   2.453911   2.505681   0.000000
    26  H    3.834690   2.686221   3.059085   2.484889   1.769274
    27  H    5.691849   6.084675   4.150006   5.739594   4.489588
                   26         27
    26  H    0.000000
    27  H    5.379499   0.000000
 Symmetry turned off by external request.
 Stoichiometry    C9H13N3O2
 Framework group  C1[X(C9H13N3O2)]
 Deg. of freedom    75
 Full point group                 C1      NOp   1
 Rotational constants (GHZ):           1.6976608           0.4217249           0.3723807
 Standard basis: 6-31G(d) (6D, 7F)
   236 basis functions,   444 primitive gaussians,   236 cartesian basis functions
    52 alpha electrons       52 beta electrons
       nuclear repulsion energy       932.5063528527 Hartrees.
 NAtoms=   27 NActive=   27 NUniq=   27 SFac= 1.00D+00 NAtFMM=   60 NAOKFM=F Big=F
 Integral buffers will be    131072 words long.
 Raffenetti 1 integral format.
 Two-electron integral symmetry is turned off.
 One-electron integrals computed using PRISM.
 NBasis=   236 RedAO= T EigKep=  1.02D-03  NBF=   236
 NBsUse=   236 1.00D-06 EigRej= -1.00D+00 NBFU=   236
 Initial guess from the checkpoint file:  "/home/alexey/tmp/Gau-1472352.chk"
 B after Tr=     0.053800    0.003911    0.001893
         Rot=    0.999999   -0.000997   -0.000250    0.000667 Ang=  -0.14 deg.
 ExpMin= 1.61D-01 ExpMax= 5.48D+03 ExpMxC= 8.25D+02 IAcc=3 IRadAn=         5 AccDes= 0.00D+00
 Harris functional with IExCor=  205 and IRadAn=       5 diagonalized for initial guess.
 HarFok:  IExCor=  205 AccDes= 0.00D+00 IRadAn=         5 IDoV= 1 UseB2=F ITyADJ=14
 ICtDFT=  3500011 ScaDFX=  1.000000  1.000000  1.000000  1.000000
 FoFCou: FMM=F IPFlag=           0 FMFlag=      100000 FMFlg1=           0
         NFxFlg=           0 DoJE=T BraDBF=F KetDBF=T FulRan=T
         wScrn=  0.000000 ICntrl=       500 IOpCl=  0 I1Cent=   200000004 NGrid=           0
         NMat0=    1 NMatS0=      1 NMatT0=    0 NMatD0=    1 NMtDS0=    0 NMtDT0=    0
 Symmetry not used in FoFCou.
 Keep R1 ints in memory in canonical form, NReq=397720213.
 Requested convergence on RMS density matrix=1.00D-08 within 128 cycles.
 Requested convergence on MAX density matrix=1.00D-06.
 Requested convergence on             energy=1.00D-06.
 No special actions if energy rises.
 SCF Done:  E(RHF) =  -661.296032566     A.U. after   15 cycles
            NFock= 15  Conv=0.40D-08     -V/T= 2.0025
 ExpMin= 1.61D-01 ExpMax= 5.48D+03 ExpMxC= 8.25D+02 IAcc=3 IRadAn=         5 AccDes= 0.00D+00
 HarFok:  IExCor=  205 AccDes= 0.00D+00 IRadAn=         5 IDoV=-2 UseB2=F ITyADJ=14
 ICtDFT= 12500011 ScaDFX=  1.000000  1.000000  1.000000  1.000000
 Range of M.O.s used for correlation:    15   236
 NBasis=   236 NAE=    52 NBE=    52 NFC=    14 NFV=     0
 NROrb=    222 NOA=    38 NOB=    38 NVA=   184 NVB=   184
 Fully direct method using O(ONN) memory.
 JobTyp=1 Pass  1:  I=  15 to  52 NPSUse=  4 ParTrn=T ParDer=T DoDerP=T.
 Spin components of T(2) and E(2):
     alpha-alpha T2 =       0.9121856155D-01 E2=     -0.2722932169D+00
     alpha-beta  T2 =       0.4916304073D+00 E2=     -0.1488418905D+01
     beta-beta   T2 =       0.9121856155D-01 E2=     -0.2722932169D+00
 ANorm=    0.1293857616D+01
 E2 =    -0.2033005339D+01 EUMP2 =    -0.66332903790540D+03
          IDoAtm=111111111111111111111111111
          Differentiating once with respect to electric field.
                with respect to dipole field.
          Differentiating once with respect to nuclear coordinates.
 Keep R1 ints in memory in canonical form, NReq=397723379.
          There are     1 degrees of freedom in the 1st order CPHF.  IDoFFX=0 NUNeed=     1.
[...]
    17  H    3.454513   0.000000
    18  H    4.058554   2.234335   0.000000
    19  H    2.990388   4.381275   3.509706   0.000000
    20  H    4.365560   4.521774   2.881697   1.768538   0.000000
    21  H    5.099445   6.565444   5.086100   2.499490   2.521832
    22  H    5.243208   6.116489   4.313254   3.070441   2.461423
    23  H    3.706408   6.257183   5.418535   2.704685   3.842979
    24  H    5.138747   7.200180   5.934505   3.850160   4.317187
    25  H    3.821282   6.041095   5.366734   4.171839   4.985420
    26  H    4.488561   5.731882   4.487038   4.039122   4.185559
    27  H    1.089751   4.203354   5.034515   3.561575   5.119161
                   21         22         23         24         25
    21  H    0.000000
    22  H    1.758783   0.000000
    23  H    2.468731   3.062025   0.000000
    24  H    2.517232   2.459704   1.764600   0.000000
    25  H    4.312384   3.840991   2.444034   2.520296   0.000000
    26  H    3.848280   2.707007   3.060418   2.489968   1.767543
    27  H    5.647160   6.051087   4.105670   5.707921   4.472019
                   26         27
    26  H    0.000000
    27  H    5.382466   0.000000
 Symmetry turned off by external request.
 Stoichiometry    C9H13N3O2
 Framework group  C1[X(C9H13N3O2)]
 Deg. of freedom    75
 Full point group                 C1      NOp   1
 Rotational constants (GHZ):           1.6941920           0.4184073           0.3717370

 **********************************************************************

            Population analysis using the SCF Density.

 **********************************************************************

 Alpha  occ. eigenvalues --  -20.59229 -20.58900 -15.84725 -15.64059 -15.56268
 Alpha  occ. eigenvalues --  -11.35039 -11.29680 -11.29563 -11.28564 -11.27126
 Alpha  occ. eigenvalues --  -11.23714 -11.23215 -11.22717 -11.22105  -1.57107
 Alpha  occ. eigenvalues --   -1.36708  -1.30888  -1.23179  -1.14721  -1.09832
 Alpha  occ. eigenvalues --   -1.02795  -1.01326  -0.94434  -0.89680  -0.85590
 Alpha  occ. eigenvalues --   -0.82397  -0.78515  -0.77436  -0.75141  -0.71966
 Alpha  occ. eigenvalues --   -0.69774  -0.69490  -0.67832  -0.64969  -0.63740
 Alpha  occ. eigenvalues --   -0.62385  -0.60284  -0.57613  -0.57049  -0.55038
 Alpha  occ. eigenvalues --   -0.54615  -0.50813  -0.49995  -0.48632  -0.48064
 Alpha  occ. eigenvalues --   -0.47371  -0.46192  -0.46056  -0.43664  -0.41643
 Alpha  occ. eigenvalues --   -0.40108  -0.33925
 Alpha virt. eigenvalues --    0.07434   0.11929   0.17391   0.21782   0.23890
 Alpha virt. eigenvalues --    0.25380   0.27135   0.28515   0.29020   0.29638
 Alpha virt. eigenvalues --    0.30689   0.31795   0.32028   0.32727   0.33962
 Alpha virt. eigenvalues --    0.34352   0.35735   0.37241   0.38568   0.40211
 Alpha virt. eigenvalues --    0.41482   0.42687   0.45255   0.46193   0.46573
 Alpha virt. eigenvalues --    0.47050   0.48888   0.53907   0.57505   0.59122
 Alpha virt. eigenvalues --    0.63955   0.69543   0.70151   0.72803   0.74202
 Alpha virt. eigenvalues --    0.75165   0.75804   0.76806   0.78599   0.79450
 Alpha virt. eigenvalues --    0.81198   0.84872   0.85789   0.86052   0.88419
 Alpha virt. eigenvalues --    0.89552   0.90516   0.92248   0.92739   0.94444
 Alpha virt. eigenvalues --    0.95883   0.98081   0.99106   1.01629   1.02515
 Alpha virt. eigenvalues --    1.03009   1.05773   1.06834   1.07489   1.08986
 Alpha virt. eigenvalues --    1.10022   1.11347   1.11797   1.12390   1.13902
 Alpha virt. eigenvalues --    1.14716   1.14933   1.15803   1.16727   1.18693
 Alpha virt. eigenvalues --    1.19457   1.21026   1.21992   1.23675   1.24140
 Alpha virt. eigenvalues --    1.24964   1.25692   1.26956   1.27752   1.29669
 Alpha virt. eigenvalues --    1.29954   1.32942   1.35771   1.36804   1.40639
 Alpha virt. eigenvalues --    1.41346   1.45587   1.48415   1.50648   1.53456
 Alpha virt. eigenvalues --    1.56349   1.58579   1.59819   1.63079   1.66783
 Alpha virt. eigenvalues --    1.68376   1.69294   1.73326   1.74511   1.76899
 Alpha virt. eigenvalues --    1.81714   1.84474   1.87331   1.90837   1.93687
 Alpha virt. eigenvalues --    1.95991   1.97485   1.99625   2.01409   2.02457
 Alpha virt. eigenvalues --    2.05093   2.05494   2.08668   2.09505   2.12480
 Alpha virt. eigenvalues --    2.13607   2.15227   2.18665   2.20184   2.22082
 Alpha virt. eigenvalues --    2.22857   2.24716   2.25859   2.28180   2.29811
 Alpha virt. eigenvalues --    2.31794   2.33998   2.35350   2.36301   2.38765
 Alpha virt. eigenvalues --    2.40212   2.41495   2.43436   2.45092   2.47868
 Alpha virt. eigenvalues --    2.50828   2.51732   2.53141   2.55373   2.62044
 Alpha virt. eigenvalues --    2.62556   2.64998   2.67797   2.70596   2.71086
 Alpha virt. eigenvalues --    2.72382   2.73672   2.77396   2.78836   2.84076
 Alpha virt. eigenvalues --    2.88141   2.88480   2.92713   2.93508   2.96386
 Alpha virt. eigenvalues --    2.99334   3.01490   3.03999   3.05009   3.07924
 Alpha virt. eigenvalues --    3.09177   3.14538   3.21427   3.25241   3.27159
 Alpha virt. eigenvalues --    3.33467   3.37669   3.39154   3.52099   3.64382
 Alpha virt. eigenvalues --    4.13435   4.28330   4.33655   4.38065   4.46099
 Alpha virt. eigenvalues --    4.56742   4.62130   4.62345   4.73450   4.79686
 Alpha virt. eigenvalues --    4.98724   5.00800   5.04034   5.11897
          Condensed to atoms (all electrons):
               1          2          3          4          5          6
     1  O    8.314719   0.308085  -0.081673  -0.086037   0.004580  -0.000016
     2  N    0.308085   5.727847   0.299156   0.262302  -0.050565   0.001033
     3  O   -0.081673   0.299156   8.353020  -0.091705   0.003502   0.000749
     4  C   -0.086037   0.262302  -0.091705   5.223652   0.556611  -0.047972
     5  C    0.004580  -0.050565   0.003502   0.556611   4.708802   0.317979
     6  N   -0.000016   0.001033   0.000749  -0.047972   0.317979   7.197002
     7  C    0.000004  -0.000128   0.000003   0.003945  -0.029881   0.168276
     8  H   -0.000000   0.000002  -0.000000  -0.000251   0.002906  -0.051156
     9  C   -0.000000  -0.000003  -0.000000   0.000902   0.000749  -0.059850
    10  C    0.000000   0.000000   0.000000  -0.000038  -0.000052   0.003699
    11  C   -0.000000  -0.000000  -0.000000  -0.000027   0.000025  -0.000196
    12  C   -0.000000   0.000003  -0.000000  -0.000067  -0.000141   0.003911
    13  C   -0.000028  -0.000064  -0.000005  -0.012837  -0.000756  -0.047260
    14  H   -0.000005  -0.000129   0.000001   0.003086   0.006628  -0.007506
    15  N    0.000290   0.002375  -0.000017  -0.064062  -0.005820   0.001575
    16  C    0.001145  -0.029105   0.002599   0.331395  -0.049726  -0.003082
    17  H    0.000207  -0.007273   0.016925  -0.024037   0.375396  -0.034988
    18  H    0.000001  -0.000050   0.000011   0.001609  -0.031580   0.338303
    19  H    0.000000  -0.000003   0.000000  -0.001093   0.001004  -0.000097
    20  H    0.000000  -0.000000   0.000000  -0.000068   0.000151  -0.000663
    21  H   -0.000000   0.000000   0.000000   0.000001   0.000001  -0.000074
    22  H   -0.000000   0.000000  -0.000000   0.000000  -0.000003  -0.000117
    23  H    0.000000  -0.000000   0.000000   0.000038  -0.000001  -0.000030
    24  H    0.000000   0.000000   0.000000   0.000000  -0.000000   0.000006
    25  H    0.000000  -0.000000   0.000000   0.000021   0.000001  -0.000093
    26  H    0.000000  -0.000000   0.000000   0.000008  -0.000003  -0.000057
    27  H    0.006225  -0.000857   0.000019  -0.061853   0.002244   0.000040
               7          8          9         10         11         12
     1  O    0.000004  -0.000000  -0.000000   0.000000  -0.000000  -0.000000
     2  N   -0.000128   0.000002  -0.000003   0.000000  -0.000000   0.000003
     3  O    0.000003  -0.000000  -0.000000   0.000000  -0.000000  -0.000000
     4  C    0.003945  -0.000251   0.000902  -0.000038  -0.000027  -0.000067
     5  C   -0.029881   0.002906   0.000749  -0.000052   0.000025  -0.000141
     6  N    0.168276  -0.051156  -0.059850   0.003699  -0.000196   0.003911
     7  C    5.011444   0.419006   0.349120  -0.054815  -0.008972  -0.060974
     8  H    0.419006   0.539205  -0.055689   0.000977  -0.000388  -0.002123
     9  C    0.349120  -0.055689   5.158135   0.323895  -0.050164  -0.005565
    10  C   -0.054815   0.000977   0.323895   5.121008   0.336810  -0.060585
    11  C   -0.008972  -0.000388  -0.050164   0.336810   5.119226   0.336106
    12  C   -0.060974  -0.002123  -0.005565  -0.060585   0.336106   5.117575
    13  C    0.343120  -0.038945  -0.059244  -0.000559  -0.051018   0.370988
    14  H   -0.046648  -0.000734   0.004457  -0.000410   0.004179  -0.035921
    15  N   -0.056724   0.003905  -0.014560   0.001565  -0.012677  -0.081443
    16  C   -0.002571   0.000090  -0.001688   0.000002   0.000007   0.002918
    17  H    0.001657  -0.000036  -0.000076   0.000001   0.000000   0.000000
    18  H   -0.021205  -0.004290   0.001241  -0.000085   0.000004  -0.000118
    19  H   -0.036932   0.004394   0.389910  -0.031865  -0.002257   0.000705
    20  H   -0.042152  -0.002094   0.399606  -0.035468   0.003932  -0.000405
    21  H    0.004601  -0.000079  -0.036273   0.402451  -0.034860   0.004321
    22  H   -0.004832   0.003564  -0.046885   0.397697  -0.045478  -0.001007
    23  H    0.000540   0.000036  -0.001932  -0.039053   0.399200  -0.037816
    24  H   -0.000129  -0.000102   0.004378  -0.038454   0.402330  -0.038735
    25  H    0.005134  -0.000021  -0.000424   0.004179  -0.033455   0.398476
    26  H   -0.003977   0.001717   0.000964  -0.002203  -0.041490   0.396872
    27  H   -0.000401   0.000010  -0.000067   0.000008   0.000010  -0.000035
              13         14         15         16         17         18
     1  O   -0.000028  -0.000005   0.000290   0.001145   0.000207   0.000001
     2  N   -0.000064  -0.000129   0.002375  -0.029105  -0.007273  -0.000050
     3  O   -0.000005   0.000001  -0.000017   0.002599   0.016925   0.000011
     4  C   -0.012837   0.003086  -0.064062   0.331395  -0.024037   0.001609
     5  C   -0.000756   0.006628  -0.005820  -0.049726   0.375396  -0.031580
     6  N   -0.047260  -0.007506   0.001575  -0.003082  -0.034988   0.338303
     7  C    0.343120  -0.046648  -0.056724  -0.002571   0.001657  -0.021205
     8  H   -0.038945  -0.000734   0.003905   0.000090  -0.000036  -0.004290
     9  C   -0.059244   0.004457  -0.014560  -0.001688  -0.000076   0.001241
    10  C   -0.000559  -0.000410   0.001565   0.000002   0.000001  -0.000085
    11  C   -0.051018   0.004179  -0.012677   0.000007   0.000000   0.000004
    12  C    0.370988  -0.035921  -0.081443   0.002918   0.000000  -0.000118
    13  C    5.044574   0.401626   0.245534  -0.072862   0.000010   0.003012
    14  H    0.401626   0.527912  -0.037969  -0.004089   0.000139  -0.000115
    15  N    0.245534  -0.037969   6.957242   0.582650  -0.000097  -0.000126
    16  C   -0.072862  -0.004089   0.582650   4.720289   0.002280  -0.000205
    17  H    0.000010   0.000139  -0.000097   0.002280   0.380169  -0.002916
    18  H    0.003012  -0.000115  -0.000126  -0.000205  -0.002916   0.312252
    19  H   -0.007449   0.000111   0.007730   0.003223   0.000016  -0.000146
    20  H    0.004306  -0.000065   0.000119  -0.000034   0.000004   0.000805
    21  H   -0.000420   0.000010  -0.000038   0.000003  -0.000000   0.000001
    22  H    0.000062  -0.000056   0.000015  -0.000002   0.000000   0.000001
    23  H   -0.007328   0.000003   0.008436   0.000064   0.000000   0.000000
    24  H    0.004694  -0.000055   0.000142   0.000007   0.000000  -0.000000
    25  H   -0.035564  -0.002777   0.000127  -0.000013  -0.000000   0.000002
    26  H   -0.047269  -0.001074   0.004853  -0.000079   0.000000  -0.000000
    27  H    0.005126  -0.000195  -0.040002   0.402174  -0.000079   0.000001
              19         20         21         22         23         24
     1  O    0.000000   0.000000  -0.000000  -0.000000   0.000000   0.000000
     2  N   -0.000003  -0.000000   0.000000   0.000000  -0.000000   0.000000
     3  O    0.000000   0.000000   0.000000  -0.000000   0.000000   0.000000
     4  C   -0.001093  -0.000068   0.000001   0.000000   0.000038   0.000000
     5  C    0.001004   0.000151   0.000001  -0.000003  -0.000001  -0.000000
     6  N   -0.000097  -0.000663  -0.000074  -0.000117  -0.000030   0.000006
     7  C   -0.036932  -0.042152   0.004601  -0.004832   0.000540  -0.000129
     8  H    0.004394  -0.002094  -0.000079   0.003564   0.000036  -0.000102
     9  C    0.389910   0.399606  -0.036273  -0.046885  -0.001932   0.004378
    10  C   -0.031865  -0.035468   0.402451   0.397697  -0.039053  -0.038454
    11  C   -0.002257   0.003932  -0.034860  -0.045478   0.399200   0.402330
    12  C    0.000705  -0.000405   0.004321  -0.001007  -0.037816  -0.038735
    13  C   -0.007449   0.004306  -0.000420   0.000062  -0.007328   0.004694
    14  H    0.000111  -0.000065   0.000010  -0.000056   0.000003  -0.000055
    15  N    0.007730   0.000119  -0.000038   0.000015   0.008436   0.000142
    16  C    0.003223  -0.000034   0.000003  -0.000002   0.000064   0.000007
    17  H    0.000016   0.000004  -0.000000   0.000000   0.000000   0.000000
    18  H   -0.000146   0.000805   0.000001   0.000001   0.000000  -0.000000
    19  H    0.504212  -0.024644  -0.002793   0.003945   0.001513  -0.000065
    20  H   -0.024644   0.541074  -0.002660  -0.002992  -0.000046  -0.000083
    21  H   -0.002793  -0.002660   0.523761  -0.027384  -0.002901  -0.002232
    22  H    0.003945  -0.002992  -0.027384   0.571325   0.004143  -0.003670
    23  H    0.001513  -0.000046  -0.002901   0.004143   0.499311  -0.025485
    24  H   -0.000065  -0.000083  -0.002232  -0.003670  -0.025485   0.538278
    25  H   -0.000028   0.000012  -0.000086  -0.000079  -0.002352  -0.002273
    26  H    0.000019  -0.000030  -0.000082   0.002374   0.004065  -0.003064
    27  H    0.000089   0.000000  -0.000000   0.000000  -0.000034  -0.000000
              25         26         27
     1  O    0.000000   0.000000   0.006225
     2  N   -0.000000  -0.000000  -0.000857
     3  O    0.000000   0.000000   0.000019
     4  C    0.000021   0.000008  -0.061853
     5  C    0.000001  -0.000003   0.002244
     6  N   -0.000093  -0.000057   0.000040
     7  C    0.005134  -0.003977  -0.000401
     8  H   -0.000021   0.001717   0.000010
     9  C   -0.000424   0.000964  -0.000067
    10  C    0.004179  -0.002203   0.000008
    11  C   -0.033455  -0.041490   0.000010
    12  C    0.398476   0.396872  -0.000035
    13  C   -0.035564  -0.047269   0.005126
    14  H   -0.002777  -0.001074  -0.000195
    15  N    0.000127   0.004853  -0.040002
    16  C   -0.000013  -0.000079   0.402174
    17  H   -0.000000   0.000000  -0.000079
    18  H    0.000002  -0.000000   0.000001
    19  H   -0.000028   0.000019   0.000089
    20  H    0.000012  -0.000030   0.000000
    21  H   -0.000086  -0.000082  -0.000000
    22  H   -0.000079   0.002374   0.000000
    23  H   -0.002352   0.004065  -0.000034
    24  H   -0.002273  -0.003064  -0.000000
    25  H    0.506512  -0.024121  -0.000010
    26  H   -0.024121   0.561996   0.000001
    27  H   -0.000010   0.000001   0.439630
 Mulliken charges:
               1
     1  O   -0.467498
     2  N    0.487372
     3  O   -0.502584
     4  C    0.006477
     5  C    0.187948
     6  N   -0.779414
     7  C    0.063490
     8  H    0.180096
     9  C   -0.300938
    10  C   -0.328706
    11  C   -0.320843
    12  C   -0.306939
    13  C   -0.041444
    14  H    0.189597
    15  N   -0.503024
    16  C    0.114608
    17  H    0.292696
    18  H    0.403592
    19  H    0.190501
    20  H    0.161395
    21  H    0.174731
    22  H    0.149381
    23  H    0.199629
    24  H    0.164512
    25  H    0.186831
    26  H    0.150580
    27  H    0.247957
 Sum of Mulliken charges =  -0.00000
 Mulliken charges with hydrogens summed into heavy atoms:
               1
     1  O   -0.467498
     2  N    0.487372
     3  O   -0.502584
     4  C    0.006477
     5  C    0.480644
     6  N   -0.375822
     7  C    0.243586
     9  C    0.050957
    10  C   -0.004594
    11  C    0.043298
    12  C    0.030472
    13  C    0.148152
    15  N   -0.503024
    16  C    0.362565
 Electronic spatial extent (au):  <R**2>=           3007.2096
 Charge=             -0.0000 electrons
 Dipole moment (field-independent basis, Debye):
    X=              5.4198    Y=              4.8463    Z=              1.0614  Tot=              7.3476
 Quadrupole moment (field-independent basis, Debye-Ang):
   XX=           -106.1585   YY=            -79.2280   ZZ=            -81.5768
   XY=             -2.1710   XZ=              0.8546   YZ=              1.5747
 Traceless Quadrupole moment (field-independent basis, Debye-Ang):
   XX=            -17.1707   YY=              9.7598   ZZ=              7.4110
   XY=             -2.1710   XZ=              0.8546   YZ=              1.5747
 Octapole moment (field-independent basis, Debye-Ang**2):
  XXX=             92.8755  YYY=             37.3669  ZZZ=             -3.1667  XYY=             -4.4658
  XXY=             11.2621  XXZ=              0.0272  XZZ=             -9.6304  YZZ=             -0.5146
  YYZ=              7.2651  XYZ=              0.7435
 Hexadecapole moment (field-independent basis, Debye-Ang**3):
 XXXX=          -3391.9912 YYYY=           -597.0479 ZZZZ=           -302.7668 XXXY=            -33.6107
 XXXZ=             22.4329 YYYX=            -18.0376 YYYZ=             22.4991 ZZZX=             20.1191
 ZZZY=              6.9059 XXYY=           -627.3430 XXZZ=           -525.7301 YYZZ=           -156.6960
 XXYZ=             -7.5702 YYXZ=              8.0646 ZZXY=              2.9360
 N-N= 9.314578306374D+02 E-N=-3.409627407195D+03  KE= 6.596301614941D+02
 Unable to Open any file for archive entry.
 1\1\GINC-LOTUS\FOpt\RMP2-FC\6-31G(d)\C9H13N3O2\ALEXEY\02-Jul-2023\0\\#
 MP2/6-31G* SCF=Tight Opt=(ModRedun, MaxCycle=20 ) NoSymm\\MolName:\\0,
 1\O,-3.5003705247,-1.4120886564,-0.3428365326\N,-3.1252110605,-0.26250
 21382,-0.0396895968\O,-3.9062616886,0.6701239243,0.2312510347\C,-1.693
 9509254,-0.0330081433,0.0198335897\C,-1.3085091246,1.2562137925,0.2823
 098334\N,-0.0616751807,1.7556336759,0.3198548356\C,1.2058400267,1.0287
 093205,0.3226691469\H,1.837252428,1.5582377232,1.0525150787\C,1.942456
 9894,1.0344930769,-1.0142978695\C,3.3335551907,0.4226274684,-0.8109035
 496\C,3.2627133934,-0.9716390966,-0.1818917581\C,2.4326243004,-0.97616
 12366,1.1040526186\C,1.0327800237,-0.413288153,0.8319384124\H,0.435156
 907,-0.3821014173,1.7576879013\N,0.4023824989,-1.3038646522,-0.1382180
 781\C,-0.8356587738,-1.1022644855,-0.455138912\H,-2.1001527522,1.97865
 66394,0.462817089\H,-0.0019409657,2.7425125738,0.5420895737\H,1.365369
 6668,0.4580793867,-1.7447991507\H,2.0228952049,2.0614710402,-1.3919211
 871\H,3.8635007443,0.3793856322,-1.7692737871\H,3.918969284,1.08816510
 54,-0.1605871959\H,2.8015239148,-1.6680475483,-0.8890150933\H,4.275250
 0055,-1.3385971705,0.0238957209\H,2.3314494956,-1.9971967145,1.4866941
 971\H,2.9261969939,-0.3810375282,1.8848303192\H,-1.294166072,-1.828532
 4189,-1.1258566403\\Version=ES64L-G16RevC.02\HF=-661.2995217\MP2=-663.
 3340052\RMSD=7.711e-09\RMSF=1.524e-03\Dipole=1.9732147,1.7025869,0.398
 7692\PG=C01 [X(C9H13N3O2)]\\@
 The archive entry for this job was punched.


 IT WAS AN ACT OF DESPARATION. FOR SIX YEARS I HAD STRUGGLED WITH THE
 BLACKBODY THEORY. I KNEW THE PROBLEM WAS FUNDAMENTAL, AND I KNEW
 THE ANSWER. I HAD TO FIND A THEORETICAL EXPLANATION AT ANY COST,
 EXCEPT FOR THE INVIOLABLITY OF THE TWO LAWS OF THERMODYNAMICS.
   -- MAX PLANCK, 1931
 Job cpu time:       0 days  1 hours  7 minutes  8.4 seconds.
 Elapsed time:       0 days  0 hours 20 minutes 34.0 seconds.
 File lengths (MBytes):  RWF=     36 Int=      0 D2E=      0 Chk=      7 Scr=      1
 Normal termination of Gaussian 16 at Sun Jul  2 08:19:08 2023.
