 Entering Gaussian System, Link 0=g16
 Initial command:
 /home/alexey/programs//g16/l1.exe "/home/alexey/tmp/Gau-1463704.inp" -scrdir="/home/alexey/tmp/"
 Entering Link 1 = /home/alexey/programs//g16/l1.exe PID=   1463706.
  
 Copyright (c) 1988-2021, Gaussian, Inc.  All Rights Reserved.
  
 This is part of the Gaussian(R) 16 program.  It is based on
 the Gaussian(R) 09 system (copyright 2009, Gaussian, Inc.),
 the Gaussian(R) 03 system (copyright 2003, Gaussian, Inc.),
 the Gaussian(R) 98 system (copyright 1998, Gaussian, Inc.),
 the Gaussian(R) 94 system (copyright 1995, Gaussian, Inc.),
 the Gaussian 92(TM) system (copyright 1992, Gaussian, Inc.),
 the Gaussian 90(TM) system (copyright 1990, Gaussian, Inc.),
 the Gaussian 88(TM) system (copyright 1988, Gaussian, Inc.),
 the Gaussian 86(TM) system (copyright 1986, Carnegie Mellon
 University), and the Gaussian 82(TM) system (copyright 1983,
 Carnegie Mellon University). Gaussian is a federally registered
 trademark of Gaussian, Inc.
  
 This software contains proprietary and confidential information,
 including trade secrets, belonging to Gaussian, Inc.
  
 This software is provided under written license and may be
 used, copied, transmitted, or stored only in accord with that
 written license.
  
 The following legend is applicable only to US Government
 contracts under FAR:
  
                    RESTRICTED RIGHTS LEGEND
  
 Use, reproduction and disclosure by the US Government is
 subject to restrictions as set forth in subparagraphs (a)
 and (c) of the Commercial Computer Software - Restricted
 Rights clause in FAR 52.227-19.
  
 Gaussian, Inc.
 340 Quinnipiac St., Bldg. 40, Wallingford CT 06492
  
  
 ---------------------------------------------------------------
 Warning -- This program may not be used in any manner that
 competes with the business of Gaussian, Inc. or will provide
 assistance to any competitor of Gaussian, Inc.  The licensee
 of this program is prohibited from giving any competitor of
 Gaussian, Inc. access to this program.  By using this program,
 the user acknowledges that Gaussian, Inc. is engaged in the
 business of creating and licensing software in the field of
 computational chemistry and represents and warrants to the
 licensee that it is not a competitor of Gaussian, Inc. and that
 it will not use this program in any manner prohibited above.
 ---------------------------------------------------------------
  

 Cite this work as:
 Gaussian 16, Revision C.02,
 M. J. Frisch, G. W. Trucks, H. B. Schlegel, G. E. Scuseria, 
 M. A. Robb, J. R. Cheeseman, G. Scalmani, V. Barone, 
 G. A. Petersson, H. Nakatsuji, X. Li, M. Caricato, A. V. Marenich, 
 J. Bloino, B. G. Janesko, R. Gomperts, B. Mennucci, H. P. Hratchian, 
 J. V. Ortiz, A. F. Izmaylov, J. L. Sonnenberg, D. Williams-Young, 
 F. Ding, F. Lipparini, F. Egidi, J. Goings, B. Peng, A. Petrone, 
 T. Henderson, D. Ranasinghe, V. G. Zakrzewski, J. Gao, N. Rega, 
 G. Zheng, W. Liang, M. Hada, M. Ehara, K. Toyota, R. Fukuda, 
 J. Hasegawa, M. Ishida, T. Nakajima, Y. Honda, O. Kitao, H. Nakai, 
 T. Vreven, K. Throssell, J. A. Montgomery, Jr., J. E. Peralta, 
 F. Ogliaro, M. J. Bearpark, J. J. Heyd, E. N. Brothers, K. N. Kudin, 
 V. N. Staroverov, T. A. Keith, R. Kobayashi, J. Normand, 
 K. Raghavachari, A. P. Rendell, J. C. Burant, S. S. Iyengar, 
 J. Tomasi, M. Cossi, J. M. Millam, M. Klene, C. Adamo, R. Cammi, 
 J. W. Ochterski, R. L. Martin, K. Morokuma, O. Farkas, 
 J. B. Foresman, and D. J. Fox, Gaussian, Inc., Wallingford CT, 2019.
 
 ******************************************
 Gaussian 16:  ES64L-G16RevC.02  7-Dec-2021
                 2-Jul-2023 
 ******************************************
 %mem=8GB
 %NPROCS=4
 Will use up to    4 processors via shared memory.
 %NoSave
 ---------------------------------------------------------
 #MP2/6-31G* SCF=Tight Opt=(ModRedun, MaxCycle=20 ) NoSymm
 ---------------------------------------------------------
 1/6=20,18=120,19=15,38=1/1,3;
 2/9=110,12=2,15=1,17=6,18=5,40=1/2;
 3/5=1,6=6,7=1,11=9,25=1,30=1,71=1/1,2,3;
 4//1;
 5/5=2,32=2,38=5/2;
 8/6=4,10=2/1;
 9/15=2,16=-3/6;
 10/5=1,31=1/2;
 6/7=2,8=2,9=2,10=2/1;
 7/12=2,30=1/1,2,3,16;
 1/6=20,18=20,19=15/3(2);
 2/9=110,15=1/2;
 99//99;
 2/9=110,15=1/2;
 3/5=1,6=6,7=1,11=9,25=1,30=1,71=1/1,2,3;
 4/5=5,16=3,69=1/1;
 5/5=2,32=2,38=5/2;
 8/6=4,10=2/1;
 9/15=2,16=-3/6;
 10/5=1,31=1/2;
 7/12=2,30=1/1,2,3,16;
 1/6=20,18=20,19=15/3(-8);
 2/9=110,15=1/2;
 6/7=2,8=2,9=2,10=2/1;
 99/9=10/99;
 --------
 MolName:
 --------
 Symbolic Z-matrix:
 Charge =  0 Multiplicity = 1
 8                    0    -3.62204  -1.43999  -0.19597 
 7                    0    -3.25897  -0.27587  -0.03643 
 8                    0    -4.03687   0.66766   0.11018 
 6                    0    -1.7572    0.00647  -0.04227 
 6                    0    -1.36861   1.31423   0.27037 
 7                    0    -0.08108   1.76619   0.39978 
 6                    0     1.19797   0.99435   0.36577 
 1                    0     1.86387   1.49134   1.11831 
 6                    0     1.95852   1.04798  -0.98279 
 6                    0     3.37137   0.46188  -0.79837 
 6                    0     3.31183  -0.95504  -0.20606 
 6                    0     2.46728  -0.99111   1.08593 
 6                    0     1.02949  -0.45553   0.84395 
 1                    0     0.48285  -0.49604   1.81522 
 7                    0     0.37108  -1.32385  -0.13462 
 6                    0    -0.87135  -1.12332  -0.42941 
 1                    0    -2.1564    2.05659   0.48038 
 1                    0     0.15217   2.74984   0.24389 
 1                    0     1.40711   0.47239  -1.75641 
 1                    0     2.04335   2.09858  -1.33307 
 1                    0     3.90327   0.4397   -1.77467 
 1                    0     3.95016   1.11489  -0.10755 
 1                    0     2.86278  -1.64337  -0.95728 
 1                    0     4.34058  -1.31876   0.00746 
 1                    0     2.41032  -2.03803   1.45665 
 1                    0     2.96334  -0.38104   1.86966 
 1                    0    -1.37381  -1.87717  -1.05465 
 
 The following ModRedundant input section has been read:
 D      13      15      16       4 F                                           
 D       1       2       4      16 F                                           
 D       7      13      15      16 F                                           
 D       7       9      10      11 F                                           
 D       9      10      11      12 F                                           
 D       6       7      13      15 F                                           
 

 GradGradGradGradGradGradGradGradGradGradGradGradGradGradGradGradGradGrad
 Berny optimization.
 Initialization pass.
                           ----------------------------
                           !    Initial Parameters    !
                           ! (Angstroms and Degrees)  !
 --------------------------                            --------------------------
 ! Name  Definition              Value          Derivative Info.                !
 --------------------------------------------------------------------------------
 ! R1    R(1,2)                  1.2298         estimate D2E/DX2                !
 ! R2    R(2,3)                  1.2316         estimate D2E/DX2                !
 ! R3    R(2,4)                  1.5281         estimate D2E/DX2                !
 ! R4    R(4,5)                  1.3996         estimate D2E/DX2                !
 ! R5    R(4,16)                 1.487          estimate D2E/DX2                !
 ! R6    R(5,6)                  1.3707         estimate D2E/DX2                !
 ! R7    R(5,17)                 1.1026         estimate D2E/DX2                !
 ! R8    R(6,7)                  1.4943         estimate D2E/DX2                !
 ! R9    R(6,18)                 1.0229         estimate D2E/DX2                !
 ! R10   R(7,8)                  1.121          estimate D2E/DX2                !
 ! R11   R(7,9)                  1.5492         estimate D2E/DX2                !
 ! R12   R(7,13)                 1.536          estimate D2E/DX2                !
 ! R13   R(9,10)                 1.5407         estimate D2E/DX2                !
 ! R14   R(9,19)                 1.1108         estimate D2E/DX2                !
 ! R15   R(9,20)                 1.1107         estimate D2E/DX2                !
 ! R16   R(10,11)                1.5369         estimate D2E/DX2                !
 ! R17   R(10,21)                1.112          estimate D2E/DX2                !
 ! R18   R(10,22)                1.1129         estimate D2E/DX2                !
 ! R19   R(11,12)                1.544          estimate D2E/DX2                !
 ! R20   R(11,23)                1.1135         estimate D2E/DX2                !
 ! R21   R(11,24)                1.1118         estimate D2E/DX2                !
 ! R22   R(12,13)                1.5533         estimate D2E/DX2                !
 ! R23   R(12,25)                1.1121         estimate D2E/DX2                !
 ! R24   R(12,26)                1.1102         estimate D2E/DX2                !
 ! R25   R(13,14)                1.1153         estimate D2E/DX2                !
 ! R26   R(13,15)                1.4646         estimate D2E/DX2                !
 ! R27   R(15,16)                1.2926         estimate D2E/DX2                !
 ! R28   R(16,27)                1.1008         estimate D2E/DX2                !
 ! A1    A(1,2,3)              123.6518         estimate D2E/DX2                !
 ! A2    A(1,2,4)              117.6803         estimate D2E/DX2                !
 ! A3    A(3,2,4)              118.6617         estimate D2E/DX2                !
 ! A4    A(2,4,5)              116.4002         estimate D2E/DX2                !
 ! A5    A(2,4,16)             116.4934         estimate D2E/DX2                !
 ! A6    A(5,4,16)             127.0622         estimate D2E/DX2                !
 ! A7    A(4,5,6)              126.1552         estimate D2E/DX2                !
 ! A8    A(4,5,17)             118.2452         estimate D2E/DX2                !
 ! A9    A(6,5,17)             115.54           estimate D2E/DX2                !
 ! A10   A(5,6,7)              129.1665         estimate D2E/DX2                !
 ! A11   A(5,6,18)             121.1247         estimate D2E/DX2                !
 ! A12   A(7,6,18)             107.3414         estimate D2E/DX2                !
 ! A13   A(6,7,8)              105.3178         estimate D2E/DX2                !
 ! A14   A(6,7,9)              114.971          estimate D2E/DX2                !
 ! A15   A(6,7,13)             112.7434         estimate D2E/DX2                !
 ! A16   A(8,7,9)              106.1046         estimate D2E/DX2                !
 ! A17   A(8,7,13)             105.9412         estimate D2E/DX2                !
 ! A18   A(9,7,13)             110.949          estimate D2E/DX2                !
 ! A19   A(7,9,10)             109.4412         estimate D2E/DX2                !
 ! A20   A(7,9,19)             110.1589         estimate D2E/DX2                !
 ! A21   A(7,9,20)             110.1678         estimate D2E/DX2                !
 ! A22   A(10,9,19)            109.9665         estimate D2E/DX2                !
 ! A23   A(10,9,20)            109.1199         estimate D2E/DX2                !
 ! A24   A(19,9,20)            107.9638         estimate D2E/DX2                !
 ! A25   A(9,10,11)            111.1818         estimate D2E/DX2                !
 ! A26   A(9,10,21)            109.9459         estimate D2E/DX2                !
 ! A27   A(9,10,22)            109.1474         estimate D2E/DX2                !
 ! A28   A(11,10,21)           109.7856         estimate D2E/DX2                !
 ! A29   A(11,10,22)           108.7758         estimate D2E/DX2                !
 ! A30   A(21,10,22)           107.9333         estimate D2E/DX2                !
 ! A31   A(10,11,12)           111.4217         estimate D2E/DX2                !
 ! A32   A(10,11,23)           108.9986         estimate D2E/DX2                !
 ! A33   A(10,11,24)           109.8623         estimate D2E/DX2                !
 ! A34   A(12,11,23)           109.24           estimate D2E/DX2                !
 ! A35   A(12,11,24)           109.7415         estimate D2E/DX2                !
 ! A36   A(23,11,24)           107.4869         estimate D2E/DX2                !
 ! A37   A(11,12,13)           111.5872         estimate D2E/DX2                !
 ! A38   A(11,12,25)           109.206          estimate D2E/DX2                !
 ! A39   A(11,12,26)           109.4806         estimate D2E/DX2                !
 ! A40   A(13,12,25)           109.2158         estimate D2E/DX2                !
 ! A41   A(13,12,26)           109.5183         estimate D2E/DX2                !
 ! A42   A(25,12,26)           107.7509         estimate D2E/DX2                !
 ! A43   A(7,13,12)            105.81           estimate D2E/DX2                !
 ! A44   A(7,13,14)            111.0496         estimate D2E/DX2                !
 ! A45   A(7,13,15)            113.6371         estimate D2E/DX2                !
 ! A46   A(12,13,14)           107.7886         estimate D2E/DX2                !
 ! A47   A(12,13,15)           108.4084         estimate D2E/DX2                !
 ! A48   A(14,13,15)           109.8769         estimate D2E/DX2                !
 ! A49   A(13,15,16)           119.5056         estimate D2E/DX2                !
 ! A50   A(4,16,15)            129.1339         estimate D2E/DX2                !
 ! A51   A(4,16,27)            113.3465         estimate D2E/DX2                !
 ! A52   A(15,16,27)           117.5196         estimate D2E/DX2                !
 ! D1    D(1,2,4,5)           -173.9867         estimate D2E/DX2                !
 ! D2    D(1,2,4,16)             8.2585         Frozen                          !
 ! D3    D(3,2,4,5)              6.877          estimate D2E/DX2                !
 ! D4    D(3,2,4,16)          -170.8778         estimate D2E/DX2                !
 ! D5    D(2,4,5,6)            175.9371         estimate D2E/DX2                !
 ! D6    D(2,4,5,17)            -1.1202         estimate D2E/DX2                !
 ! D7    D(16,4,5,6)            -6.5811         estimate D2E/DX2                !
 ! D8    D(16,4,5,17)          176.3616         estimate D2E/DX2                !
 ! D9    D(2,4,16,15)         -155.8723         estimate D2E/DX2                !
 ! D10   D(2,4,16,27)           24.1567         estimate D2E/DX2                !
 ! D11   D(5,4,16,15)           26.648          estimate D2E/DX2                !
 ! D12   D(5,4,16,27)         -153.323          estimate D2E/DX2                !
 ! D13   D(4,5,6,7)             -5.9124         estimate D2E/DX2                !
 ! D14   D(4,5,6,18)           154.3038         estimate D2E/DX2                !
 ! D15   D(17,5,6,7)           171.2147         estimate D2E/DX2                !
 ! D16   D(17,5,6,18)          -28.5692         estimate D2E/DX2                !
 ! D17   D(5,6,7,8)           -143.4461         estimate D2E/DX2                !
 ! D18   D(5,6,7,9)            100.142          estimate D2E/DX2                !
 ! D19   D(5,6,7,13)           -28.3843         estimate D2E/DX2                !
 ! D20   D(18,6,7,8)            54.2245         estimate D2E/DX2                !
 ! D21   D(18,6,7,9)           -62.1873         estimate D2E/DX2                !
 ! D22   D(18,6,7,13)          169.2863         estimate D2E/DX2                !
 ! D23   D(6,7,9,10)           168.6827         estimate D2E/DX2                !
 ! D24   D(6,7,9,19)           -70.298          estimate D2E/DX2                !
 ! D25   D(6,7,9,20)            48.7039         estimate D2E/DX2                !
 ! D26   D(8,7,9,10)            52.7209         estimate D2E/DX2                !
 ! D27   D(8,7,9,19)           173.7402         estimate D2E/DX2                !
 ! D28   D(8,7,9,20)           -67.2579         estimate D2E/DX2                !
 ! D29   D(13,7,9,10)          -61.9016         estimate D2E/DX2                !
 ! D30   D(13,7,9,19)           59.1177         estimate D2E/DX2                !
 ! D31   D(13,7,9,20)          178.1196         estimate D2E/DX2                !
 ! D32   D(6,7,13,12)         -166.15           estimate D2E/DX2                !
 ! D33   D(6,7,13,14)          -49.4578         estimate D2E/DX2                !
 ! D34   D(6,7,13,15)           75.0217         Frozen                          !
 ! D35   D(8,7,13,12)          -51.4643         estimate D2E/DX2                !
 ! D36   D(8,7,13,14)           65.2278         estimate D2E/DX2                !
 ! D37   D(8,7,13,15)         -170.2927         estimate D2E/DX2                !
 ! D38   D(9,7,13,12)           63.2603         estimate D2E/DX2                !
 ! D39   D(9,7,13,14)          179.9524         estimate D2E/DX2                !
 ! D40   D(9,7,13,15)          -55.5681         estimate D2E/DX2                !
 ! D41   D(7,9,10,11)           54.8123         Frozen                          !
 ! D42   D(7,9,10,21)          176.6033         estimate D2E/DX2                !
 ! D43   D(7,9,10,22)          -65.1842         estimate D2E/DX2                !
 ! D44   D(19,9,10,11)         -66.3235         estimate D2E/DX2                !
 ! D45   D(19,9,10,21)          55.4674         estimate D2E/DX2                !
 ! D46   D(19,9,10,22)         173.68           estimate D2E/DX2                !
 ! D47   D(20,9,10,11)         175.4313         estimate D2E/DX2                !
 ! D48   D(20,9,10,21)         -62.7777         estimate D2E/DX2                !
 ! D49   D(20,9,10,22)          55.4348         estimate D2E/DX2                !
 ! D50   D(9,10,11,12)         -52.8224         Frozen                          !
 ! D51   D(9,10,11,23)          67.805          estimate D2E/DX2                !
 ! D52   D(9,10,11,24)        -174.6608         estimate D2E/DX2                !
 ! D53   D(21,10,11,12)       -174.7067         estimate D2E/DX2                !
 ! D54   D(21,10,11,23)        -54.0793         estimate D2E/DX2                !
 ! D55   D(21,10,11,24)         63.4549         estimate D2E/DX2                !
 ! D56   D(22,10,11,12)         67.3942         estimate D2E/DX2                !
 ! D57   D(22,10,11,23)       -171.9784         estimate D2E/DX2                !
 ! D58   D(22,10,11,24)        -54.4441         estimate D2E/DX2                !
 ! D59   D(10,11,12,13)         56.6049         estimate D2E/DX2                !
 ! D60   D(10,11,12,25)        177.4454         estimate D2E/DX2                !
 ! D61   D(10,11,12,26)        -64.8005         estimate D2E/DX2                !
 ! D62   D(23,11,12,13)        -63.8807         estimate D2E/DX2                !
 ! D63   D(23,11,12,25)         56.9597         estimate D2E/DX2                !
 ! D64   D(23,11,12,26)        174.7139         estimate D2E/DX2                !
 ! D65   D(24,11,12,13)        178.5132         estimate D2E/DX2                !
 ! D66   D(24,11,12,25)        -60.6464         estimate D2E/DX2                !
 ! D67   D(24,11,12,26)         57.1077         estimate D2E/DX2                !
 ! D68   D(11,12,13,7)         -60.3347         estimate D2E/DX2                !
 ! D69   D(11,12,13,14)       -179.2092         estimate D2E/DX2                !
 ! D70   D(11,12,13,15)         61.9021         estimate D2E/DX2                !
 ! D71   D(25,12,13,7)         178.8306         estimate D2E/DX2                !
 ! D72   D(25,12,13,14)         59.9561         estimate D2E/DX2                !
 ! D73   D(25,12,13,15)        -58.9326         estimate D2E/DX2                !
 ! D74   D(26,12,13,7)          61.0489         estimate D2E/DX2                !
 ! D75   D(26,12,13,14)        -57.8256         estimate D2E/DX2                !
 ! D76   D(26,12,13,15)       -176.7144         estimate D2E/DX2                !
 ! D77   D(7,13,15,16)         -67.1597         Frozen                          !
 ! D78   D(12,13,15,16)        175.5113         estimate D2E/DX2                !
 ! D79   D(14,13,15,16)         57.9496         estimate D2E/DX2                !
 ! D80   D(13,15,16,4)           8.6243         Frozen                          !
 ! D81   D(13,15,16,27)       -171.4057         estimate D2E/DX2                !
 --------------------------------------------------------------------------------
 Trust Radius=3.00D-01 FncErr=1.00D-07 GrdErr=1.00D-07 EigMax=2.50D+02 EigMin=1.00D-04
 Number of steps in this run=     20 maximum allowed number of steps=    162.
 GradGradGradGradGradGradGradGradGradGradGradGradGradGradGradGradGradGrad

                          Input orientation:                          
 ---------------------------------------------------------------------
 Center     Atomic      Atomic             Coordinates (Angstroms)
 Number     Number       Type             X           Y           Z
 ---------------------------------------------------------------------
      1          8           0       -3.622040   -1.439990   -0.195970
      2          7           0       -3.258970   -0.275870   -0.036430
      3          8           0       -4.036870    0.667660    0.110180
      4          6           0       -1.757200    0.006470   -0.042270
      5          6           0       -1.368610    1.314230    0.270370
      6          7           0       -0.081080    1.766190    0.399780
      7          6           0        1.197970    0.994350    0.365770
      8          1           0        1.863870    1.491340    1.118310
      9          6           0        1.958520    1.047980   -0.982790
     10          6           0        3.371370    0.461880   -0.798370
     11          6           0        3.311830   -0.955040   -0.206060
     12          6           0        2.467280   -0.991110    1.085930
     13          6           0        1.029490   -0.455530    0.843950
     14          1           0        0.482850   -0.496040    1.815220
     15          7           0        0.371080   -1.323850   -0.134620
     16          6           0       -0.871350   -1.123320   -0.429410
     17          1           0       -2.156400    2.056590    0.480380
     18          1           0        0.152170    2.749840    0.243890
     19          1           0        1.407110    0.472390   -1.756410
     20          1           0        2.043350    2.098580   -1.333070
     21          1           0        3.903270    0.439700   -1.774670
     22          1           0        3.950160    1.114890   -0.107550
     23          1           0        2.862780   -1.643370   -0.957280
     24          1           0        4.340580   -1.318760    0.007460
     25          1           0        2.410320   -2.038030    1.456650
     26          1           0        2.963340   -0.381040    1.869660
     27          1           0       -1.373810   -1.877170   -1.054650
 ---------------------------------------------------------------------
                    Distance matrix (angstroms):
                    1          2          3          4          5
     1  O    0.000000
     2  N    1.229816   0.000000
     3  O    2.169793   1.231613   0.000000
     4  C    2.365058   1.528091   2.378510   0.000000
     5  C    3.589032   2.489178   2.750150   1.399636   0.000000
     6  N    4.813824   3.802535   4.115691   2.470101   1.370674
     7  C    5.429002   4.651832   5.251248   3.142520   2.588196
     8  H    6.357298   5.540753   6.042641   4.082148   3.346535
     9  C    6.160498   5.465380   6.106057   3.971888   3.565262
    10  C    7.272398   6.714629   7.466581   5.203971   4.933165
    11  C    6.950815   6.607984   7.532367   5.162015   5.223322
    12  C    6.238957   5.878877   6.782888   4.484889   4.549042
    13  C    4.866963   4.381579   5.240990   2.960485   3.035116
    14  H    4.667553   4.180706   4.968826   2.953068   3.015219
    15  N    3.995280   3.779572   4.843146   2.511544   3.185907
    16  C    2.778681   2.563851   3.676858   1.486954   2.584301
    17  H    3.851184   2.631183   2.366927   2.153025   1.102640
    18  H    5.656219   4.568301   4.679894   3.354648   2.091518
    19  H    5.602189   5.028969   5.758403   3.628804   3.538524
    20  H    6.775774   5.952637   6.410895   4.526286   3.850675
    21  H    7.915543   7.404809   8.163973   5.935471   5.721862
    22  H    7.992086   7.342399   8.002504   5.814363   5.335904
    23  H    6.532522   6.339862   7.354285   4.990334   5.306523
    24  H    7.966141   7.670900   8.610348   6.240323   6.292584
    25  H    6.283166   6.121711   7.120393   4.878008   5.188952
    26  H    6.982509   6.508562   7.293729   5.107753   4.919091
    27  H    2.446016   2.674839   3.863273   2.172556   3.455537
                    6          7          8          9         10
     6  N    0.000000
     7  C    1.494277   0.000000
     8  H    2.091568   1.121043   0.000000
     9  C    2.566572   1.549170   2.149453   0.000000
    10  C    3.880232   2.522383   2.646886   1.540672   0.000000
    11  C    4.391352   2.931811   3.136131   2.539064   1.536892
    12  C    3.816758   2.464108   2.554938   2.948954   2.545416
    13  C    2.523231   1.535967   2.135829   2.541775   3.003874
    14  H    2.727485   2.198537   2.518448   3.520008   4.011485
    15  N    3.168340   2.511611   3.423967   2.977404   3.554031
    16  C    3.108271   3.065766   4.088192   3.609562   4.544190
    17  H    2.097089   3.520410   4.109627   4.482268   5.893602
    18  H    1.022876   2.047022   2.297466   2.768388   4.084644
    19  H    2.921949   2.195411   3.083975   1.110786   2.185468
    20  H    2.761604   2.195461   2.531841   1.110699   2.174472
    21  H    4.728938   3.493962   3.692483   2.186122   1.112012
    22  H    4.114908   2.795194   2.448888   2.176500   1.112948
    23  H    4.704575   3.388159   3.890026   2.839314   2.171634
    24  H    5.405729   3.918528   3.907012   3.500895   2.181607
    25  H    4.668633   3.443129   3.587413   3.959602   3.501183
    26  H    4.004952   2.696278   2.297644   3.344882   2.827611
    27  H    4.130447   4.108196   5.152784   4.434647   5.296562
                   11         12         13         14         15
    11  C    0.000000
    12  C    1.543957   0.000000
    13  C    2.561466   1.553268   0.000000
    14  H    3.507047   2.171387   1.115268   0.000000
    15  N    2.964648   2.448369   1.464610   2.121235   0.000000
    16  C    4.192517   3.668812   2.383397   2.695497   1.292573
    17  H    6.280339   5.570779   4.073429   3.906835   4.265414
    18  H    4.889994   4.479227   3.377004   3.621348   4.097089
    19  H    2.840616   3.368188   2.786665   3.814270   2.632497
    20  H    3.493392   3.946829   3.505825   4.367945   3.993219
    21  H    2.180743   3.506040   3.989639   5.046008   4.275072
    22  H    2.168359   2.838761   3.449911   4.279530   4.331051
    23  H    1.113452   2.180956   2.831315   3.829777   2.643375
    24  H    1.111850   2.186254   3.522527   4.339003   3.972045
    25  H    2.179494   1.112079   2.187784   2.494283   2.683411
    26  H    2.181636   1.110177   2.190298   2.483751   3.409669
    27  H    4.850325   4.485661   3.376625   3.686578   2.048721
                   16         17         18         19         20
    16  C    0.000000
    17  H    3.548366   0.000000
    18  H    4.062302   2.421986   0.000000
    19  H    3.081980   4.495723   3.280679   0.000000
    20  H    4.437648   4.574742   2.547058   1.796806   0.000000
    21  H    5.200938   6.664772   4.845831   2.496441   2.531046
    22  H    5.325424   6.206653   4.149855   3.098169   2.470925
    23  H    3.806944   6.399120   5.300048   2.689614   3.849009
    24  H    5.233858   7.336715   5.843987   3.863250   4.330416
    25  H    3.894005   6.210793   5.430813   4.199094   5.002874
    26  H    4.532279   5.838140   4.510900   4.037150   4.153598
    27  H    1.100764   4.294558   5.042226   3.707616   5.249866
                   21         22         23         24         25
    21  H    0.000000
    22  H    1.799269   0.000000
    23  H    2.467778   3.084223   0.000000
    24  H    2.541537   2.467450   1.794432   0.000000
    25  H    4.336989   3.841710   2.487476   2.518612   0.000000
    26  H    3.852041   2.668516   3.097609   2.498779   1.795000
    27  H    5.808088   6.180136   4.244153   5.839020   4.544463
                   26         27
    26  H    0.000000
    27  H    5.440668   0.000000
 Symmetry turned off by external request.
 Stoichiometry    C9H13N3O2
 Framework group  C1[X(C9H13N3O2)]
 Deg. of freedom    75
 Full point group                 C1      NOp   1
 Rotational constants (GHZ):           1.6744789           0.3999888           0.3550511
 Standard basis: 6-31G(d) (6D, 7F)
   236 basis functions,   444 primitive gaussians,   236 cartesian basis functions
    52 alpha electrons       52 beta electrons
       nuclear repulsion energy       917.3562241935 Hartrees.
 NAtoms=   27 NActive=   27 NUniq=   27 SFac= 1.00D+00 NAtFMM=   60 NAOKFM=F Big=F
 Integral buffers will be    131072 words long.
 Raffenetti 1 integral format.
 Two-electron integral symmetry is turned off.
 One-electron integrals computed using PRISM.
 NBasis=   236 RedAO= T EigKep=  1.27D-03  NBF=   236
 NBsUse=   236 1.00D-06 EigRej= -1.00D+00 NBFU=   236
 ExpMin= 1.61D-01 ExpMax= 5.48D+03 ExpMxC= 8.25D+02 IAcc=3 IRadAn=         5 AccDes= 0.00D+00
 Harris functional with IExCor=  205 and IRadAn=       5 diagonalized for initial guess.
 HarFok:  IExCor=  205 AccDes= 0.00D+00 IRadAn=         5 IDoV= 1 UseB2=F ITyADJ=14
 ICtDFT=  3500011 ScaDFX=  1.000000  1.000000  1.000000  1.000000
 FoFCou: FMM=F IPFlag=           0 FMFlag=      100000 FMFlg1=           0
         NFxFlg=           0 DoJE=T BraDBF=F KetDBF=T FulRan=T
         wScrn=  0.000000 ICntrl=       500 IOpCl=  0 I1Cent=   200000004 NGrid=           0
         NMat0=    1 NMatS0=      1 NMatT0=    0 NMatD0=    1 NMtDS0=    0 NMtDT0=    0
 Symmetry not used in FoFCou.
 Keep R1 ints in memory in canonical form, NReq=397720213.
 Requested convergence on RMS density matrix=1.00D-08 within 128 cycles.
 Requested convergence on MAX density matrix=1.00D-06.
 Requested convergence on             energy=1.00D-06.
 No special actions if energy rises.
 SCF Done:  E(RHF) =  -661.281275556     A.U. after   16 cycles
            NFock= 16  Conv=0.79D-08     -V/T= 2.0037
 ExpMin= 1.61D-01 ExpMax= 5.48D+03 ExpMxC= 8.25D+02 IAcc=3 IRadAn=         5 AccDes= 0.00D+00
 HarFok:  IExCor=  205 AccDes= 0.00D+00 IRadAn=         5 IDoV=-2 UseB2=F ITyADJ=14
 ICtDFT= 12500011 ScaDFX=  1.000000  1.000000  1.000000  1.000000
 Range of M.O.s used for correlation:    15   236
 NBasis=   236 NAE=    52 NBE=    52 NFC=    14 NFV=     0
 NROrb=    222 NOA=    38 NOB=    38 NVA=   184 NVB=   184
 Fully direct method using O(ONN) memory.
 JobTyp=1 Pass  1:  I=  15 to  52 NPSUse=  4 ParTrn=T ParDer=T DoDerP=T.
 Spin components of T(2) and E(2):
     alpha-alpha T2 =       0.9197798911D-01 E2=     -0.2717665425D+00
     alpha-beta  T2 =       0.4996472476D+00 E2=     -0.1493714633D+01
     beta-beta   T2 =       0.9197798911D-01 E2=     -0.2717665425D+00
 ANorm=    0.1297537370D+01
 E2 =    -0.2037247718D+01 EUMP2 =    -0.66331852327404D+03
          IDoAtm=111111111111111111111111111
          Differentiating once with respect to electric field.
                with respect to dipole field.
          Differentiating once with respect to nuclear coordinates.
 Keep R1 ints in memory in canonical form, NReq=397723379.
          There are     1 degrees of freedom in the 1st order CPHF.  IDoFFX=0 NUNeed=     1.
 LinEq1:  Iter=  0 NonCon=     1 RMS=4.61D-03 Max=1.12D-01 NDo=     1
 AX will form     1 AO Fock derivatives at one time.
 LinEq1:  Iter=  1 NonCon=     1 RMS=1.57D-03 Max=2.87D-02 NDo=     1
 LinEq1:  Iter=  2 NonCon=     1 RMS=6.41D-04 Max=1.80D-02 NDo=     1
 LinEq1:  Iter=  3 NonCon=     1 RMS=2.94D-04 Max=9.11D-03 NDo=     1
 LinEq1:  Iter=  4 NonCon=     1 RMS=9.04D-05 Max=2.11D-03 NDo=     1
 LinEq1:  Iter=  5 NonCon=     1 RMS=3.75D-05 Max=1.87D-03 NDo=     1
 LinEq1:  Iter=  6 NonCon=     1 RMS=1.54D-05 Max=5.84D-04 NDo=     1
 LinEq1:  Iter=  7 NonCon=     1 RMS=5.92D-06 Max=1.00D-04 NDo=     1
 LinEq1:  Iter=  8 NonCon=     1 RMS=2.36D-06 Max=5.94D-05 NDo=     1
 LinEq1:  Iter=  9 NonCon=     1 RMS=8.79D-07 Max=2.52D-05 NDo=     1
 LinEq1:  Iter= 10 NonCon=     1 RMS=4.32D-07 Max=1.50D-05 NDo=     1
 LinEq1:  Iter= 11 NonCon=     1 RMS=1.54D-07 Max=5.72D-06 NDo=     1
 LinEq1:  Iter= 12 NonCon=     1 RMS=5.40D-08 Max=7.69D-07 NDo=     1
 LinEq1:  Iter= 13 NonCon=     1 RMS=1.70D-08 Max=3.32D-07 NDo=     1
 LinEq1:  Iter= 14 NonCon=     1 RMS=5.38D-09 Max=1.41D-07 NDo=     1
 LinEq1:  Iter= 15 NonCon=     1 RMS=1.99D-09 Max=4.76D-08 NDo=     1
 LinEq1:  Iter= 16 NonCon=     1 RMS=7.49D-10 Max=1.29D-08 NDo=     1
 LinEq1:  Iter= 17 NonCon=     1 RMS=2.51D-10 Max=3.76D-09 NDo=     1
 LinEq1:  Iter= 18 NonCon=     1 RMS=8.69D-11 Max=1.05D-09 NDo=     1
 LinEq1:  Iter= 19 NonCon=     0 RMS=2.91D-11 Max=3.77D-10 NDo=     1
 Linear equations converged to 1.000D-10 1.000D-09 after    19 iterations.
 End of Minotr F.D. properties file   721 does not exist.
 End of Minotr F.D. properties file   722 does not exist.
 End of Minotr F.D. properties file   788 does not exist.

 **********************************************************************

            Population analysis using the SCF Density.

 **********************************************************************

 Alpha  occ. eigenvalues --  -20.59826 -20.59391 -15.85279 -15.63400 -15.56795
 Alpha  occ. eigenvalues --  -11.35887 -11.30468 -11.30085 -11.30083 -11.27687
 Alpha  occ. eigenvalues --  -11.24634 -11.23884 -11.23399 -11.22855  -1.58482
 Alpha  occ. eigenvalues --   -1.37982  -1.28622  -1.22717  -1.13280  -1.08376
 Alpha  occ. eigenvalues --   -1.01812  -1.00679  -0.93604  -0.88961  -0.84939
 Alpha  occ. eigenvalues --   -0.81542  -0.78020  -0.76970  -0.74336  -0.71134
 Alpha  occ. eigenvalues --   -0.70325  -0.69777  -0.67398  -0.64351  -0.63257
 Alpha  occ. eigenvalues --   -0.61661  -0.60340  -0.57429  -0.56486  -0.54882
 Alpha  occ. eigenvalues --   -0.53638  -0.50721  -0.49400  -0.48488  -0.47799
 Alpha  occ. eigenvalues --   -0.47692  -0.46162  -0.45686  -0.44010  -0.42099
 Alpha  occ. eigenvalues --   -0.39906  -0.33764
 Alpha virt. eigenvalues --    0.07381   0.11780   0.18101   0.21398   0.23441
 Alpha virt. eigenvalues --    0.24277   0.26293   0.27830   0.28556   0.28871
 Alpha virt. eigenvalues --    0.29906   0.31098   0.31845   0.32283   0.33333
 Alpha virt. eigenvalues --    0.33794   0.34248   0.35467   0.37590   0.38581
 Alpha virt. eigenvalues --    0.40608   0.41690   0.44385   0.45255   0.45636
 Alpha virt. eigenvalues --    0.46131   0.49727   0.53191   0.57575   0.59013
 Alpha virt. eigenvalues --    0.63304   0.69121   0.69206   0.72212   0.74030
 Alpha virt. eigenvalues --    0.74906   0.75675   0.75856   0.77808   0.79228
 Alpha virt. eigenvalues --    0.80558   0.83612   0.84963   0.85360   0.87970
 Alpha virt. eigenvalues --    0.89074   0.90212   0.90762   0.91859   0.93907
 Alpha virt. eigenvalues --    0.95140   0.97207   0.98904   1.00401   1.01958
 Alpha virt. eigenvalues --    1.02763   1.05077   1.06499   1.07022   1.08683
 Alpha virt. eigenvalues --    1.09592   1.10471   1.11388   1.11978   1.13253
 Alpha virt. eigenvalues --    1.13835   1.14156   1.15447   1.16346   1.17222
 Alpha virt. eigenvalues --    1.18003   1.20030   1.21277   1.22354   1.22983
 Alpha virt. eigenvalues --    1.23725   1.24296   1.25579   1.27046   1.27530
 Alpha virt. eigenvalues --    1.29385   1.31264   1.33061   1.36113   1.39634
 Alpha virt. eigenvalues --    1.42897   1.46303   1.47330   1.49533   1.52724
 Alpha virt. eigenvalues --    1.54929   1.55432   1.60329   1.61507   1.65938
 Alpha virt. eigenvalues --    1.68538   1.70317   1.72750   1.73475   1.76869
 Alpha virt. eigenvalues --    1.77758   1.80100   1.84366   1.89130   1.92536
 Alpha virt. eigenvalues --    1.93681   1.96095   1.97489   1.99045   2.00929
 Alpha virt. eigenvalues --    2.02932   2.03775   2.05971   2.08898   2.11901
 Alpha virt. eigenvalues --    2.12939   2.13596   2.17727   2.18829   2.19486
 Alpha virt. eigenvalues --    2.20666   2.22062   2.24054   2.25117   2.26309
 Alpha virt. eigenvalues --    2.29241   2.32203   2.33337   2.35515   2.36024
 Alpha virt. eigenvalues --    2.38661   2.39851   2.41671   2.43261   2.46348
 Alpha virt. eigenvalues --    2.48650   2.50384   2.50707   2.56768   2.57174
 Alpha virt. eigenvalues --    2.60726   2.62934   2.65863   2.68538   2.68851
 Alpha virt. eigenvalues --    2.69645   2.70055   2.74668   2.77016   2.80957
 Alpha virt. eigenvalues --    2.84735   2.86788   2.89966   2.91347   2.95186
 Alpha virt. eigenvalues --    2.97604   2.98414   3.02214   3.03696   3.05705
 Alpha virt. eigenvalues --    3.07052   3.12834   3.19137   3.22718   3.27194
 Alpha virt. eigenvalues --    3.30827   3.33790   3.37298   3.43345   3.59980
 Alpha virt. eigenvalues --    4.10042   4.23272   4.32057   4.36418   4.43200
 Alpha virt. eigenvalues --    4.52603   4.59613   4.60181   4.70836   4.77617
 Alpha virt. eigenvalues --    4.96506   4.99235   5.02892   5.09878
          Condensed to atoms (all electrons):
               1          2          3          4          5          6
     1  O    8.299929   0.313059  -0.089744  -0.079144   0.003519  -0.000013
     2  N    0.313059   5.682258   0.309196   0.265495  -0.046379   0.000843
     3  O   -0.089744   0.309196   8.331014  -0.087543   0.008023   0.000466
     4  C   -0.079144   0.265495  -0.087543   5.245930   0.566998  -0.047914
     5  C    0.003519  -0.046379   0.008023   0.566998   4.671714   0.307895
     6  N   -0.000013   0.000843   0.000466  -0.047914   0.307895   7.187400
     7  C    0.000003  -0.000094   0.000002   0.004288  -0.029255   0.198685
     8  H   -0.000000   0.000002  -0.000000  -0.000190   0.002360  -0.049709
     9  C   -0.000000  -0.000003   0.000000   0.000488   0.001598  -0.056444
    10  C   -0.000000   0.000000  -0.000000  -0.000019  -0.000061   0.003341
    11  C   -0.000000  -0.000000  -0.000000  -0.000014   0.000015  -0.000154
    12  C   -0.000000   0.000002  -0.000000  -0.000113  -0.000132   0.003603
    13  C   -0.000018  -0.000023  -0.000002  -0.010279   0.000456  -0.044597
    14  H   -0.000002  -0.000054   0.000000   0.002902   0.004698  -0.005541
    15  N    0.000197   0.001633  -0.000013  -0.061340  -0.003700   0.001874
    16  C    0.003338  -0.026539   0.001953   0.317959  -0.041373  -0.001149
    17  H    0.000128  -0.004156   0.012063  -0.026808   0.377024  -0.033744
    18  H    0.000000  -0.000035   0.000008   0.000982  -0.024514   0.328544
    19  H    0.000000   0.000000   0.000000  -0.000792   0.000697   0.000591
    20  H    0.000000  -0.000000   0.000000  -0.000027   0.000028  -0.001641
    21  H   -0.000000  -0.000000   0.000000   0.000000   0.000001  -0.000059
    22  H   -0.000000   0.000000  -0.000000  -0.000000  -0.000002  -0.000097
    23  H    0.000000  -0.000000   0.000000   0.000025  -0.000000  -0.000024
    24  H    0.000000   0.000000   0.000000   0.000000  -0.000000   0.000004
    25  H    0.000000  -0.000000   0.000000   0.000019  -0.000001  -0.000071
    26  H    0.000000  -0.000000   0.000000   0.000006  -0.000001  -0.000067
    27  H    0.005416  -0.000249   0.000004  -0.066321   0.002129   0.000039
               7          8          9         10         11         12
     1  O    0.000003  -0.000000  -0.000000  -0.000000  -0.000000  -0.000000
     2  N   -0.000094   0.000002  -0.000003   0.000000  -0.000000   0.000002
     3  O    0.000002  -0.000000   0.000000  -0.000000  -0.000000  -0.000000
     4  C    0.004288  -0.000190   0.000488  -0.000019  -0.000014  -0.000113
     5  C   -0.029255   0.002360   0.001598  -0.000061   0.000015  -0.000132
     6  N    0.198685  -0.049709  -0.056444   0.003341  -0.000154   0.003603
     7  C    5.006153   0.416520   0.340886  -0.049340  -0.007727  -0.064181
     8  H    0.416520   0.547076  -0.060407   0.001431  -0.000323  -0.002869
     9  C    0.340886  -0.060407   5.180986   0.318032  -0.053072  -0.006163
    10  C   -0.049340   0.001431   0.318032   5.126717   0.332753  -0.060198
    11  C   -0.007727  -0.000323  -0.053072   0.332753   5.124042   0.330628
    12  C   -0.064181  -0.002869  -0.006163  -0.060198   0.330628   5.137116
    13  C    0.331379  -0.040155  -0.050734  -0.001662  -0.047873   0.368380
    14  H   -0.040335  -0.000942   0.003863  -0.000390   0.003956  -0.040747
    15  N   -0.058498   0.004047  -0.012872   0.001452  -0.007735  -0.074263
    16  C   -0.002211   0.000013  -0.000848  -0.000029   0.000004   0.002464
    17  H    0.001422  -0.000020  -0.000065   0.000001   0.000000   0.000001
    18  H   -0.028578  -0.002767   0.000855  -0.000120   0.000011  -0.000137
    19  H   -0.035000   0.004088   0.386085  -0.032597  -0.002252   0.000623
    20  H   -0.041691  -0.001847   0.397228  -0.037350   0.004137  -0.000363
    21  H    0.004046  -0.000080  -0.035838   0.400136  -0.035837   0.004213
    22  H   -0.004236   0.003511  -0.045687   0.395967  -0.045622  -0.001226
    23  H    0.000433   0.000033  -0.002003  -0.040092   0.396690  -0.036615
    24  H   -0.000141  -0.000099   0.004396  -0.038481   0.400300  -0.037872
    25  H    0.004989  -0.000005  -0.000370   0.004097  -0.033903   0.395395
    26  H   -0.004450   0.001594   0.001045  -0.002405  -0.042322   0.394654
    27  H   -0.000402   0.000009  -0.000059   0.000005   0.000005  -0.000019
              13         14         15         16         17         18
     1  O   -0.000018  -0.000002   0.000197   0.003338   0.000128   0.000000
     2  N   -0.000023  -0.000054   0.001633  -0.026539  -0.004156  -0.000035
     3  O   -0.000002   0.000000  -0.000013   0.001953   0.012063   0.000008
     4  C   -0.010279   0.002902  -0.061340   0.317959  -0.026808   0.000982
     5  C    0.000456   0.004698  -0.003700  -0.041373   0.377024  -0.024514
     6  N   -0.044597  -0.005541   0.001874  -0.001149  -0.033744   0.328544
     7  C    0.331379  -0.040335  -0.058498  -0.002211   0.001422  -0.028578
     8  H   -0.040155  -0.000942   0.004047   0.000013  -0.000020  -0.002767
     9  C   -0.050734   0.003863  -0.012872  -0.000848  -0.000065   0.000855
    10  C   -0.001662  -0.000390   0.001452  -0.000029   0.000001  -0.000120
    11  C   -0.047873   0.003956  -0.007735   0.000004   0.000000   0.000011
    12  C    0.368380  -0.040747  -0.074263   0.002464   0.000001  -0.000137
    13  C    5.023202   0.402630   0.240191  -0.069569  -0.000042   0.003698
    14  H    0.402630   0.519129  -0.035765  -0.004899   0.000059   0.000008
    15  N    0.240191  -0.035765   6.937861   0.587787  -0.000057  -0.000119
    16  C   -0.069569  -0.004899   0.587787   4.699248   0.001641  -0.000210
    17  H   -0.000042   0.000059  -0.000057   0.001641   0.385502  -0.001915
    18  H    0.003698   0.000008  -0.000119  -0.000210  -0.001915   0.324610
    19  H   -0.006247   0.000065   0.006949   0.002507   0.000011  -0.000128
    20  H    0.003867  -0.000049   0.000080  -0.000031  -0.000002   0.002830
    21  H   -0.000379   0.000009  -0.000030   0.000002  -0.000000  -0.000000
    22  H    0.000318  -0.000044   0.000003  -0.000001   0.000000   0.000002
    23  H   -0.005880   0.000008   0.006779   0.000066   0.000000   0.000000
    24  H    0.004145  -0.000058   0.000043   0.000005   0.000000  -0.000000
    25  H   -0.034446  -0.002660   0.000803  -0.000061  -0.000000   0.000002
    26  H   -0.044839  -0.000902   0.004192  -0.000053   0.000000  -0.000001
    27  H    0.004872  -0.000172  -0.039865   0.402508  -0.000059   0.000002
              19         20         21         22         23         24
     1  O    0.000000   0.000000  -0.000000  -0.000000   0.000000   0.000000
     2  N    0.000000  -0.000000  -0.000000   0.000000  -0.000000   0.000000
     3  O    0.000000   0.000000   0.000000  -0.000000   0.000000   0.000000
     4  C   -0.000792  -0.000027   0.000000  -0.000000   0.000025   0.000000
     5  C    0.000697   0.000028   0.000001  -0.000002  -0.000000  -0.000000
     6  N    0.000591  -0.001641  -0.000059  -0.000097  -0.000024   0.000004
     7  C   -0.035000  -0.041691   0.004046  -0.004236   0.000433  -0.000141
     8  H    0.004088  -0.001847  -0.000080   0.003511   0.000033  -0.000099
     9  C    0.386085   0.397228  -0.035838  -0.045687  -0.002003   0.004396
    10  C   -0.032597  -0.037350   0.400136   0.395967  -0.040092  -0.038481
    11  C   -0.002252   0.004137  -0.035837  -0.045622   0.396690   0.400300
    12  C    0.000623  -0.000363   0.004213  -0.001226  -0.036615  -0.037872
    13  C   -0.006247   0.003867  -0.000379   0.000318  -0.005880   0.004145
    14  H    0.000065  -0.000049   0.000009  -0.000044   0.000008  -0.000058
    15  N    0.006949   0.000080  -0.000030   0.000003   0.006779   0.000043
    16  C    0.002507  -0.000031   0.000002  -0.000001   0.000066   0.000005
    17  H    0.000011  -0.000002  -0.000000   0.000000   0.000000   0.000000
    18  H   -0.000128   0.002830  -0.000000   0.000002   0.000000  -0.000000
    19  H    0.506707  -0.024006  -0.002591   0.003756   0.001640  -0.000070
    20  H   -0.024006   0.550048  -0.002619  -0.002964  -0.000049  -0.000090
    21  H   -0.002591  -0.002619   0.526048  -0.024693  -0.002813  -0.002061
    22  H    0.003756  -0.002964  -0.024693   0.568899   0.004061  -0.003595
    23  H    0.001640  -0.000049  -0.002813   0.004061   0.509568  -0.024986
    24  H   -0.000070  -0.000090  -0.002061  -0.003595  -0.024986   0.541018
    25  H   -0.000027   0.000011  -0.000086  -0.000082  -0.002090  -0.002380
    26  H    0.000023  -0.000035  -0.000074   0.002464   0.003821  -0.002766
    27  H    0.000075   0.000000  -0.000000   0.000000  -0.000022  -0.000000
              25         26         27
     1  O    0.000000   0.000000   0.005416
     2  N   -0.000000  -0.000000  -0.000249
     3  O    0.000000   0.000000   0.000004
     4  C    0.000019   0.000006  -0.066321
     5  C   -0.000001  -0.000001   0.002129
     6  N   -0.000071  -0.000067   0.000039
     7  C    0.004989  -0.004450  -0.000402
     8  H   -0.000005   0.001594   0.000009
     9  C   -0.000370   0.001045  -0.000059
    10  C    0.004097  -0.002405   0.000005
    11  C   -0.033903  -0.042322   0.000005
    12  C    0.395395   0.394654  -0.000019
    13  C   -0.034446  -0.044839   0.004872
    14  H   -0.002660  -0.000902  -0.000172
    15  N    0.000803   0.004192  -0.039865
    16  C   -0.000061  -0.000053   0.402508
    17  H   -0.000000   0.000000  -0.000059
    18  H    0.000002  -0.000001   0.000002
    19  H   -0.000027   0.000023   0.000075
    20  H    0.000011  -0.000035   0.000000
    21  H   -0.000086  -0.000074  -0.000000
    22  H   -0.000082   0.002464   0.000000
    23  H   -0.002090   0.003821  -0.000022
    24  H   -0.002380  -0.002766  -0.000000
    25  H    0.510262  -0.023102  -0.000010
    26  H   -0.023102   0.561123   0.000001
    27  H   -0.000010   0.000001   0.451792
 Mulliken charges:
               1
     1  O   -0.456667
     2  N    0.505045
     3  O   -0.485426
     4  C   -0.024588
     5  C    0.198261
     6  N   -0.792060
     7  C    0.057334
     8  H    0.178729
     9  C   -0.310896
    10  C   -0.321186
    11  C   -0.315708
    12  C   -0.312180
    13  C   -0.026393
    14  H    0.195233
    15  N   -0.499632
    16  C    0.127479
    17  H    0.289018
    18  H    0.396972
    19  H    0.189892
    20  H    0.154534
    21  H    0.172703
    22  H    0.149269
    23  H    0.191450
    24  H    0.162688
    25  H    0.183716
    26  H    0.152092
    27  H    0.240319
 Sum of Mulliken charges =  -0.00000
 Mulliken charges with hydrogens summed into heavy atoms:
               1
     1  O   -0.456667
     2  N    0.505045
     3  O   -0.485426
     4  C   -0.024588
     5  C    0.487279
     6  N   -0.395088
     7  C    0.236063
     9  C    0.033531
    10  C    0.000787
    11  C    0.038430
    12  C    0.023628
    13  C    0.168841
    15  N   -0.499632
    16  C    0.367797
 Electronic spatial extent (au):  <R**2>=           3127.0736
 Charge=             -0.0000 electrons
 Dipole moment (field-independent basis, Debye):
    X=              5.3698    Y=              4.5060    Z=              0.5439  Tot=              7.0310
 Quadrupole moment (field-independent basis, Debye-Ang):
   XX=           -105.4891   YY=            -80.1981   ZZ=            -82.2899
   XY=             -1.8032   XZ=              0.7679   YZ=              0.0956
 Traceless Quadrupole moment (field-independent basis, Debye-Ang):
   XX=            -16.1634   YY=              9.1276   ZZ=              7.0358
   XY=             -1.8032   XZ=              0.7679   YZ=              0.0956
 Octapole moment (field-independent basis, Debye-Ang**2):
  XXX=            101.6723  YYY=             36.6879  ZZZ=             -5.0259  XYY=             -1.4634
  XXY=             11.5213  XXZ=              0.3994  XZZ=             -8.2003  YZZ=             -2.8754
  YYZ=              1.0414  XYZ=             -1.3482
 Hexadecapole moment (field-independent basis, Debye-Ang**3):
 XXXX=          -3562.5021 YYYY=           -619.4926 ZZZZ=           -299.2529 XXXY=            -39.2910
 XXXZ=             20.0998 YYYX=            -19.2017 YYYZ=             12.0108 ZZZX=             18.1879
 ZZZY=              8.5805 XXYY=           -657.0712 XXZZ=           -543.7960 YYZZ=           -164.6737
 XXYZ=              2.4069 YYXZ=              9.1464 ZZXY=              2.6919
 N-N= 9.173562241935D+02 E-N=-3.380722311135D+03  KE= 6.588552448112D+02
 Calling FoFJK, ICntrl=  10002127 FMM=F ISym2X=0 I1Cent= 0 IOpClX= 0 NMat=1 NMatS=1 NMatT=0.
 -------------------------------------------------------------------
 Center     Atomic                   Forces (Hartrees/Bohr)
 Number     Number              X              Y              Z
 -------------------------------------------------------------------
      1        8           0.002325568   -0.019251730   -0.002921045
      2        7           0.039362049    0.013612758   -0.001618199
      3        8          -0.005179037    0.015881625    0.003514591
      4        6          -0.003110064    0.008103797    0.009427104
      5        6           0.003276638   -0.016455006   -0.004768264
      6        7           0.014691365   -0.009764422   -0.006773740
      7        6          -0.004455517    0.005207344    0.002968317
      8        1          -0.010246317   -0.001678447   -0.007633760
      9        6          -0.003907152    0.000232371   -0.002119735
     10        6           0.002827202   -0.000893385    0.000957972
     11        6          -0.001028507   -0.004604332   -0.002390955
     12        6           0.000786386   -0.008757645   -0.002890513
     13        6           0.008773963   -0.001706816    0.004360163
     14        1           0.000934875    0.004401252   -0.009875603
     15        7           0.000078417    0.000329969    0.002240041
     16        6          -0.021026692    0.008040221    0.002767975
     17        1           0.007234736   -0.006142571   -0.005893933
     18        1          -0.017666099   -0.001754920    0.005840184
     19        1           0.003114052    0.005865098    0.007682882
     20        1          -0.003231394   -0.007364993    0.002616780
     21        1          -0.004321583    0.002399209    0.009635578
     22        1          -0.004018208   -0.003975174   -0.007384648
     23        1           0.004005013    0.006127827    0.009285439
     24        1          -0.009390852    0.002609174   -0.002096002
     25        1          -0.000806991    0.010597431   -0.002414119
     26        1          -0.004783511   -0.004802174   -0.004351102
     27        1           0.005761658    0.003743538    0.001834590
 -------------------------------------------------------------------
 Cartesian Forces:  Max     0.039362049 RMS     0.008363640

 GradGradGradGradGradGradGradGradGradGradGradGradGradGradGradGradGradGrad
 Berny optimization.
 FormGI is forming the generalized inverse of G from B-inverse, IUseBI=4.
 Internal  Forces:  Max     0.037776136 RMS     0.006893033
 Search for a local minimum.
 Step number   1 out of a maximum of   20
 All quantities printed in internal units (Hartrees-Bohrs-Radians)
 Mixed Optimization -- RFO/linear search
 Second derivative matrix not updated -- first step.
 ITU=  0
     Eigenvalues ---    0.00231   0.00771   0.01084   0.01147   0.01217
     Eigenvalues ---    0.01531   0.01583   0.01911   0.02018   0.02089
     Eigenvalues ---    0.02674   0.03472   0.04484   0.04585   0.04835
     Eigenvalues ---    0.05050   0.05138   0.05300   0.05781   0.06153
     Eigenvalues ---    0.06531   0.07274   0.07703   0.07785   0.07994
     Eigenvalues ---    0.08050   0.08053   0.10183   0.10692   0.12000
     Eigenvalues ---    0.12756   0.13456   0.15492   0.15987   0.16000
     Eigenvalues ---    0.19931   0.21768   0.23071   0.24960   0.25000
     Eigenvalues ---    0.25000   0.25067   0.25932   0.26646   0.27979
     Eigenvalues ---    0.28079   0.28411   0.29600   0.31458   0.31608
     Eigenvalues ---    0.32049   0.32237   0.32290   0.32381   0.32388
     Eigenvalues ---    0.32405   0.32517   0.32526   0.32581   0.33338
     Eigenvalues ---    0.33392   0.33598   0.35390   0.43882   0.43949
     Eigenvalues ---    0.48792   0.66899   0.90417   0.911631000.00000
     Eigenvalues --- 1000.000001000.000001000.000001000.000001000.00000
     Eigenvalues --- 1000.000001000.000001000.000001000.000001000.00000
     Eigenvalues --- 1000.000001000.000001000.000001000.000001000.00000
     Eigenvalues --- 1000.000001000.000001000.000001000.000001000.00000
     Eigenvalues --- 1000.000001000.000001000.000001000.000001000.00000
     Eigenvalues --- 1000.000001000.000001000.000001000.000001000.00000
     Eigenvalues --- 1000.000001000.000001000.000001000.000001000.00000
     Eigenvalues --- 1000.000001000.000001000.000001000.000001000.00000
     Eigenvalues --- 1000.000001000.000001000.000001000.000001000.00000
     Eigenvalues --- 1000.000001000.000001000.000001000.000001000.00000
     Eigenvalues --- 1000.000001000.000001000.000001000.000001000.00000
     Eigenvalues --- 1000.000001000.000001000.000001000.000001000.00000
     Eigenvalues --- 1000.000001000.000001000.000001000.000001000.00000
     Eigenvalues --- 1000.000001000.000001000.000001000.000001000.00000
     Eigenvalues --- 1000.000001000.000001000.000001000.000001000.00000
     Eigenvalues --- 1000.000001000.000001000.000001000.000001000.00000
     Eigenvalues --- 1000.000001000.000001000.000001000.000001000.00000
     Eigenvalues --- 1000.000001000.000001000.000001000.000001000.00000
     Eigenvalues --- 1000.00000
 RFO step:  Lambda=-2.37755221D-02 EMin= 2.30817479D-03
 Linear search not attempted -- first point.
 Iteration  1 RMS(Cart)=  0.05516758 RMS(Int)=  0.00110281
 Iteration  2 RMS(Cart)=  0.00117552 RMS(Int)=  0.00028108
 Iteration  3 RMS(Cart)=  0.00000084 RMS(Int)=  0.00028108
 Iteration  1 RMS(Cart)=  0.00002931 RMS(Int)=  0.00002155
 Iteration  2 RMS(Cart)=  0.00001423 RMS(Int)=  0.00002400
 Iteration  3 RMS(Cart)=  0.00000728 RMS(Int)=  0.00002659
 Iteration  4 RMS(Cart)=  0.00000397 RMS(Int)=  0.00002814
 Iteration  5 RMS(Cart)=  0.00000235 RMS(Int)=  0.00002901
 Iteration  6 RMS(Cart)=  0.00000157 RMS(Int)=  0.00002952
 Iteration  7 RMS(Cart)=  0.00000121 RMS(Int)=  0.00002985
 Iteration  8 RMS(Cart)=  0.00000103 RMS(Int)=  0.00003007
 Iteration  9 RMS(Cart)=  0.00000092 RMS(Int)=  0.00003023
 Variable       Old X    -DE/DX   Delta X   Delta X   Delta X     New X
                                 (Linear)    (Quad)   (Total)
    R1        2.32402   0.01792   0.00000   0.01915   0.01915   2.34317
    R2        2.32741   0.01586   0.00000   0.01709   0.01709   2.34450
    R3        2.88767  -0.03778   0.00000  -0.11813  -0.11813   2.76954
    R4        2.64493  -0.03453   0.00000  -0.07441  -0.07415   2.57078
    R5        2.80994  -0.02214   0.00000  -0.06454  -0.06432   2.74562
    R6        2.59020  -0.02461   0.00000  -0.04679  -0.04665   2.54355
    R7        2.08369  -0.01043   0.00000  -0.02915  -0.02915   2.05454
    R8        2.82377  -0.01936   0.00000  -0.05250  -0.05256   2.77121
    R9        1.93295  -0.00661   0.00000  -0.01428  -0.01428   1.91867
   R10        2.11847  -0.01195   0.00000  -0.03533  -0.03533   2.08313
   R11        2.92751  -0.01297   0.00000  -0.04419  -0.04422   2.88329
   R12        2.90256  -0.00430   0.00000  -0.00931  -0.00931   2.89324
   R13        2.91145  -0.00464   0.00000  -0.01446  -0.01449   2.89695
   R14        2.09908  -0.00994   0.00000  -0.02847  -0.02847   2.07061
   R15        2.09892  -0.00804   0.00000  -0.02303  -0.02303   2.07589
   R16        2.90431  -0.00181   0.00000  -0.00703  -0.00706   2.89724
   R17        2.10140  -0.01057   0.00000  -0.03042  -0.03042   2.07098
   R18        2.10317  -0.00901   0.00000  -0.02598  -0.02598   2.07719
   R19        2.91766  -0.00909   0.00000  -0.02877  -0.02874   2.88891
   R20        2.10412  -0.01167   0.00000  -0.03371  -0.03371   2.07041
   R21        2.10109  -0.00995   0.00000  -0.02859  -0.02859   2.07250
   R22        2.93525  -0.01060   0.00000  -0.03639  -0.03636   2.89889
   R23        2.10152  -0.01074   0.00000  -0.03090  -0.03090   2.07063
   R24        2.09793  -0.00785   0.00000  -0.02245  -0.02245   2.07548
   R25        2.10755  -0.00922   0.00000  -0.02678  -0.02678   2.08077
   R26        2.76771  -0.00518   0.00000  -0.01060  -0.01100   2.75671
   R27        2.44261  -0.00556   0.00000  -0.00804  -0.00815   2.43446
   R28        2.08014  -0.00624   0.00000  -0.01733  -0.01733   2.06281
    A1        2.15813   0.01099   0.00000   0.04025   0.04014   2.19827
    A2        2.05391  -0.00754   0.00000  -0.02745  -0.02756   2.02634
    A3        2.07104  -0.00343   0.00000  -0.01243  -0.01254   2.05850
    A4        2.03157  -0.00762   0.00000  -0.02384  -0.02427   2.00730
    A5        2.03319  -0.00299   0.00000  -0.00685  -0.00733   2.02586
    A6        2.21765   0.01056   0.00000   0.02911   0.02921   2.24687
    A7        2.20182   0.00623   0.00000   0.01969   0.02007   2.22189
    A8        2.06377  -0.00336   0.00000  -0.01084  -0.01112   2.05265
    A9        2.01655  -0.00282   0.00000  -0.00794  -0.00824   2.00831
   A10        2.25438  -0.00567   0.00000  -0.01782  -0.01785   2.23653
   A11        2.11403  -0.01248   0.00000  -0.07132  -0.07194   2.04209
   A12        1.87346   0.01835   0.00000   0.09917   0.09931   1.97277
   A13        1.83814  -0.00168   0.00000  -0.01671  -0.01647   1.82167
   A14        2.00662  -0.00099   0.00000  -0.01128  -0.01138   1.99524
   A15        1.96774   0.00095   0.00000  -0.00325  -0.00375   1.96400
   A16        1.85187   0.00269   0.00000   0.02432   0.02418   1.87605
   A17        1.84902   0.00091   0.00000   0.02100   0.02071   1.86974
   A18        1.93643  -0.00155   0.00000  -0.00920  -0.00887   1.92755
   A19        1.91011   0.00015   0.00000  -0.00539  -0.00553   1.90458
   A20        1.92264  -0.00074   0.00000  -0.01303  -0.01300   1.90963
   A21        1.92279  -0.00166   0.00000  -0.00677  -0.00676   1.91604
   A22        1.91928  -0.00042   0.00000   0.00542   0.00536   1.92464
   A23        1.90450   0.00307   0.00000   0.02508   0.02509   1.92959
   A24        1.88432  -0.00038   0.00000  -0.00487  -0.00512   1.87920
   A25        1.94049  -0.00088   0.00000   0.00526   0.00517   1.94566
   A26        1.91892  -0.00070   0.00000  -0.00679  -0.00680   1.91212
   A27        1.90498   0.00030   0.00000  -0.00289  -0.00295   1.90203
   A28        1.91612   0.00078   0.00000   0.00711   0.00715   1.92327
   A29        1.89850   0.00173   0.00000   0.01132   0.01135   1.90984
   A30        1.88379  -0.00122   0.00000  -0.01449  -0.01458   1.86922
   A31        1.94468   0.00067   0.00000   0.00533   0.00542   1.95009
   A32        1.90238   0.00061   0.00000   0.00592   0.00591   1.90829
   A33        1.91746   0.00038   0.00000   0.00514   0.00511   1.92257
   A34        1.90660  -0.00116   0.00000  -0.01428  -0.01432   1.89228
   A35        1.91535  -0.00047   0.00000   0.00011   0.00004   1.91539
   A36        1.87600  -0.00006   0.00000  -0.00262  -0.00266   1.87334
   A37        1.94756  -0.00298   0.00000  -0.01845  -0.01844   1.92912
   A38        1.90600   0.00254   0.00000   0.01685   0.01672   1.92272
   A39        1.91080   0.00139   0.00000   0.01339   0.01333   1.92412
   A40        1.90618   0.00019   0.00000  -0.00302  -0.00289   1.90328
   A41        1.91145  -0.00020   0.00000  -0.00450  -0.00443   1.90703
   A42        1.88061  -0.00087   0.00000  -0.00377  -0.00396   1.87665
   A43        1.84673   0.00456   0.00000   0.02254   0.02254   1.86927
   A44        1.93818  -0.00433   0.00000  -0.03090  -0.03131   1.90688
   A45        1.98334   0.00086   0.00000   0.01305   0.01340   1.99674
   A46        1.88127   0.00221   0.00000   0.02968   0.02999   1.91125
   A47        1.89208  -0.00395   0.00000  -0.02910  -0.02917   1.86291
   A48        1.91771   0.00086   0.00000  -0.00315  -0.00306   1.91465
   A49        2.08577  -0.00621   0.00000  -0.01427  -0.01473   2.07104
   A50        2.25381  -0.00517   0.00000  -0.02438  -0.02423   2.22958
   A51        1.97827   0.00551   0.00000   0.02810   0.02779   2.00606
   A52        2.05110  -0.00034   0.00000  -0.00373  -0.00404   2.04707
    D1       -3.03664  -0.00067   0.00000  -0.03920  -0.03856  -3.07520
    D2        0.14414   0.00047   0.00000   0.00000  -0.00000   0.14414
    D3        0.12003  -0.00178   0.00000  -0.06606  -0.06573   0.05429
    D4       -2.98238  -0.00064   0.00000  -0.02685  -0.02718  -3.00956
    D5        3.07068   0.00073   0.00000   0.01914   0.01911   3.08979
    D6       -0.01955  -0.00029   0.00000  -0.00292  -0.00311  -0.02266
    D7       -0.11486  -0.00097   0.00000  -0.02596  -0.02649  -0.14135
    D8        3.07809  -0.00199   0.00000  -0.04802  -0.04871   3.02938
    D9       -2.72048  -0.00181   0.00000  -0.02981  -0.03047  -2.75095
   D10        0.42161   0.00044   0.00000   0.00362   0.00327   0.42488
   D11        0.46510  -0.00001   0.00000   0.01570   0.01590   0.48099
   D12       -2.67599   0.00224   0.00000   0.04912   0.04964  -2.62636
   D13       -0.10319  -0.00033   0.00000   0.00876   0.00888  -0.09431
   D14        2.69311   0.00370   0.00000   0.06663   0.06519   2.75829
   D15        2.98826   0.00064   0.00000   0.03019   0.03052   3.01878
   D16       -0.49863   0.00467   0.00000   0.08806   0.08683  -0.41180
   D17       -2.50361  -0.00065   0.00000  -0.00576  -0.00534  -2.50895
   D18        1.74781  -0.00230   0.00000  -0.01858  -0.01817   1.72963
   D19       -0.49540  -0.00007   0.00000   0.00781   0.00778  -0.48762
   D20        0.94640   0.00001   0.00000  -0.03343  -0.03422   0.91218
   D21       -1.08537  -0.00165   0.00000  -0.04625  -0.04705  -1.13242
   D22        2.95460   0.00058   0.00000  -0.01986  -0.02109   2.93351
   D23        2.94407   0.00237   0.00000   0.02965   0.02956   2.97362
   D24       -1.22693   0.00148   0.00000   0.02467   0.02459  -1.20234
   D25        0.85004  -0.00048   0.00000   0.00632   0.00631   0.85636
   D26        0.92015   0.00322   0.00000   0.04039   0.04036   0.96051
   D27        3.03234   0.00233   0.00000   0.03541   0.03540   3.06773
   D28       -1.17387   0.00037   0.00000   0.01706   0.01712  -1.15676
   D29       -1.08039   0.00142   0.00000   0.00671   0.00672  -1.07366
   D30        1.03180   0.00053   0.00000   0.00173   0.00176   1.03356
   D31        3.10877  -0.00143   0.00000  -0.01662  -0.01652   3.09225
   D32       -2.89986  -0.00094   0.00000  -0.01362  -0.01335  -2.91321
   D33       -0.86320   0.00208   0.00000   0.01876   0.01865  -0.84455
   D34        1.30937   0.00044   0.00000   0.00000  -0.00001   1.30937
   D35       -0.89822  -0.00193   0.00000  -0.02282  -0.02276  -0.92098
   D36        1.13844   0.00109   0.00000   0.00955   0.00923   1.14767
   D37       -2.97217  -0.00055   0.00000  -0.00920  -0.00942  -2.98159
   D38        1.10410   0.00098   0.00000   0.01292   0.01302   1.11712
   D39        3.14076   0.00400   0.00000   0.04529   0.04501  -3.09741
   D40       -0.96985   0.00236   0.00000   0.02654   0.02635  -0.94349
   D41        0.95666   0.00067   0.00000   0.00000   0.00001   0.95666
   D42        3.08231   0.00060   0.00000   0.00787   0.00784   3.09014
   D43       -1.13768  -0.00112   0.00000  -0.01547  -0.01544  -1.15312
   D44       -1.15756   0.00175   0.00000   0.01614   0.01621  -1.14135
   D45        0.96809   0.00168   0.00000   0.02401   0.02404   0.99213
   D46        3.03129  -0.00004   0.00000   0.00067   0.00076   3.03205
   D47        3.06185   0.00062   0.00000   0.00385   0.00381   3.06567
   D48       -1.09568   0.00055   0.00000   0.01172   0.01164  -1.08404
   D49        0.96752  -0.00117   0.00000  -0.01162  -0.01164   0.95588
   D50       -0.92193  -0.00079   0.00000   0.00000   0.00001  -0.92192
   D51        1.18342  -0.00140   0.00000  -0.01052  -0.01052   1.17290
   D52       -3.04841  -0.00090   0.00000  -0.00724  -0.00726  -3.05567
   D53       -3.04921   0.00014   0.00000   0.00023   0.00025  -3.04896
   D54       -0.94386  -0.00047   0.00000  -0.01029  -0.01028  -0.95415
   D55        1.10750   0.00003   0.00000  -0.00701  -0.00702   1.10047
   D56        1.17625   0.00016   0.00000   0.00701   0.00704   1.18329
   D57       -3.00159  -0.00046   0.00000  -0.00351  -0.00349  -3.00508
   D58       -0.95023   0.00005   0.00000  -0.00024  -0.00024  -0.95046
   D59        0.98794  -0.00084   0.00000  -0.01129  -0.01130   0.97664
   D60        3.09701  -0.00081   0.00000  -0.01565  -0.01577   3.08123
   D61       -1.13098   0.00043   0.00000  -0.00262  -0.00257  -1.13355
   D62       -1.11493  -0.00126   0.00000  -0.01265  -0.01262  -1.12755
   D63        0.99413  -0.00124   0.00000  -0.01701  -0.01709   0.97704
   D64        3.04933   0.00000   0.00000  -0.00398  -0.00389   3.04544
   D65        3.11564  -0.00024   0.00000  -0.00115  -0.00115   3.11450
   D66       -1.05848  -0.00021   0.00000  -0.00551  -0.00562  -1.06409
   D67        0.99672   0.00103   0.00000   0.00751   0.00759   1.00430
   D68       -1.05304   0.00003   0.00000  -0.00106  -0.00099  -1.05403
   D69       -3.12779   0.00158   0.00000   0.00826   0.00794  -3.11985
   D70        1.08039   0.00151   0.00000   0.01148   0.01149   1.09189
   D71        3.12118  -0.00136   0.00000  -0.00829  -0.00819   3.11299
   D72        1.04643   0.00019   0.00000   0.00103   0.00075   1.04718
   D73       -1.02857   0.00011   0.00000   0.00424   0.00430  -1.02427
   D74        1.06550  -0.00031   0.00000   0.00065   0.00080   1.06630
   D75       -1.00925   0.00124   0.00000   0.00997   0.00973  -0.99951
   D76       -3.08425   0.00117   0.00000   0.01318   0.01328  -3.07096
   D77       -1.17216   0.00390   0.00000   0.00000  -0.00001  -1.17217
   D78        3.06325   0.00033   0.00000  -0.01659  -0.01645   3.04680
   D79        1.01141  -0.00051   0.00000  -0.03362  -0.03385   0.97756
   D80        0.15052   0.00132   0.00000   0.00000  -0.00001   0.15052
   D81       -2.99159  -0.00100   0.00000  -0.03459  -0.03442  -3.02601
         Item               Value     Threshold  Converged?
 Maximum Force            0.037776     0.000450     NO 
 RMS     Force            0.006951     0.000300     NO 
 Maximum Displacement     0.291298     0.001800     NO 
 RMS     Displacement     0.055314     0.001200     NO 
 Predicted change in Energy=-1.328850D-02
 GradGradGradGradGradGradGradGradGradGradGradGradGradGradGradGradGradGrad

                          Input orientation:                          
 ---------------------------------------------------------------------
 Center     Atomic      Atomic             Coordinates (Angstroms)
 Number     Number       Type             X           Y           Z
 ---------------------------------------------------------------------
      1          8           0       -3.483187   -1.423461   -0.233486
      2          7           0       -3.128871   -0.250402   -0.044087
      3          8           0       -3.882722    0.716906    0.143665
      4          6           0       -1.683581   -0.007871   -0.028704
      5          6           0       -1.317897    1.270049    0.260909
      6          7           0       -0.067665    1.750364    0.394713
      7          6           0        1.195855    1.006426    0.370450
      8          1           0        1.830277    1.520342    1.111104
      9          6           0        1.925890    1.051416   -0.968579
     10          6           0        3.326049    0.451048   -0.797674
     11          6           0        3.262688   -0.961136   -0.204139
     12          6           0        2.442553   -0.996841    1.085502
     13          6           0        1.033582   -0.440918    0.842616
     14          1           0        0.465644   -0.453658    1.785854
     15          7           0        0.395235   -1.323507   -0.127752
     16          6           0       -0.844016   -1.127273   -0.419918
     17          1           0       -2.110404    1.994542    0.431429
     18          1           0        0.057689    2.750318    0.271222
     19          1           0        1.357185    0.482737   -1.712741
     20          1           0        1.991791    2.089646   -1.321374
     21          1           0        3.837616    0.431573   -1.766670
     22          1           0        3.914864    1.100318   -0.134359
     23          1           0        2.797902   -1.638738   -0.928847
     24          1           0        4.275183   -1.335136   -0.009791
     25          1           0        2.362495   -2.025693    1.453841
     26          1           0        2.936562   -0.403442    1.866584
     27          1           0       -1.329708   -1.864636   -1.061767
 ---------------------------------------------------------------------
                    Distance matrix (angstroms):
                    1          2          3          4          5
     1  O    0.000000
     2  N    1.239952   0.000000
     3  O    2.209761   1.240656   0.000000
     4  C    2.298785   1.465579   2.321903   0.000000
     5  C    3.491118   2.384202   2.626412   1.360397   0.000000
     6  N    4.704635   3.683285   3.960520   2.425253   1.345988
     7  C    5.306838   4.522689   5.091875   3.078843   2.529910
     8  H    6.221479   5.391024   5.849769   3.997723   3.270547
     9  C    5.993621   5.300945   5.923593   3.877336   3.475859
    10  C    7.085040   6.536506   7.274831   5.089038   4.832969
    11  C    6.761763   6.432945   7.348038   5.040343   5.116269
    12  C    6.085732   5.733577   6.620656   4.386855   4.467631
    13  C    4.746007   4.260111   5.098934   2.886122   2.965677
    14  H    4.539991   4.038630   4.793254   2.847896   2.911638
    15  N    3.881151   3.684817   4.747407   2.462151   3.132477
    16  C    2.662275   2.476027   3.598938   1.452920   2.536778
    17  H    3.742912   2.510610   2.203694   2.098466   1.087214
    18  H    5.496632   4.388382   4.435974   3.275604   2.020777
    19  H    5.408419   4.842169   5.563965   3.510404   3.416317
    20  H    6.595514   5.773080   6.208111   4.424808   3.758908
    21  H    7.706229   7.208628   7.958291   5.804933   5.602984
    22  H    7.817318   7.172642   7.811956   5.708050   5.250413
    23  H    6.323128   6.151171   7.164501   4.853212   5.178451
    24  H    7.762097   7.483170   8.413431   6.104822   6.175986
    25  H    6.114063   5.962428   6.945585   4.758180   5.082351
    26  H    6.831100   6.361098   7.122237   5.009423   4.845533
    27  H    2.349076   2.622673   3.825612   2.154071   3.402332
                    6          7          8          9         10
     6  N    0.000000
     7  C    1.466463   0.000000
     8  H    2.041644   1.102347   0.000000
     9  C    2.514231   1.525770   2.134037   0.000000
    10  C    3.824565   2.492124   2.650312   1.533001   0.000000
    11  C    4.336139   2.910885   3.152681   2.534119   1.533155
    12  C    3.784907   2.465489   2.590704   2.946447   2.534423
    13  C    2.493006   1.531039   2.133858   2.510718   2.956613
    14  H    2.660339   2.160653   2.492827   3.461859   3.959170
    15  N    3.152131   2.513521   3.417833   2.947907   3.491061
    16  C    3.089844   3.055884   4.062725   3.566524   4.474733
    17  H    2.057609   3.451296   4.026884   4.375064   5.783432
    18  H    1.015319   2.084809   2.315235   2.813104   4.136587
    19  H    2.842259   2.154057   3.045412   1.095718   2.171353
    20  H    2.702115   2.160821   2.503426   1.098512   2.177041
    21  H    4.654245   3.446250   3.673745   2.162371   1.095916
    22  H    4.069769   2.767067   2.464366   2.157390   1.099201
    23  H    4.631338   3.354343   3.882973   2.828234   2.159479
    24  H    5.342683   3.887127   3.922719   3.483401   2.170730
    25  H    4.613679   3.424695   3.602095   3.940475   3.483103
    26  H    3.978777   2.693735   2.344261   3.343086   2.824912
    27  H    4.096622   4.083224   5.115169   4.371609   5.206555
                   11         12         13         14         15
    11  C    0.000000
    12  C    1.528748   0.000000
    13  C    2.516989   1.534029   0.000000
    14  H    3.470023   2.166498   1.101097   0.000000
    15  N    2.891268   2.402125   1.458788   2.103208   0.000000
    16  C    4.115723   3.617297   2.364413   2.652244   1.288260
    17  H    6.165233   5.486857   3.998148   3.803179   4.195279
    18  H    4.926751   4.515731   3.385683   3.567352   4.107209
    19  H    2.826940   3.346242   2.736367   3.729859   2.588447
    20  H    3.488648   3.939878   3.464790   4.295624   3.952637
    21  H    2.170641   3.481588   3.928386   4.977375   4.197183
    22  H    2.163284   2.837929   3.410525   4.242545   4.273495
    23  H    1.095614   2.143806   2.772305   3.770072   2.552240
    24  H    1.096719   2.161630   3.469034   4.302782   3.881757
    25  H    2.166224   1.095728   2.156645   2.485875   2.620040
    26  H    2.169165   1.098298   2.161308   2.472747   3.358905
    27  H    4.758354   4.426487   3.352430   3.650082   2.034855
                   16         17         18         19         20
    16  C    0.000000
    17  H    3.474803   0.000000
    18  H    4.040601   2.301628   0.000000
    19  H    3.018081   4.348241   3.281269   0.000000
    20  H    4.382122   4.461992   2.591062   1.771453   0.000000
    21  H    5.114824   6.530961   4.880310   2.481544   2.520826
    22  H    5.262191   6.117485   4.214831   3.068292   2.466979
    23  H    3.712704   6.256400   5.311567   2.681568   3.834675
    24  H    5.139806   7.215064   5.878534   3.836588   4.320099
    25  H    3.820975   6.100365   5.433323   4.162945   4.977475
    26  H    4.477142   5.769044   4.558431   4.011398   4.155858
    27  H    1.091591   4.210983   4.999953   3.626751   5.170696
                   21         22         23         24         25
    21  H    0.000000
    22  H    1.765680   0.000000
    23  H    2.463562   3.062881   0.000000
    24  H    2.529694   2.465113   1.766124   0.000000
    25  H    4.311129   3.834603   2.452859   2.505486   0.000000
    26  H    3.835320   2.687404   3.059349   2.486110   1.769636
    27  H    5.698307   6.095620   4.135924   5.727288   4.470636
                   26         27
    26  H    0.000000
    27  H    5.376932   0.000000
 Symmetry turned off by external request.
 Stoichiometry    C9H13N3O2
 Framework group  C1[X(C9H13N3O2)]
 Deg. of freedom    75
 Full point group                 C1      NOp   1
 Rotational constants (GHZ):           1.6874022           0.4214596           0.3721730
 Standard basis: 6-31G(d) (6D, 7F)
   236 basis functions,   444 primitive gaussians,   236 cartesian basis functions
    52 alpha electrons       52 beta electrons
       nuclear repulsion energy       932.1072817955 Hartrees.
 NAtoms=   27 NActive=   27 NUniq=   27 SFac= 1.00D+00 NAtFMM=   60 NAOKFM=F Big=F
 Integral buffers will be    131072 words long.
 Raffenetti 1 integral format.
 Two-electron integral symmetry is turned off.
 One-electron integrals computed using PRISM.
 NBasis=   236 RedAO= T EigKep=  1.01D-03  NBF=   236
 NBsUse=   236 1.00D-06 EigRej= -1.00D+00 NBFU=   236
 Initial guess from the checkpoint file:  "/home/alexey/tmp/Gau-1463706.chk"
 B after Tr=     0.055737    0.004422    0.001914
         Rot=    0.999999   -0.001210    0.000101    0.000895 Ang=  -0.17 deg.
 ExpMin= 1.61D-01 ExpMax= 5.48D+03 ExpMxC= 8.25D+02 IAcc=3 IRadAn=         5 AccDes= 0.00D+00
 Harris functional with IExCor=  205 and IRadAn=       5 diagonalized for initial guess.
 HarFok:  IExCor=  205 AccDes= 0.00D+00 IRadAn=         5 IDoV= 1 UseB2=F ITyADJ=14
 ICtDFT=  3500011 ScaDFX=  1.000000  1.000000  1.000000  1.000000
 FoFCou: FMM=F IPFlag=           0 FMFlag=      100000 FMFlg1=           0
         NFxFlg=           0 DoJE=T BraDBF=F KetDBF=T FulRan=T
         wScrn=  0.000000 ICntrl=       500 IOpCl=  0 I1Cent=   200000004 NGrid=           0
         NMat0=    1 NMatS0=      1 NMatT0=    0 NMatD0=    1 NMtDS0=    0 NMtDT0=    0
 Symmetry not used in FoFCou.
 Keep R1 ints in memory in canonical form, NReq=397720213.
 Requested convergence on RMS density matrix=1.00D-08 within 128 cycles.
 Requested convergence on MAX density matrix=1.00D-06.
 Requested convergence on             energy=1.00D-06.
 No special actions if energy rises.
 SCF Done:  E(RHF) =  -661.298474966     A.U. after   15 cycles
            NFock= 15  Conv=0.40D-08     -V/T= 2.0024
 ExpMin= 1.61D-01 ExpMax= 5.48D+03 ExpMxC= 8.25D+02 IAcc=3 IRadAn=         5 AccDes= 0.00D+00
 HarFok:  IExCor=  205 AccDes= 0.00D+00 IRadAn=         5 IDoV=-2 UseB2=F ITyADJ=14
 ICtDFT= 12500011 ScaDFX=  1.000000  1.000000  1.000000  1.000000
 Range of M.O.s used for correlation:    15   236
 NBasis=   236 NAE=    52 NBE=    52 NFC=    14 NFV=     0
 NROrb=    222 NOA=    38 NOB=    38 NVA=   184 NVB=   184
 Fully direct method using O(ONN) memory.
 JobTyp=1 Pass  1:  I=  15 to  52 NPSUse=  4 ParTrn=T ParDer=T DoDerP=T.
 Spin components of T(2) and E(2):
     alpha-alpha T2 =       0.9125014787D-01 E2=     -0.2723364145D+00
     alpha-beta  T2 =       0.4912397650D+00 E2=     -0.1488002376D+01
     beta-beta   T2 =       0.9125014787D-01 E2=     -0.2723364145D+00
 ANorm=    0.1293731062D+01
 E2 =    -0.2032675205D+01 EUMP2 =    -0.66333115017085D+03
          IDoAtm=111111111111111111111111111
          Differentiating once with respect to electric field.
                with respect to dipole field.
          Differentiating once with respect to nuclear coordinates.
 Keep R1 ints in memory in canonical form, NReq=397723379.
          There are     1 degrees of freedom in the 1st order CPHF.  IDoFFX=0 NUNeed=     1.
 LinEq1:  Iter=  0 NonCon=     1 RMS=4.57D-03 Max=1.06D-01 NDo=     1
 AX will form     1 AO Fock derivatives at one time.
 LinEq1:  Iter=  1 NonCon=     1 RMS=1.53D-03 Max=2.75D-02 NDo=     1
 LinEq1:  Iter=  2 NonCon=     1 RMS=6.42D-04 Max=1.79D-02 NDo=     1
 LinEq1:  Iter=  3 NonCon=     1 RMS=2.80D-04 Max=8.21D-03 NDo=     1
 LinEq1:  Iter=  4 NonCon=     1 RMS=8.71D-05 Max=1.93D-03 NDo=     1
 LinEq1:  Iter=  5 NonCon=     1 RMS=3.64D-05 Max=1.79D-03 NDo=     1
 LinEq1:  Iter=  6 NonCon=     1 RMS=1.41D-05 Max=5.30D-04 NDo=     1
 LinEq1:  Iter=  7 NonCon=     1 RMS=5.35D-06 Max=9.71D-05 NDo=     1
 LinEq1:  Iter=  8 NonCon=     1 RMS=2.13D-06 Max=5.18D-05 NDo=     1
 LinEq1:  Iter=  9 NonCon=     1 RMS=7.55D-07 Max=2.27D-05 NDo=     1
[...]
    26  H    2.175733   1.098787   2.166922   2.497085   3.362675
    27  H    4.723752   4.418558   3.356611   3.656662   2.029395
                   16         17         18         19         20
    16  C    0.000000
    17  H    3.463918   0.000000
    18  H    4.088212   2.235969   0.000000
    19  H    2.990433   4.303299   3.511892   0.000000
    20  H    4.374889   4.449143   2.881944   1.768541   0.000000
    21  H    5.096186   6.511112   5.086399   2.499077   2.521018
    22  H    5.248474   6.100568   4.313154   3.070184   2.461423
    23  H    3.694702   6.234988   5.421091   2.704252   3.842976
    24  H    5.133573   7.200899   5.936535   3.849625   4.317122
    25  H    3.821495   6.088442   5.369527   4.171614   4.985069
    26  H    4.495042   5.781275   4.484916   4.035951   4.182158
    27  H    1.089697   4.215254   5.079225   3.582988   5.147609
                   21         22         23         24         25
    21  H    0.000000
    22  H    1.758847   0.000000
    23  H    2.469460   3.062283   0.000000
    24  H    2.517369   2.459889   1.764572   0.000000
    25  H    4.312008   3.839506   2.444116   2.519659   0.000000
    26  H    3.846684   2.704348   3.060422   2.491779   1.767983
    27  H    5.652490   6.060161   4.090103   5.694480   4.454506
                   26         27
    26  H    0.000000
    27  H    5.378396   0.000000
 Symmetry turned off by external request.
 Stoichiometry    C9H13N3O2
 Framework group  C1[X(C9H13N3O2)]
 Deg. of freedom    75
 Full point group                 C1      NOp   1
 Rotational constants (GHZ):           1.6800568           0.4193545           0.3721551

 **********************************************************************

            Population analysis using the SCF Density.

 **********************************************************************

 Alpha  occ. eigenvalues --  -20.59237 -20.58903 -15.84722 -15.64135 -15.56110
 Alpha  occ. eigenvalues --  -11.35017 -11.29623 -11.29558 -11.28626 -11.27133
 Alpha  occ. eigenvalues --  -11.23728 -11.23207 -11.22691 -11.22088  -1.57123
 Alpha  occ. eigenvalues --   -1.36714  -1.30977  -1.23068  -1.14702  -1.09818
 Alpha  occ. eigenvalues --   -1.02806  -1.01307  -0.94481  -0.89685  -0.85565
 Alpha  occ. eigenvalues --   -0.82448  -0.78610  -0.77412  -0.75201  -0.72020
 Alpha  occ. eigenvalues --   -0.69773  -0.69440  -0.67821  -0.64893  -0.63780
 Alpha  occ. eigenvalues --   -0.62367  -0.60280  -0.57700  -0.57001  -0.55077
 Alpha  occ. eigenvalues --   -0.54582  -0.50761  -0.50110  -0.48656  -0.48103
 Alpha  occ. eigenvalues --   -0.47372  -0.46146  -0.46044  -0.43678  -0.41695
 Alpha  occ. eigenvalues --   -0.39847  -0.33829
 Alpha virt. eigenvalues --    0.07468   0.11801   0.17307   0.21849   0.24113
 Alpha virt. eigenvalues --    0.25665   0.27134   0.28694   0.29045   0.29636
 Alpha virt. eigenvalues --    0.30683   0.31799   0.32036   0.32767   0.33951
 Alpha virt. eigenvalues --    0.34387   0.35851   0.37313   0.38581   0.40293
 Alpha virt. eigenvalues --    0.41386   0.42444   0.45027   0.46117   0.46731
 Alpha virt. eigenvalues --    0.47079   0.49005   0.53997   0.57581   0.59407
 Alpha virt. eigenvalues --    0.63917   0.69544   0.69908   0.72863   0.74243
 Alpha virt. eigenvalues --    0.74870   0.75781   0.76677   0.78662   0.79441
 Alpha virt. eigenvalues --    0.81387   0.84694   0.85720   0.85808   0.88530
 Alpha virt. eigenvalues --    0.89424   0.91053   0.92112   0.92855   0.94527
 Alpha virt. eigenvalues --    0.95643   0.98039   0.99639   1.01677   1.02471
 Alpha virt. eigenvalues --    1.03153   1.05873   1.06971   1.07900   1.09013
 Alpha virt. eigenvalues --    1.10282   1.11421   1.11856   1.12443   1.13917
 Alpha virt. eigenvalues --    1.14766   1.14991   1.15833   1.16904   1.18726
 Alpha virt. eigenvalues --    1.19137   1.21339   1.22577   1.23914   1.24536
 Alpha virt. eigenvalues --    1.24831   1.26039   1.26910   1.27487   1.29559
 Alpha virt. eigenvalues --    1.30008   1.33127   1.36069   1.37184   1.40863
 Alpha virt. eigenvalues --    1.41849   1.46489   1.48741   1.51702   1.54290
 Alpha virt. eigenvalues --    1.56375   1.58776   1.59557   1.63471   1.65630
 Alpha virt. eigenvalues --    1.68033   1.68628   1.72990   1.75225   1.77375
 Alpha virt. eigenvalues --    1.81580   1.84600   1.87688   1.90653   1.93495
 Alpha virt. eigenvalues --    1.95811   1.96960   1.99721   2.01569   2.02522
 Alpha virt. eigenvalues --    2.05106   2.05608   2.08498   2.09563   2.12395
 Alpha virt. eigenvalues --    2.13265   2.15300   2.18825   2.20015   2.22453
 Alpha virt. eigenvalues --    2.22638   2.24495   2.25493   2.28217   2.29551
 Alpha virt. eigenvalues --    2.31996   2.33728   2.34700   2.36401   2.38468
 Alpha virt. eigenvalues --    2.40485   2.41929   2.43872   2.45142   2.47367
 Alpha virt. eigenvalues --    2.50723   2.51954   2.53118   2.55571   2.61512
 Alpha virt. eigenvalues --    2.62313   2.65195   2.67628   2.70320   2.70497
 Alpha virt. eigenvalues --    2.72273   2.72652   2.76989   2.78446   2.83810
 Alpha virt. eigenvalues --    2.88564   2.88956   2.92946   2.93140   2.96063
 Alpha virt. eigenvalues --    2.99440   3.01346   3.04319   3.05732   3.07679
 Alpha virt. eigenvalues --    3.09418   3.15051   3.21216   3.25217   3.27460
 Alpha virt. eigenvalues --    3.33456   3.37795   3.38793   3.52166   3.65804
 Alpha virt. eigenvalues --    4.13680   4.28072   4.34725   4.38926   4.46304
 Alpha virt. eigenvalues --    4.56309   4.61875   4.62356   4.73468   4.79745
 Alpha virt. eigenvalues --    4.99415   5.00901   5.05025   5.11168
          Condensed to atoms (all electrons):
               1          2          3          4          5          6
     1  O    8.316104   0.307009  -0.082570  -0.085482   0.004640  -0.000016
     2  N    0.307009   5.722145   0.301287   0.264206  -0.053636   0.000970
     3  O   -0.082570   0.301287   8.353641  -0.092665   0.003650   0.000784
     4  C   -0.085482   0.264206  -0.092665   5.225700   0.560340  -0.047283
     5  C    0.004640  -0.053636   0.003650   0.560340   4.709897   0.317416
     6  N   -0.000016   0.000970   0.000784  -0.047283   0.317416   7.195591
     7  C    0.000004  -0.000140   0.000002   0.004635  -0.030201   0.169295
     8  H   -0.000000   0.000002  -0.000000  -0.000262   0.003096  -0.050655
     9  C   -0.000000  -0.000004  -0.000000   0.000855   0.000625  -0.061677
    10  C    0.000000   0.000000   0.000000  -0.000038  -0.000052   0.003750
    11  C   -0.000000  -0.000000  -0.000000  -0.000028   0.000025  -0.000190
    12  C   -0.000000   0.000002  -0.000000  -0.000127  -0.000176   0.003873
    13  C   -0.000025  -0.000039  -0.000004  -0.011558  -0.000578  -0.047707
    14  H   -0.000004  -0.000104   0.000001   0.002647   0.006074  -0.006959
    15  N    0.000382   0.002361  -0.000016  -0.063526  -0.006390   0.001596
    16  C    0.000835  -0.027272   0.002547   0.328483  -0.050329  -0.001859
    17  H    0.000220  -0.007228   0.017384  -0.023148   0.374520  -0.034187
    18  H    0.000001  -0.000050   0.000012   0.001506  -0.031442   0.338679
    19  H    0.000001  -0.000004   0.000000  -0.001226   0.001233  -0.000354
    20  H    0.000000  -0.000000   0.000000  -0.000079   0.000153  -0.000427
    21  H   -0.000000   0.000000   0.000000   0.000001   0.000001  -0.000077
    22  H   -0.000000   0.000000  -0.000000  -0.000000  -0.000003  -0.000117
    23  H    0.000000  -0.000000   0.000000   0.000041  -0.000000  -0.000031
    24  H    0.000000   0.000000   0.000000   0.000000  -0.000000   0.000006
    25  H    0.000000  -0.000000   0.000000   0.000024   0.000000  -0.000090
    26  H    0.000000  -0.000000   0.000000   0.000006  -0.000002  -0.000060
    27  H    0.006128  -0.000882   0.000018  -0.063427   0.002215   0.000017
               7          8          9         10         11         12
     1  O    0.000004  -0.000000  -0.000000   0.000000  -0.000000  -0.000000
     2  N   -0.000140   0.000002  -0.000004   0.000000  -0.000000   0.000002
     3  O    0.000002  -0.000000  -0.000000   0.000000  -0.000000  -0.000000
     4  C    0.004635  -0.000262   0.000855  -0.000038  -0.000028  -0.000127
     5  C   -0.030201   0.003096   0.000625  -0.000052   0.000025  -0.000176
     6  N    0.169295  -0.050655  -0.061677   0.003750  -0.000190   0.003873
     7  C    5.017610   0.418400   0.350546  -0.054687  -0.009032  -0.061081
     8  H    0.418400   0.538051  -0.055041   0.000776  -0.000325  -0.002227
     9  C    0.350546  -0.055041   5.158236   0.324777  -0.050409  -0.005343
    10  C   -0.054687   0.000776   0.324777   5.119320   0.337007  -0.060994
    11  C   -0.009032  -0.000325  -0.050409   0.337007   5.119929   0.335977
    12  C   -0.061081  -0.002227  -0.005343  -0.060994   0.335977   5.118648
    13  C    0.338610  -0.037916  -0.060250  -0.000281  -0.050692   0.371996
    14  H   -0.046590  -0.000744   0.004422  -0.000405   0.004197  -0.036332
    15  N   -0.057964   0.003900  -0.014626   0.001561  -0.013069  -0.082081
    16  C   -0.001780   0.000010  -0.001273  -0.000029   0.000029   0.002609
    17  H    0.001616  -0.000045  -0.000070   0.000001   0.000000   0.000000
    18  H   -0.021221  -0.004474   0.001329  -0.000083   0.000004  -0.000114
    19  H   -0.036847   0.004361   0.390231  -0.032073  -0.002211   0.000689
    20  H   -0.042418  -0.002078   0.399486  -0.035301   0.003931  -0.000415
    21  H    0.004600  -0.000076  -0.036361   0.402433  -0.034894   0.004349
    22  H   -0.004847   0.003558  -0.046956   0.397753  -0.045403  -0.001020
    23  H    0.000578   0.000035  -0.001958  -0.039015   0.399177  -0.037863
    24  H   -0.000130  -0.000102   0.004388  -0.038435   0.402341  -0.038692
    25  H    0.005152  -0.000025  -0.000423   0.004190  -0.033399   0.398273
    26  H   -0.003907   0.001685   0.000969  -0.002232  -0.041480   0.396737
    27  H   -0.000408   0.000009  -0.000058   0.000007   0.000012  -0.000036
              13         14         15         16         17         18
     1  O   -0.000025  -0.000004   0.000382   0.000835   0.000220   0.000001
     2  N   -0.000039  -0.000104   0.002361  -0.027272  -0.007228  -0.000050
     3  O   -0.000004   0.000001  -0.000016   0.002547   0.017384   0.000012
     4  C   -0.011558   0.002647  -0.063526   0.328483  -0.023148   0.001506
     5  C   -0.000578   0.006074  -0.006390  -0.050329   0.374520  -0.031442
     6  N   -0.047707  -0.006959   0.001596  -0.001859  -0.034187   0.338679
     7  C    0.338610  -0.046590  -0.057964  -0.001780   0.001616  -0.021221
     8  H   -0.037916  -0.000744   0.003900   0.000010  -0.000045  -0.004474
     9  C   -0.060250   0.004422  -0.014626  -0.001273  -0.000070   0.001329
    10  C   -0.000281  -0.000405   0.001561  -0.000029   0.000001  -0.000083
    11  C   -0.050692   0.004197  -0.013069   0.000029   0.000000   0.000004
    12  C    0.371996  -0.036332  -0.082081   0.002609   0.000000  -0.000114
    13  C    5.040224   0.403086   0.244772  -0.071095  -0.000009   0.002971
    14  H    0.403086   0.526778  -0.037366  -0.004540   0.000093  -0.000108
    15  N    0.244772  -0.037366   6.965113   0.585239  -0.000080  -0.000132
    16  C   -0.071095  -0.004540   0.585239   4.709912   0.002014  -0.000197
    17  H   -0.000009   0.000093  -0.000080   0.002014   0.376518  -0.002818
    18  H    0.002971  -0.000108  -0.000132  -0.000197  -0.002818   0.310609
    19  H   -0.007546   0.000106   0.007693   0.003003   0.000016  -0.000149
    20  H    0.004340  -0.000066   0.000126  -0.000036   0.000002   0.000806
    21  H   -0.000433   0.000010  -0.000041   0.000004  -0.000000   0.000001
    22  H    0.000045  -0.000055   0.000019  -0.000002   0.000000   0.000001
    23  H   -0.007528   0.000003   0.008592   0.000106   0.000000   0.000000
    24  H    0.004700  -0.000057   0.000136   0.000007   0.000000  -0.000000
    25  H   -0.035560  -0.002818   0.000409  -0.000022  -0.000000   0.000002
    26  H   -0.047428  -0.001046   0.004902  -0.000061   0.000000  -0.000000
    27  H    0.005061  -0.000174  -0.040317   0.403682  -0.000079   0.000001
              19         20         21         22         23         24
     1  O    0.000001   0.000000  -0.000000  -0.000000   0.000000   0.000000
     2  N   -0.000004  -0.000000   0.000000   0.000000  -0.000000   0.000000
     3  O    0.000000   0.000000   0.000000  -0.000000   0.000000   0.000000
     4  C   -0.001226  -0.000079   0.000001  -0.000000   0.000041   0.000000
     5  C    0.001233   0.000153   0.000001  -0.000003  -0.000000  -0.000000
     6  N   -0.000354  -0.000427  -0.000077  -0.000117  -0.000031   0.000006
     7  C   -0.036847  -0.042418   0.004600  -0.004847   0.000578  -0.000130
     8  H    0.004361  -0.002078  -0.000076   0.003558   0.000035  -0.000102
     9  C    0.390231   0.399486  -0.036361  -0.046956  -0.001958   0.004388
    10  C   -0.032073  -0.035301   0.402433   0.397753  -0.039015  -0.038435
    11  C   -0.002211   0.003931  -0.034894  -0.045403   0.399177   0.402341
    12  C    0.000689  -0.000415   0.004349  -0.001020  -0.037863  -0.038692
    13  C   -0.007546   0.004340  -0.000433   0.000045  -0.007528   0.004700
    14  H    0.000106  -0.000066   0.000010  -0.000055   0.000003  -0.000057
    15  N    0.007693   0.000126  -0.000041   0.000019   0.008592   0.000136
    16  C    0.003003  -0.000036   0.000004  -0.000002   0.000106   0.000007
    17  H    0.000016   0.000002  -0.000000   0.000000   0.000000   0.000000
    18  H   -0.000149   0.000806   0.000001   0.000001   0.000000  -0.000000
    19  H    0.504923  -0.024735  -0.002788   0.003959   0.001513  -0.000066
    20  H   -0.024735   0.541157  -0.002692  -0.002990  -0.000045  -0.000083
    21  H   -0.002788  -0.002692   0.524029  -0.027402  -0.002898  -0.002242
    22  H    0.003959  -0.002990  -0.027402   0.571320   0.004137  -0.003656
    23  H    0.001513  -0.000045  -0.002898   0.004137   0.498944  -0.025450
    24  H   -0.000066  -0.000083  -0.002242  -0.003656  -0.025450   0.538123
    25  H   -0.000029   0.000012  -0.000087  -0.000080  -0.002317  -0.002292
    26  H    0.000019  -0.000030  -0.000081   0.002380   0.004067  -0.003034
    27  H    0.000083   0.000000  -0.000000   0.000000  -0.000035  -0.000000
              25         26         27
     1  O    0.000000   0.000000   0.006128
     2  N   -0.000000  -0.000000  -0.000882
     3  O    0.000000   0.000000   0.000018
     4  C    0.000024   0.000006  -0.063427
     5  C    0.000000  -0.000002   0.002215
     6  N   -0.000090  -0.000060   0.000017
     7  C    0.005152  -0.003907  -0.000408
     8  H   -0.000025   0.001685   0.000009
     9  C   -0.000423   0.000969  -0.000058
    10  C    0.004190  -0.002232   0.000007
    11  C   -0.033399  -0.041480   0.000012
    12  C    0.398273   0.396737  -0.000036
    13  C   -0.035560  -0.047428   0.005061
    14  H   -0.002818  -0.001046  -0.000174
    15  N    0.000409   0.004902  -0.040317
    16  C   -0.000022  -0.000061   0.403682
    17  H   -0.000000   0.000000  -0.000079
    18  H    0.000002  -0.000000   0.000001
    19  H   -0.000029   0.000019   0.000083
    20  H    0.000012  -0.000030   0.000000
    21  H   -0.000087  -0.000081  -0.000000
    22  H   -0.000080   0.002380   0.000000
    23  H   -0.002317   0.004067  -0.000035
    24  H   -0.002292  -0.003034  -0.000000
    25  H    0.506114  -0.024078  -0.000013
    26  H   -0.024078   0.562335   0.000001
    27  H   -0.000013   0.000001   0.439318
 Mulliken charges:
               1
     1  O   -0.467227
     2  N    0.491378
     3  O   -0.504072
     4  C    0.000405
     5  C    0.188923
     6  N   -0.780288
     7  C    0.060205
     8  H    0.180085
     9  C   -0.301415
    10  C   -0.327950
    11  C   -0.321496
    12  C   -0.306651
    13  C   -0.037155
    14  H    0.189952
    15  N   -0.511195
    16  C    0.120018
    17  H    0.295278
    18  H    0.404866
    19  H    0.190198
    20  H    0.161381
    21  H    0.174644
    22  H    0.149360
    23  H    0.199947
    24  H    0.164540
    25  H    0.187056
    26  H    0.150338
    27  H    0.248876
 Sum of Mulliken charges =  -0.00000
 Mulliken charges with hydrogens summed into heavy atoms:
               1
     1  O   -0.467227
     2  N    0.491378
     3  O   -0.504072
     4  C    0.000405
     5  C    0.484202
     6  N   -0.375423
     7  C    0.240290
     9  C    0.050164
    10  C   -0.003946
    11  C    0.042990
    12  C    0.030743
    13  C    0.152797
    15  N   -0.511195
    16  C    0.368894
 Electronic spatial extent (au):  <R**2>=           3005.2557
 Charge=             -0.0000 electrons
 Dipole moment (field-independent basis, Debye):
    X=              5.4153    Y=              4.7958    Z=              1.2823  Tot=              7.3464
 Quadrupole moment (field-independent basis, Debye-Ang):
   XX=           -106.1381   YY=            -79.2252   ZZ=            -81.5001
   XY=             -1.7650   XZ=             -0.1352   YZ=              1.8575
 Traceless Quadrupole moment (field-independent basis, Debye-Ang):
   XX=            -17.1836   YY=              9.7292   ZZ=              7.4544
   XY=             -1.7650   XZ=             -0.1352   YZ=              1.8575
 Octapole moment (field-independent basis, Debye-Ang**2):
  XXX=             92.3711  YYY=             36.2795  ZZZ=             -1.4798  XYY=             -4.5769
  XXY=              9.5315  XXZ=              4.9444  XZZ=             -9.7614  YZZ=             -0.3895
  YYZ=              8.0062  XYZ=              0.2548
 Hexadecapole moment (field-independent basis, Debye-Ang**3):
 XXXX=          -3381.8942 YYYY=           -601.0442 ZZZZ=           -303.8317 XXXY=            -20.8668
 XXXZ=            -13.6089 YYYX=             -8.9512 YYYZ=             25.0058 ZZZX=              1.8042
 ZZZY=              7.0769 XXYY=           -627.7303 XXZZ=           -523.7927 YYZZ=           -157.3168
 XXYZ=             -4.2904 YYXZ=              1.6567 ZZXY=              4.6947
 N-N= 9.312487293527D+02 E-N=-3.409214722272D+03  KE= 6.596298824428D+02
 Unable to Open any file for archive entry.
 1\1\GINC-LOTUS\FOpt\RMP2-FC\6-31G(d)\C9H13N3O2\ALEXEY\02-Jul-2023\0\\#
 MP2/6-31G* SCF=Tight Opt=(ModRedun, MaxCycle=20 ) NoSymm\\MolName:\\0,
 1\O,-3.5065910967,-1.3904219847,-0.3713800137\N,-3.121082109,-0.232387
 9427,-0.1186505061\O,-3.8954585018,0.7285260997,0.0552998963\C,-1.6866
 121114,-0.0237802176,-0.0096363917\C,-1.3014267132,1.2607292125,0.2752
 645375\N,-0.0572027736,1.750153216,0.3864827638\C,1.2056958959,1.02398
 86669,0.35944987\H,1.8534934754,1.5530713257,1.0746865206\C,1.90896026
 39,1.03505142,-0.9964938629\C,3.3073318463,0.4283542568,-0.8325702533\
 C,3.2593912667,-0.9677470106,-0.2059339537\C,2.4645584142,-0.978271067
 3,1.1016209761\C,1.0548739917,-0.4246224683,0.8652588417\H,0.478405246
 7,-0.4033181097,1.8037206864\N,0.4083892201,-1.3178119912,-0.090983785
 3\C,-0.8388995697,-1.1379900994,-0.386382404\H,-2.0961802798,1.9876210
 728,0.4189310106\H,0.0018682263,2.7352359225,0.615967796\H,1.314672201
 8,0.4576023132,-1.7126192968\H,1.9749262774,2.0629899539,-1.3741905914
 \H,3.8111251752,0.3902189805,-1.8051705269\H,3.9072254167,1.0946526425
 ,-0.196418917\H,2.781601587,-1.6645400453,-0.9016881153\H,4.2785629675
 ,-1.3312698709,-0.0289035289\H,2.3792044347,-2.0001445971,1.4856012955
 \H,2.974516858,-0.3802774808,1.8695271948\H,-1.3003396103,-1.892642197
 5,-1.0227892422\\Version=ES64L-G16RevC.02\HF=-661.3003853\MP2=-663.334
 6494\RMSD=7.986e-09\RMSF=3.288e-05\Dipole=1.9790572,1.6918687,0.471623
 3\PG=C01 [X(C9H13N3O2)]\\@
 The archive entry for this job was punched.


 VIRTUE IS LEARNED AT YOUR MOTHER'S KNEE,
 VICES ARE PICKED UP AT SOME OTHER JOINT.
 Job cpu time:       0 days  1 hours  0 minutes 20.9 seconds.
 Elapsed time:       0 days  0 hours 17 minutes 59.2 seconds.
 File lengths (MBytes):  RWF=     36 Int=      0 D2E=      0 Chk=      7 Scr=      1
 Normal termination of Gaussian 16 at Sun Jul  2 07:13:14 2023.
