 Entering Gaussian System, Link 0=g16
 Initial command:
 /home/alexey/programs//g16/l1.exe "/home/alexey/tmp/Gau-1469188.inp" -scrdir="/home/alexey/tmp/"
 Entering Link 1 = /home/alexey/programs//g16/l1.exe PID=   1469190.
  
 Copyright (c) 1988-2021, Gaussian, Inc.  All Rights Reserved.
  
 This is part of the Gaussian(R) 16 program.  It is based on
 the Gaussian(R) 09 system (copyright 2009, Gaussian, Inc.),
 the Gaussian(R) 03 system (copyright 2003, Gaussian, Inc.),
 the Gaussian(R) 98 system (copyright 1998, Gaussian, Inc.),
 the Gaussian(R) 94 system (copyright 1995, Gaussian, Inc.),
 the Gaussian 92(TM) system (copyright 1992, Gaussian, Inc.),
 the Gaussian 90(TM) system (copyright 1990, Gaussian, Inc.),
 the Gaussian 88(TM) system (copyright 1988, Gaussian, Inc.),
 the Gaussian 86(TM) system (copyright 1986, Carnegie Mellon
 University), and the Gaussian 82(TM) system (copyright 1983,
 Carnegie Mellon University). Gaussian is a federally registered
 trademark of Gaussian, Inc.
  
 This software contains proprietary and confidential information,
 including trade secrets, belonging to Gaussian, Inc.
  
 This software is provided under written license and may be
 used, copied, transmitted, or stored only in accord with that
 written license.
  
 The following legend is applicable only to US Government
 contracts under FAR:
  
                    RESTRICTED RIGHTS LEGEND
  
 Use, reproduction and disclosure by the US Government is
 subject to restrictions as set forth in subparagraphs (a)
 and (c) of the Commercial Computer Software - Restricted
 Rights clause in FAR 52.227-19.
  
 Gaussian, Inc.
 340 Quinnipiac St., Bldg. 40, Wallingford CT 06492
  
  
 ---------------------------------------------------------------
 Warning -- This program may not be used in any manner that
 competes with the business of Gaussian, Inc. or will provide
 assistance to any competitor of Gaussian, Inc.  The licensee
 of this program is prohibited from giving any competitor of
 Gaussian, Inc. access to this program.  By using this program,
 the user acknowledges that Gaussian, Inc. is engaged in the
 business of creating and licensing software in the field of
 computational chemistry and represents and warrants to the
 licensee that it is not a competitor of Gaussian, Inc. and that
 it will not use this program in any manner prohibited above.
 ---------------------------------------------------------------
  

 Cite this work as:
 Gaussian 16, Revision C.02,
 M. J. Frisch, G. W. Trucks, H. B. Schlegel, G. E. Scuseria, 
 M. A. Robb, J. R. Cheeseman, G. Scalmani, V. Barone, 
 G. A. Petersson, H. Nakatsuji, X. Li, M. Caricato, A. V. Marenich, 
 J. Bloino, B. G. Janesko, R. Gomperts, B. Mennucci, H. P. Hratchian, 
 J. V. Ortiz, A. F. Izmaylov, J. L. Sonnenberg, D. Williams-Young, 
 F. Ding, F. Lipparini, F. Egidi, J. Goings, B. Peng, A. Petrone, 
 T. Henderson, D. Ranasinghe, V. G. Zakrzewski, J. Gao, N. Rega, 
 G. Zheng, W. Liang, M. Hada, M. Ehara, K. Toyota, R. Fukuda, 
 J. Hasegawa, M. Ishida, T. Nakajima, Y. Honda, O. Kitao, H. Nakai, 
 T. Vreven, K. Throssell, J. A. Montgomery, Jr., J. E. Peralta, 
 F. Ogliaro, M. J. Bearpark, J. J. Heyd, E. N. Brothers, K. N. Kudin, 
 V. N. Staroverov, T. A. Keith, R. Kobayashi, J. Normand, 
 K. Raghavachari, A. P. Rendell, J. C. Burant, S. S. Iyengar, 
 J. Tomasi, M. Cossi, J. M. Millam, M. Klene, C. Adamo, R. Cammi, 
 J. W. Ochterski, R. L. Martin, K. Morokuma, O. Farkas, 
 J. B. Foresman, and D. J. Fox, Gaussian, Inc., Wallingford CT, 2019.
 
 ******************************************
 Gaussian 16:  ES64L-G16RevC.02  7-Dec-2021
                 2-Jul-2023 
 ******************************************
 %mem=8GB
 %NPROCS=4
 Will use up to    4 processors via shared memory.
 %NoSave
 ---------------------------------------------------------
 #MP2/6-31G* SCF=Tight Opt=(ModRedun, MaxCycle=20 ) NoSymm
 ---------------------------------------------------------
 1/6=20,18=120,19=15,38=1/1,3;
 2/9=110,12=2,15=1,17=6,18=5,40=1/2;
 3/5=1,6=6,7=1,11=9,25=1,30=1,71=1/1,2,3;
 4//1;
 5/5=2,32=2,38=5/2;
 8/6=4,10=2/1;
 9/15=2,16=-3/6;
 10/5=1,31=1/2;
 6/7=2,8=2,9=2,10=2/1;
 7/12=2,30=1/1,2,3,16;
 1/6=20,18=20,19=15/3(2);
 2/9=110,15=1/2;
 99//99;
 2/9=110,15=1/2;
 3/5=1,6=6,7=1,11=9,25=1,30=1,71=1/1,2,3;
 4/5=5,16=3,69=1/1;
 5/5=2,32=2,38=5/2;
 8/6=4,10=2/1;
 9/15=2,16=-3/6;
 10/5=1,31=1/2;
 7/12=2,30=1/1,2,3,16;
 1/6=20,18=20,19=15/3(-8);
 2/9=110,15=1/2;
 6/7=2,8=2,9=2,10=2/1;
 99/9=10/99;
 --------
 MolName:
 --------
 Symbolic Z-matrix:
 Charge =  0 Multiplicity = 1
 8                    0    -3.6544   -1.35571  -0.39718 
 7                    0    -3.25026  -0.20294  -0.25485 
 8                    0    -3.98734   0.78356  -0.28433 
 6                    0    -1.74587   0.00708  -0.05816 
 6                    0    -1.34866   1.31336   0.25036 
 7                    0    -0.07994   1.72681   0.55217 
 6                    0     1.20252   0.97656   0.43919 
 1                    0     1.90615   1.47886   1.15329 
 6                    0     1.8829    1.04279  -0.95111 
 6                    0     3.31184   0.47582  -0.84903 
 6                    0     3.30514  -0.94265  -0.25712 
 6                    0     2.53626  -0.9914    1.08092 
 6                    0     1.08024  -0.47538   0.91934 
 1                    0     0.58534  -0.52194   1.91759 
 7                    0     0.37879  -1.35732  -0.01455 
 6                    0    -0.88222  -1.19284  -0.24703 
 1                    0    -2.12445   2.0951    0.30243 
 1                    0     0.15808   2.72145   0.53575 
 1                    0     1.2958    0.46018  -1.69255 
 1                    0     1.93182   2.09501  -1.30341 
 1                    0     3.78698   0.46194  -1.85432 
 1                    0     3.92054   1.13579  -0.1914 
 1                    0     2.82306  -1.63591  -0.9829 
 1                    0     4.34916  -1.29278  -0.10346 
 1                    0     2.51468  -2.03921   1.45282 
 1                    0     3.06737  -0.37514   1.83623 
 1                    0    -1.40351  -2.02811  -0.73869 
 
 The following ModRedundant input section has been read:
 D      13      15      16       4 F                                           
 D       1       2       4      16 F                                           
 D       7      13      15      16 F                                           
 D       7       9      10      11 F                                           
 D       9      10      11      12 F                                           
 D       6       7      13      15 F                                           
 

 GradGradGradGradGradGradGradGradGradGradGradGradGradGradGradGradGradGrad
 Berny optimization.
 Initialization pass.
                           ----------------------------
                           !    Initial Parameters    !
                           ! (Angstroms and Degrees)  !
 --------------------------                            --------------------------
 ! Name  Definition              Value          Derivative Info.                !
 --------------------------------------------------------------------------------
 ! R1    R(1,2)                  1.2298         estimate D2E/DX2                !
 ! R2    R(2,3)                  1.2318         estimate D2E/DX2                !
 ! R3    R(2,4)                  1.5317         estimate D2E/DX2                !
 ! R4    R(4,5)                  1.3998         estimate D2E/DX2                !
 ! R5    R(4,16)                 1.4904         estimate D2E/DX2                !
 ! R6    R(5,6)                  1.3681         estimate D2E/DX2                !
 ! R7    R(5,17)                 1.1026         estimate D2E/DX2                !
 ! R8    R(6,7)                  1.4901         estimate D2E/DX2                !
 ! R9    R(6,18)                 1.0229         estimate D2E/DX2                !
 ! R10   R(7,8)                  1.1213         estimate D2E/DX2                !
 ! R11   R(7,9)                  1.5493         estimate D2E/DX2                !
 ! R12   R(7,13)                 1.5342         estimate D2E/DX2                !
 ! R13   R(9,10)                 1.5407         estimate D2E/DX2                !
 ! R14   R(9,19)                 1.1108         estimate D2E/DX2                !
 ! R15   R(9,20)                 1.1107         estimate D2E/DX2                !
 ! R16   R(10,11)                1.537          estimate D2E/DX2                !
 ! R17   R(10,21)                1.112          estimate D2E/DX2                !
 ! R18   R(10,22)                1.1129         estimate D2E/DX2                !
 ! R19   R(11,12)                1.544          estimate D2E/DX2                !
 ! R20   R(11,23)                1.1134         estimate D2E/DX2                !
 ! R21   R(11,24)                1.1118         estimate D2E/DX2                !
 ! R22   R(12,13)                1.5532         estimate D2E/DX2                !
 ! R23   R(12,25)                1.1121         estimate D2E/DX2                !
 ! R24   R(12,26)                1.1101         estimate D2E/DX2                !
 ! R25   R(13,14)                1.1152         estimate D2E/DX2                !
 ! R26   R(13,15)                1.4636         estimate D2E/DX2                !
 ! R27   R(15,16)                1.2928         estimate D2E/DX2                !
 ! R28   R(16,27)                1.1005         estimate D2E/DX2                !
 ! A1    A(1,2,3)              123.4546         estimate D2E/DX2                !
 ! A2    A(1,2,4)              117.785          estimate D2E/DX2                !
 ! A3    A(3,2,4)              118.7495         estimate D2E/DX2                !
 ! A4    A(2,4,5)              115.7843         estimate D2E/DX2                !
 ! A5    A(2,4,16)             116.2624         estimate D2E/DX2                !
 ! A6    A(5,4,16)             127.9385         estimate D2E/DX2                !
 ! A7    A(4,5,6)              126.4277         estimate D2E/DX2                !
 ! A8    A(4,5,17)             118.1905         estimate D2E/DX2                !
 ! A9    A(6,5,17)             115.3292         estimate D2E/DX2                !
 ! A10   A(5,6,7)              128.9956         estimate D2E/DX2                !
 ! A11   A(5,6,18)             120.4064         estimate D2E/DX2                !
 ! A12   A(7,6,18)             106.745          estimate D2E/DX2                !
 ! A13   A(6,7,8)              105.4407         estimate D2E/DX2                !
 ! A14   A(6,7,9)              115.1183         estimate D2E/DX2                !
 ! A15   A(6,7,13)             112.5931         estimate D2E/DX2                !
 ! A16   A(8,7,9)              106.0676         estimate D2E/DX2                !
 ! A17   A(8,7,13)             105.9413         estimate D2E/DX2                !
 ! A18   A(9,7,13)             110.8745         estimate D2E/DX2                !
 ! A19   A(7,9,10)             109.3974         estimate D2E/DX2                !
 ! A20   A(7,9,19)             110.1489         estimate D2E/DX2                !
 ! A21   A(7,9,20)             110.15           estimate D2E/DX2                !
 ! A22   A(10,9,19)            109.9631         estimate D2E/DX2                !
 ! A23   A(10,9,20)            109.195          estimate D2E/DX2                !
 ! A24   A(19,9,20)            107.9654         estimate D2E/DX2                !
 ! A25   A(9,10,11)            111.1667         estimate D2E/DX2                !
 ! A26   A(9,10,21)            109.9368         estimate D2E/DX2                !
 ! A27   A(9,10,22)            109.1594         estimate D2E/DX2                !
 ! A28   A(11,10,21)           109.7847         estimate D2E/DX2                !
 ! A29   A(11,10,22)           108.7898         estimate D2E/DX2                !
 ! A30   A(21,10,22)           107.9331         estimate D2E/DX2                !
 ! A31   A(10,11,12)           111.4101         estimate D2E/DX2                !
 ! A32   A(10,11,23)           108.9938         estimate D2E/DX2                !
 ! A33   A(10,11,24)           109.8616         estimate D2E/DX2                !
 ! A34   A(12,11,23)           109.2456         estimate D2E/DX2                !
 ! A35   A(12,11,24)           109.7487         estimate D2E/DX2                !
 ! A36   A(23,11,24)           107.4916         estimate D2E/DX2                !
 ! A37   A(11,12,13)           111.4805         estimate D2E/DX2                !
 ! A38   A(11,12,25)           109.222          estimate D2E/DX2                !
 ! A39   A(11,12,26)           109.5031         estimate D2E/DX2                !
 ! A40   A(13,12,25)           109.2468         estimate D2E/DX2                !
 ! A41   A(13,12,26)           109.5633         estimate D2E/DX2                !
 ! A42   A(25,12,26)           107.7464         estimate D2E/DX2                !
 ! A43   A(7,13,12)            105.7994         estimate D2E/DX2                !
 ! A44   A(7,13,14)            110.7964         estimate D2E/DX2                !
 ! A45   A(7,13,15)            114.1295         estimate D2E/DX2                !
 ! A46   A(12,13,14)           108.0009         estimate D2E/DX2                !
 ! A47   A(12,13,15)           108.3894         estimate D2E/DX2                !
 ! A48   A(14,13,15)           109.4715         estimate D2E/DX2                !
 ! A49   A(13,15,16)           120.3701         estimate D2E/DX2                !
 ! A50   A(4,16,15)            130.1562         estimate D2E/DX2                !
 ! A51   A(4,16,27)            113.1522         estimate D2E/DX2                !
 ! A52   A(15,16,27)           116.4754         estimate D2E/DX2                !
 ! D1    D(1,2,4,5)           -173.0324         estimate D2E/DX2                !
 ! D2    D(1,2,4,16)             8.2593         Frozen                          !
 ! D3    D(3,2,4,5)              8.1247         estimate D2E/DX2                !
 ! D4    D(3,2,4,16)          -170.5836         estimate D2E/DX2                !
 ! D5    D(2,4,5,6)            175.5586         estimate D2E/DX2                !
 ! D6    D(2,4,5,17)            -1.6714         estimate D2E/DX2                !
 ! D7    D(16,4,5,6)            -5.9102         estimate D2E/DX2                !
 ! D8    D(16,4,5,17)          176.8599         estimate D2E/DX2                !
 ! D9    D(2,4,16,15)         -171.7882         estimate D2E/DX2                !
 ! D10   D(2,4,16,27)           13.8284         estimate D2E/DX2                !
 ! D11   D(5,4,16,15)            9.6865         estimate D2E/DX2                !
 ! D12   D(5,4,16,27)         -164.6968         estimate D2E/DX2                !
 ! D13   D(4,5,6,7)              9.9063         estimate D2E/DX2                !
 ! D14   D(4,5,6,18)           164.7259         estimate D2E/DX2                !
 ! D15   D(17,5,6,7)          -172.7948         estimate D2E/DX2                !
 ! D16   D(17,5,6,18)          -17.9752         estimate D2E/DX2                !
 ! D17   D(5,6,7,8)           -157.1316         estimate D2E/DX2                !
 ! D18   D(5,6,7,9)             86.3415         estimate D2E/DX2                !
 ! D19   D(5,6,7,13)           -42.0722         estimate D2E/DX2                !
 ! D20   D(18,6,7,8)            45.4004         estimate D2E/DX2                !
 ! D21   D(18,6,7,9)           -71.1265         estimate D2E/DX2                !
 ! D22   D(18,6,7,13)          160.4598         estimate D2E/DX2                !
 ! D23   D(6,7,9,10)           168.7111         estimate D2E/DX2                !
 ! D24   D(6,7,9,19)           -70.3082         estimate D2E/DX2                !
 ! D25   D(6,7,9,20)            48.6784         estimate D2E/DX2                !
 ! D26   D(8,7,9,10)            52.5413         estimate D2E/DX2                !
 ! D27   D(8,7,9,19)           173.522          estimate D2E/DX2                !
 ! D28   D(8,7,9,20)           -67.4915         estimate D2E/DX2                !
 ! D29   D(13,7,9,10)          -62.0242         estimate D2E/DX2                !
 ! D30   D(13,7,9,19)           58.9565         estimate D2E/DX2                !
 ! D31   D(13,7,9,20)          177.943          estimate D2E/DX2                !
 ! D32   D(6,7,13,12)         -165.9001         estimate D2E/DX2                !
 ! D33   D(6,7,13,14)          -49.0913         estimate D2E/DX2                !
 ! D34   D(6,7,13,15)           75.022          Frozen                          !
 ! D35   D(8,7,13,12)          -51.1435         estimate D2E/DX2                !
 ! D36   D(8,7,13,14)           65.6653         estimate D2E/DX2                !
 ! D37   D(8,7,13,15)         -170.2214         estimate D2E/DX2                !
 ! D38   D(9,7,13,12)           63.5011         estimate D2E/DX2                !
 ! D39   D(9,7,13,14)         -179.6902         estimate D2E/DX2                !
 ! D40   D(9,7,13,15)          -55.5768         estimate D2E/DX2                !
 ! D41   D(7,9,10,11)           54.8126         Frozen                          !
 ! D42   D(7,9,10,21)          176.5861         estimate D2E/DX2                !
 ! D43   D(7,9,10,22)          -65.1998         estimate D2E/DX2                !
 ! D44   D(19,9,10,11)         -66.2808         estimate D2E/DX2                !
 ! D45   D(19,9,10,21)          55.4927         estimate D2E/DX2                !
 ! D46   D(19,9,10,22)         173.7069         estimate D2E/DX2                !
 ! D47   D(20,9,10,11)         175.429          estimate D2E/DX2                !
 ! D48   D(20,9,10,21)         -62.7974         estimate D2E/DX2                !
 ! D49   D(20,9,10,22)          55.4167         estimate D2E/DX2                !
 ! D50   D(9,10,11,12)         -52.8222         Frozen                          !
 ! D51   D(9,10,11,23)          67.8018         estimate D2E/DX2                !
 ! D52   D(9,10,11,24)        -174.6614         estimate D2E/DX2                !
 ! D53   D(21,10,11,12)       -174.6843         estimate D2E/DX2                !
 ! D54   D(21,10,11,23)        -54.0604         estimate D2E/DX2                !
 ! D55   D(21,10,11,24)         63.4764         estimate D2E/DX2                !
 ! D56   D(22,10,11,12)         67.4092         estimate D2E/DX2                !
 ! D57   D(22,10,11,23)       -171.9669         estimate D2E/DX2                !
 ! D58   D(22,10,11,24)        -54.4301         estimate D2E/DX2                !
 ! D59   D(10,11,12,13)         56.6507         estimate D2E/DX2                !
 ! D60   D(10,11,12,25)        177.4722         estimate D2E/DX2                !
 ! D61   D(10,11,12,26)        -64.7568         estimate D2E/DX2                !
 ! D62   D(23,11,12,13)        -63.8253         estimate D2E/DX2                !
 ! D63   D(23,11,12,25)         56.9962         estimate D2E/DX2                !
 ! D64   D(23,11,12,26)        174.7672         estimate D2E/DX2                !
 ! D65   D(24,11,12,13)        178.5554         estimate D2E/DX2                !
 ! D66   D(24,11,12,25)        -60.6232         estimate D2E/DX2                !
 ! D67   D(24,11,12,26)         57.1479         estimate D2E/DX2                !
 ! D68   D(11,12,13,7)         -60.53           estimate D2E/DX2                !
 ! D69   D(11,12,13,14)       -179.2103         estimate D2E/DX2                !
 ! D70   D(11,12,13,15)         62.2752         estimate D2E/DX2                !
 ! D71   D(25,12,13,7)         178.6631         estimate D2E/DX2                !
 ! D72   D(25,12,13,14)         59.9827         estimate D2E/DX2                !
 ! D73   D(25,12,13,15)        -58.5317         estimate D2E/DX2                !
 ! D74   D(26,12,13,7)          60.8425         estimate D2E/DX2                !
 ! D75   D(26,12,13,14)        -57.8378         estimate D2E/DX2                !
 ! D76   D(26,12,13,15)       -176.3523         estimate D2E/DX2                !
 ! D77   D(7,13,15,16)         -67.1601         Frozen                          !
 ! D78   D(12,13,15,16)        175.239          estimate D2E/DX2                !
 ! D79   D(14,13,15,16)         57.6609         estimate D2E/DX2                !
 ! D80   D(13,15,16,4)          21.3119         Frozen                          !
 ! D81   D(13,15,16,27)       -164.4581         estimate D2E/DX2                !
 --------------------------------------------------------------------------------
 Trust Radius=3.00D-01 FncErr=1.00D-07 GrdErr=1.00D-07 EigMax=2.50D+02 EigMin=1.00D-04
 Number of steps in this run=     20 maximum allowed number of steps=    162.
 GradGradGradGradGradGradGradGradGradGradGradGradGradGradGradGradGradGrad

                          Input orientation:                          
 ---------------------------------------------------------------------
 Center     Atomic      Atomic             Coordinates (Angstroms)
 Number     Number       Type             X           Y           Z
 ---------------------------------------------------------------------
      1          8           0       -3.654400   -1.355710   -0.397180
      2          7           0       -3.250260   -0.202940   -0.254850
      3          8           0       -3.987340    0.783560   -0.284330
      4          6           0       -1.745870    0.007080   -0.058160
      5          6           0       -1.348660    1.313360    0.250360
      6          7           0       -0.079940    1.726810    0.552170
      7          6           0        1.202520    0.976560    0.439190
      8          1           0        1.906150    1.478860    1.153290
      9          6           0        1.882900    1.042790   -0.951110
     10          6           0        3.311840    0.475820   -0.849030
     11          6           0        3.305140   -0.942650   -0.257120
     12          6           0        2.536260   -0.991400    1.080920
     13          6           0        1.080240   -0.475380    0.919340
     14          1           0        0.585340   -0.521940    1.917590
     15          7           0        0.378790   -1.357320   -0.014550
     16          6           0       -0.882220   -1.192840   -0.247030
     17          1           0       -2.124450    2.095100    0.302430
     18          1           0        0.158080    2.721450    0.535750
     19          1           0        1.295800    0.460180   -1.692550
     20          1           0        1.931820    2.095010   -1.303410
     21          1           0        3.786980    0.461940   -1.854320
     22          1           0        3.920540    1.135790   -0.191400
     23          1           0        2.823060   -1.635910   -0.982900
     24          1           0        4.349160   -1.292780   -0.103460
     25          1           0        2.514680   -2.039210    1.452820
     26          1           0        3.067370   -0.375140    1.836230
     27          1           0       -1.403510   -2.028110   -0.738690
 ---------------------------------------------------------------------
                    Distance matrix (angstroms):
                    1          2          3          4          5
     1  O    0.000000
     2  N    1.229823   0.000000
     3  O    2.167962   1.231803   0.000000
     4  C    2.369518   1.531661   2.382910   0.000000
     5  C    3.586040   2.484046   2.743941   1.399760   0.000000
     6  N    4.814557   3.798177   4.105755   2.470890   1.368094
     7  C    5.452400   4.658343   5.243603   3.143287   2.580235
     8  H    6.431054   5.603559   6.106015   4.119587   3.381784
     9  C    6.059813   5.327847   5.913672   3.877889   3.458283
    10  C    7.217144   6.623815   7.327456   5.140586   4.861110
    11  C    6.973194   6.597003   7.494051   5.143372   5.196631
    12  C    6.375090   5.990807   6.897228   4.542147   4.592859
    13  C    4.992497   4.495128   5.358556   3.029055   3.089770
    14  H    4.901911   4.419625   5.240437   3.101288   3.144573
    15  N    4.051300   3.815802   4.870240   2.525405   3.191675
    16  C    2.781017   2.566627   3.680940   1.490427   2.597307
    17  H    3.839048   2.618969   2.352612   2.152481   1.102578
    18  H    5.659381   4.560031   4.648920   3.368317   2.081929
    19  H    5.429541   4.813873   5.477155   3.482569   3.390573
    20  H    6.628316   5.764894   6.147754   4.408572   3.713048
    21  H    7.797515   7.247283   7.937781   5.834854   5.615104
    22  H    7.976819   7.294971   7.916266   5.779268   5.290666
    23  H    6.509921   6.282410   7.261087   4.942639   5.255699
    24  H    8.009195   7.678662   8.593086   6.232261   6.275532
    25  H    6.476667   6.286697   7.298081   4.962121   5.254620
    26  H    7.150652   6.656930   7.457097   5.186722   4.986716
    27  H    2.373870   2.641180   3.845531   2.173092   3.485204
                    6          7          8          9         10
     6  N    0.000000
     7  C    1.490082   0.000000
     8  H    2.089827   1.121311   0.000000
     9  C    2.565244   1.549270   2.149232   0.000000
    10  C    3.877178   2.521801   2.644114   1.540696   0.000000
    11  C    4.386312   2.930738   3.132114   2.538968   1.537029
    12  C    3.809560   2.462427   2.550384   2.948551   2.545381
    13  C    2.516043   1.534153   2.134459   2.539229   3.001991
    14  H    2.713641   2.193645   2.516326   3.515890   4.010426
    15  N    3.169142   2.516229   3.426455   2.983290   3.558025
    16  C    3.131570   3.085990   4.107783   3.624867   4.553786
    17  H    2.092374   3.512629   4.165267   4.328692   5.788020
    18  H    1.022855   2.035883   2.231845   2.829073   4.111772
    19  H    2.921606   2.195374   3.083673   1.110790   2.185449
    20  H    2.761508   2.195328   2.532918   1.110709   2.175475
    21  H    4.726961   3.493488   3.690171   2.186023   1.112007
    22  H    4.111696   2.794751   2.446151   2.176645   1.112903
    23  H    4.700185   3.387254   3.886621   2.839075   2.171688
    24  H    5.400435   3.917361   3.902526   3.500834   2.181709
    25  H    4.661130   3.441523   3.582854   3.959388   3.501336
    26  H    3.996569   2.693785   2.291758   3.344063   2.827458
    27  H    4.185401   4.148112   5.179988   4.502892   5.340072
                   11         12         13         14         15
    11  C    0.000000
    12  C    1.543990   0.000000
    13  C    2.559801   1.553183   0.000000
    14  H    3.507659   2.174051   1.115167   0.000000
    15  N    2.965521   2.447167   1.463558   2.115109   0.000000
    16  C    4.194840   3.672878   2.392993   2.699892   1.292767
    17  H    6.246717   5.644001   4.154273   4.098854   4.276200
    18  H    4.894717   4.442770   3.349215   3.551283   4.121639
    19  H    2.840042   3.367189   2.782752   3.808205   2.638162
    20  H    3.494010   3.946683   3.503243   4.363058   3.998955
    21  H    2.180846   3.506014   3.987255   5.044385   4.279044
    22  H    2.168628   2.839008   3.449191   4.280125   4.334843
    23  H    1.113448   2.181055   2.828916   3.828990   2.643817
    24  H    1.111836   2.186365   3.521378   4.341103   3.971890
    25  H    2.179717   1.112062   2.188100   2.498094   2.679585
    26  H    2.181907   1.110111   2.190758   2.487698   3.408596
    27  H    4.856081   4.461786   3.365865   3.644159   2.037383
                   16         17         18         19         20
    16  C    0.000000
    17  H    3.557470   0.000000
    18  H    4.125122   2.378381   0.000000
    19  H    3.092859   4.283809   3.372398   0.000000
    20  H    4.454741   4.362574   2.630796   1.796836   0.000000
    21  H    5.207985   6.501060   4.897625   2.496428   2.532200
    22  H    5.337801   6.140525   4.147188   3.098251   2.472181
    23  H    3.803540   6.328536   5.328696   2.688814   3.849260
    24  H    5.234304   7.317794   5.838474   3.862782   4.331343
    25  H    3.891627   6.319608   5.390590   4.198330   5.002830
    26  H    4.539589   5.950599   4.443432   4.035902   4.153126
    27  H    1.100522   4.313299   5.159562   3.793114   5.333240
                   21         22         23         24         25
    21  H    0.000000
    22  H    1.799226   0.000000
    23  H    2.467689   3.084357   0.000000
    24  H    2.541771   2.467671   1.794473   0.000000
    25  H    4.337243   3.841943   2.488068   2.518826   0.000000
    26  H    3.852103   2.668725   3.097858   2.499489   1.794881
    27  H    5.863972   6.217338   4.251747   5.834161   4.489438
                   26         27
    26  H    0.000000
    27  H    5.417683   0.000000
 Symmetry turned off by external request.
 Stoichiometry    C9H13N3O2
 Framework group  C1[X(C9H13N3O2)]
 Deg. of freedom    75
 Full point group                 C1      NOp   1
 Rotational constants (GHZ):           1.6428295           0.4004382           0.3568497
 Standard basis: 6-31G(d) (6D, 7F)
   236 basis functions,   444 primitive gaussians,   236 cartesian basis functions
    52 alpha electrons       52 beta electrons
       nuclear repulsion energy       916.9828379892 Hartrees.
 NAtoms=   27 NActive=   27 NUniq=   27 SFac= 1.00D+00 NAtFMM=   60 NAOKFM=F Big=F
 Integral buffers will be    131072 words long.
 Raffenetti 1 integral format.
 Two-electron integral symmetry is turned off.
 One-electron integrals computed using PRISM.
 NBasis=   236 RedAO= T EigKep=  1.27D-03  NBF=   236
 NBsUse=   236 1.00D-06 EigRej= -1.00D+00 NBFU=   236
 ExpMin= 1.61D-01 ExpMax= 5.48D+03 ExpMxC= 8.25D+02 IAcc=3 IRadAn=         5 AccDes= 0.00D+00
 Harris functional with IExCor=  205 and IRadAn=       5 diagonalized for initial guess.
 HarFok:  IExCor=  205 AccDes= 0.00D+00 IRadAn=         5 IDoV= 1 UseB2=F ITyADJ=14
 ICtDFT=  3500011 ScaDFX=  1.000000  1.000000  1.000000  1.000000
 FoFCou: FMM=F IPFlag=           0 FMFlag=      100000 FMFlg1=           0
         NFxFlg=           0 DoJE=T BraDBF=F KetDBF=T FulRan=T
         wScrn=  0.000000 ICntrl=       500 IOpCl=  0 I1Cent=   200000004 NGrid=           0
         NMat0=    1 NMatS0=      1 NMatT0=    0 NMatD0=    1 NMtDS0=    0 NMtDT0=    0
 Symmetry not used in FoFCou.
 Keep R1 ints in memory in canonical form, NReq=397720213.
 Requested convergence on RMS density matrix=1.00D-08 within 128 cycles.
 Requested convergence on MAX density matrix=1.00D-06.
 Requested convergence on             energy=1.00D-06.
 No special actions if energy rises.
 SCF Done:  E(RHF) =  -661.280514621     A.U. after   16 cycles
            NFock= 16  Conv=0.69D-08     -V/T= 2.0037
 ExpMin= 1.61D-01 ExpMax= 5.48D+03 ExpMxC= 8.25D+02 IAcc=3 IRadAn=         5 AccDes= 0.00D+00
 HarFok:  IExCor=  205 AccDes= 0.00D+00 IRadAn=         5 IDoV=-2 UseB2=F ITyADJ=14
 ICtDFT= 12500011 ScaDFX=  1.000000  1.000000  1.000000  1.000000
 Range of M.O.s used for correlation:    15   236
 NBasis=   236 NAE=    52 NBE=    52 NFC=    14 NFV=     0
 NROrb=    222 NOA=    38 NOB=    38 NVA=   184 NVB=   184
 Fully direct method using O(ONN) memory.
 JobTyp=1 Pass  1:  I=  15 to  52 NPSUse=  4 ParTrn=T ParDer=T DoDerP=T.
 Spin components of T(2) and E(2):
     alpha-alpha T2 =       0.9208264432D-01 E2=     -0.2718915102D+00
     alpha-beta  T2 =       0.4995047912D+00 E2=     -0.1493553274D+01
     beta-beta   T2 =       0.9208264432D-01 E2=     -0.2718915102D+00
 ANorm=    0.1297563131D+01
 E2 =    -0.2037336294D+01 EUMP2 =    -0.66331785091511D+03
          IDoAtm=111111111111111111111111111
          Differentiating once with respect to electric field.
                with respect to dipole field.
          Differentiating once with respect to nuclear coordinates.
 Keep R1 ints in memory in canonical form, NReq=397723379.
          There are     1 degrees of freedom in the 1st order CPHF.  IDoFFX=0 NUNeed=     1.
 LinEq1:  Iter=  0 NonCon=     1 RMS=4.65D-03 Max=1.22D-01 NDo=     1
 AX will form     1 AO Fock derivatives at one time.
 LinEq1:  Iter=  1 NonCon=     1 RMS=1.58D-03 Max=3.71D-02 NDo=     1
 LinEq1:  Iter=  2 NonCon=     1 RMS=6.50D-04 Max=1.98D-02 NDo=     1
 LinEq1:  Iter=  3 NonCon=     1 RMS=2.96D-04 Max=9.46D-03 NDo=     1
 LinEq1:  Iter=  4 NonCon=     1 RMS=9.27D-05 Max=2.40D-03 NDo=     1
 LinEq1:  Iter=  5 NonCon=     1 RMS=3.82D-05 Max=1.81D-03 NDo=     1
 LinEq1:  Iter=  6 NonCon=     1 RMS=1.58D-05 Max=5.66D-04 NDo=     1
 LinEq1:  Iter=  7 NonCon=     1 RMS=5.98D-06 Max=7.84D-05 NDo=     1
 LinEq1:  Iter=  8 NonCon=     1 RMS=2.36D-06 Max=5.07D-05 NDo=     1
 LinEq1:  Iter=  9 NonCon=     1 RMS=8.68D-07 Max=2.45D-05 NDo=     1
 LinEq1:  Iter= 10 NonCon=     1 RMS=4.18D-07 Max=1.38D-05 NDo=     1
 LinEq1:  Iter= 11 NonCon=     1 RMS=1.54D-07 Max=5.61D-06 NDo=     1
 LinEq1:  Iter= 12 NonCon=     1 RMS=5.45D-08 Max=8.33D-07 NDo=     1
 LinEq1:  Iter= 13 NonCon=     1 RMS=1.70D-08 Max=3.06D-07 NDo=     1
 LinEq1:  Iter= 14 NonCon=     1 RMS=5.14D-09 Max=1.15D-07 NDo=     1
 LinEq1:  Iter= 15 NonCon=     1 RMS=1.85D-09 Max=5.43D-08 NDo=     1
 LinEq1:  Iter= 16 NonCon=     1 RMS=6.94D-10 Max=1.26D-08 NDo=     1
 LinEq1:  Iter= 17 NonCon=     1 RMS=2.35D-10 Max=4.32D-09 NDo=     1
 LinEq1:  Iter= 18 NonCon=     1 RMS=8.41D-11 Max=1.35D-09 NDo=     1
 LinEq1:  Iter= 19 NonCon=     0 RMS=2.96D-11 Max=6.38D-10 NDo=     1
 Linear equations converged to 1.000D-10 1.000D-09 after    19 iterations.
 End of Minotr F.D. properties file   721 does not exist.
 End of Minotr F.D. properties file   722 does not exist.
 End of Minotr F.D. properties file   788 does not exist.

 **********************************************************************

            Population analysis using the SCF Density.

 **********************************************************************

 Alpha  occ. eigenvalues --  -20.59775 -20.59394 -15.85281 -15.63816 -15.56262
 Alpha  occ. eigenvalues --  -11.36004 -11.30465 -11.30138 -11.30051 -11.27581
 Alpha  occ. eigenvalues --  -11.24662 -11.23902 -11.23320 -11.22852  -1.58461
 Alpha  occ. eigenvalues --   -1.37941  -1.28959  -1.22511  -1.13286  -1.08404
 Alpha  occ. eigenvalues --   -1.01759  -1.00727  -0.93708  -0.88915  -0.84929
 Alpha  occ. eigenvalues --   -0.81531  -0.77996  -0.77039  -0.74424  -0.71236
 Alpha  occ. eigenvalues --   -0.70272  -0.69779  -0.67361  -0.64129  -0.63270
 Alpha  occ. eigenvalues --   -0.61853  -0.59930  -0.57428  -0.56544  -0.54808
 Alpha  occ. eigenvalues --   -0.54065  -0.50562  -0.49770  -0.48563  -0.47872
 Alpha  occ. eigenvalues --   -0.47727  -0.46332  -0.45494  -0.44026  -0.42157
 Alpha  occ. eigenvalues --   -0.39223  -0.33599
 Alpha virt. eigenvalues --    0.07426   0.11606   0.17459   0.21521   0.23708
 Alpha virt. eigenvalues --    0.24866   0.26189   0.28042   0.28572   0.28877
 Alpha virt. eigenvalues --    0.29719   0.31375   0.31793   0.32377   0.33225
 Alpha virt. eigenvalues --    0.33903   0.34528   0.35591   0.37698   0.38671
 Alpha virt. eigenvalues --    0.40407   0.41189   0.43873   0.45205   0.45372
 Alpha virt. eigenvalues --    0.46863   0.49826   0.53298   0.57568   0.59119
 Alpha virt. eigenvalues --    0.63338   0.68586   0.69332   0.72391   0.74105
 Alpha virt. eigenvalues --    0.74835   0.75647   0.75812   0.78225   0.78664
 Alpha virt. eigenvalues --    0.80828   0.82890   0.84654   0.85178   0.87859
 Alpha virt. eigenvalues --    0.88679   0.90573   0.91321   0.92202   0.93846
 Alpha virt. eigenvalues --    0.94924   0.97343   0.99349   1.00784   1.01975
 Alpha virt. eigenvalues --    1.02943   1.04962   1.06318   1.07147   1.08667
 Alpha virt. eigenvalues --    1.09789   1.10575   1.11787   1.12509   1.13214
 Alpha virt. eigenvalues --    1.13592   1.14203   1.15608   1.15881   1.16769
 Alpha virt. eigenvalues --    1.18005   1.20486   1.21645   1.22054   1.22894
 Alpha virt. eigenvalues --    1.23729   1.24461   1.25536   1.27188   1.27938
 Alpha virt. eigenvalues --    1.28999   1.31645   1.33904   1.36580   1.39051
 Alpha virt. eigenvalues --    1.42282   1.47943   1.49851   1.52444   1.52767
 Alpha virt. eigenvalues --    1.55292   1.58385   1.60176   1.62208   1.65448
 Alpha virt. eigenvalues --    1.67591   1.69800   1.71781   1.72941   1.76630
 Alpha virt. eigenvalues --    1.78654   1.81730   1.84172   1.88103   1.91282
 Alpha virt. eigenvalues --    1.93617   1.96009   1.97699   1.99587   2.01238
 Alpha virt. eigenvalues --    2.02865   2.03388   2.05795   2.09421   2.11783
 Alpha virt. eigenvalues --    2.12067   2.13369   2.17272   2.18267   2.19823
 Alpha virt. eigenvalues --    2.20165   2.22088   2.23720   2.24840   2.25836
 Alpha virt. eigenvalues --    2.29184   2.31929   2.32863   2.35269   2.36624
 Alpha virt. eigenvalues --    2.39695   2.40999   2.42311   2.44344   2.46034
 Alpha virt. eigenvalues --    2.48701   2.50448   2.50620   2.56378   2.57110
 Alpha virt. eigenvalues --    2.60450   2.64665   2.64770   2.68117   2.68377
 Alpha virt. eigenvalues --    2.69200   2.69959   2.74226   2.75625   2.81226
 Alpha virt. eigenvalues --    2.84830   2.86789   2.89913   2.91310   2.94435
 Alpha virt. eigenvalues --    2.97665   2.98086   3.02203   3.05501   3.06353
 Alpha virt. eigenvalues --    3.07533   3.14392   3.18435   3.22816   3.27143
 Alpha virt. eigenvalues --    3.31743   3.32854   3.38031   3.42682   3.60821
 Alpha virt. eigenvalues --    4.10461   4.23239   4.32161   4.36806   4.44178
 Alpha virt. eigenvalues --    4.52264   4.59357   4.60201   4.70718   4.78107
 Alpha virt. eigenvalues --    4.97093   4.99220   5.04064   5.09250
          Condensed to atoms (all electrons):
               1          2          3          4          5          6
     1  O    8.301655   0.311089  -0.090323  -0.077892   0.003551  -0.000011
     2  N    0.311089   5.678460   0.311387   0.265234  -0.048482   0.000731
     3  O   -0.090323   0.311387   8.330259  -0.088269   0.008128   0.000486
     4  C   -0.077892   0.265234  -0.088269   5.256128   0.564620  -0.049771
     5  C    0.003551  -0.048482   0.008128   0.564620   4.682168   0.313221
     6  N   -0.000011   0.000731   0.000486  -0.049771   0.313221   7.161426
     7  C    0.000002  -0.000097   0.000002   0.005676  -0.029428   0.203483
     8  H   -0.000000   0.000001  -0.000000  -0.000259   0.002874  -0.046762
     9  C    0.000000  -0.000004   0.000000   0.000653   0.000804  -0.058380
    10  C   -0.000000   0.000000   0.000000  -0.000025  -0.000039   0.003373
    11  C   -0.000000  -0.000000  -0.000000  -0.000010   0.000012  -0.000150
    12  C   -0.000000   0.000001  -0.000000  -0.000225  -0.000153   0.003753
    13  C   -0.000011   0.000006  -0.000001  -0.008285  -0.000151  -0.049331
    14  H   -0.000000  -0.000038   0.000000   0.002105   0.003325  -0.005187
    15  N    0.000382   0.001510  -0.000010  -0.062069  -0.004325   0.001988
    16  C    0.002053  -0.023109   0.002058   0.312378  -0.043600   0.000426
    17  H    0.000149  -0.004486   0.012850  -0.024007   0.374607  -0.032054
    18  H    0.000000  -0.000034   0.000008   0.001470  -0.026093   0.330895
    19  H    0.000000  -0.000002   0.000000  -0.000994   0.001142  -0.000047
    20  H    0.000000  -0.000000   0.000000  -0.000035  -0.000003  -0.000797
    21  H   -0.000000  -0.000000  -0.000000   0.000001   0.000001  -0.000062
    22  H   -0.000000   0.000000  -0.000000  -0.000000  -0.000001  -0.000094
    23  H    0.000000  -0.000000   0.000000   0.000025  -0.000000  -0.000024
    24  H    0.000000   0.000000   0.000000   0.000000  -0.000000   0.000005
    25  H    0.000000  -0.000000   0.000000   0.000022  -0.000001  -0.000073
    26  H    0.000000  -0.000000   0.000000   0.000004  -0.000001  -0.000074
    27  H    0.006464  -0.000175   0.000042  -0.068030   0.002003  -0.000008
               7          8          9         10         11         12
     1  O    0.000002  -0.000000   0.000000  -0.000000  -0.000000  -0.000000
     2  N   -0.000097   0.000001  -0.000004   0.000000  -0.000000   0.000001
     3  O    0.000002  -0.000000   0.000000   0.000000  -0.000000  -0.000000
     4  C    0.005676  -0.000259   0.000653  -0.000025  -0.000010  -0.000225
     5  C   -0.029428   0.002874   0.000804  -0.000039   0.000012  -0.000153
     6  N    0.203483  -0.046762  -0.058380   0.003373  -0.000150   0.003753
     7  C    5.037460   0.414009   0.342422  -0.049288  -0.008023  -0.064857
     8  H    0.414009   0.544504  -0.058252   0.000878  -0.000232  -0.003191
     9  C    0.342422  -0.058252   5.176027   0.319434  -0.053494  -0.005554
    10  C   -0.049288   0.000878   0.319434   5.126346   0.332667  -0.060664
    11  C   -0.008023  -0.000232  -0.053494   0.332667   5.124816   0.330421
    12  C   -0.064857  -0.003191  -0.005554  -0.060664   0.330421   5.140123
    13  C    0.319110  -0.038223  -0.054099  -0.001014  -0.047337   0.368632
    14  H   -0.041509  -0.000894   0.003803  -0.000386   0.003961  -0.041088
    15  N   -0.062310   0.004047  -0.012156   0.001289  -0.007460  -0.075445
    16  C   -0.000926  -0.000107  -0.000281  -0.000072  -0.000002   0.002249
    17  H    0.001428  -0.000040  -0.000057   0.000001  -0.000000   0.000001
    18  H   -0.029873  -0.003881   0.001025  -0.000115   0.000011  -0.000151
    19  H   -0.035176   0.003999   0.387765  -0.033154  -0.002139   0.000551
    20  H   -0.042010  -0.001815   0.397119  -0.037052   0.004126  -0.000381
    21  H    0.004080  -0.000071  -0.035917   0.400089  -0.035785   0.004236
    22  H   -0.004445   0.003534  -0.045616   0.395838  -0.045558  -0.001223
    23  H    0.000485   0.000034  -0.002020  -0.040180   0.396594  -0.036663
    24  H   -0.000145  -0.000105   0.004404  -0.038473   0.400355  -0.037784
    25  H    0.005129  -0.000015  -0.000383   0.004104  -0.033717   0.394865
    26  H   -0.004409   0.001487   0.001089  -0.002432  -0.042472   0.394195
    27  H   -0.000397   0.000008  -0.000048   0.000003   0.000006  -0.000022
              13         14         15         16         17         18
     1  O   -0.000011  -0.000000   0.000382   0.002053   0.000149   0.000000
     2  N    0.000006  -0.000038   0.001510  -0.023109  -0.004486  -0.000034
     3  O   -0.000001   0.000000  -0.000010   0.002058   0.012850   0.000008
     4  C   -0.008285   0.002105  -0.062069   0.312378  -0.024007   0.001470
     5  C   -0.000151   0.003325  -0.004325  -0.043600   0.374607  -0.026093
     6  N   -0.049331  -0.005187   0.001988   0.000426  -0.032054   0.330895
     7  C    0.319110  -0.041509  -0.062310  -0.000926   0.001428  -0.029873
     8  H   -0.038223  -0.000894   0.004047  -0.000107  -0.000040  -0.003881
     9  C   -0.054099   0.003803  -0.012156  -0.000281  -0.000057   0.001025
    10  C   -0.001014  -0.000386   0.001289  -0.000072   0.000001  -0.000115
    11  C   -0.047337   0.003961  -0.007460  -0.000002  -0.000000   0.000011
    12  C    0.368632  -0.041088  -0.075445   0.002249   0.000001  -0.000151
    13  C    5.017463   0.406981   0.246526  -0.067250  -0.000065   0.003943
    14  H    0.406981   0.517242  -0.034558  -0.006453   0.000020  -0.000005
    15  N    0.246526  -0.034558   6.956901   0.584349  -0.000049  -0.000123
    16  C   -0.067250  -0.006453   0.584349   4.701926   0.001462  -0.000182
    17  H   -0.000065   0.000020  -0.000049   0.001462   0.380482  -0.002429
    18  H    0.003943  -0.000005  -0.000123  -0.000182  -0.002429   0.326017
    19  H   -0.005926   0.000060   0.006703   0.002035   0.000009  -0.000132
    20  H    0.003924  -0.000052   0.000088  -0.000039  -0.000008   0.002268
    21  H   -0.000406   0.000009  -0.000034   0.000003  -0.000000   0.000000
    22  H    0.000316  -0.000042   0.000008  -0.000001   0.000000   0.000002
    23  H   -0.006016   0.000004   0.006831   0.000097   0.000000   0.000000
    24  H    0.004158  -0.000060   0.000021   0.000005   0.000000  -0.000000
    25  H   -0.034300  -0.002705   0.001281  -0.000061  -0.000000   0.000003
    26  H   -0.045079  -0.000891   0.004238  -0.000030   0.000000  -0.000001
    27  H    0.004763  -0.000147  -0.040865   0.404219  -0.000062   0.000001
              19         20         21         22         23         24
     1  O    0.000000   0.000000  -0.000000  -0.000000   0.000000   0.000000
     2  N   -0.000002  -0.000000  -0.000000   0.000000  -0.000000   0.000000
     3  O    0.000000   0.000000  -0.000000  -0.000000   0.000000   0.000000
     4  C   -0.000994  -0.000035   0.000001  -0.000000   0.000025   0.000000
     5  C    0.001142  -0.000003   0.000001  -0.000001  -0.000000  -0.000000
     6  N   -0.000047  -0.000797  -0.000062  -0.000094  -0.000024   0.000005
     7  C   -0.035176  -0.042010   0.004080  -0.004445   0.000485  -0.000145
     8  H    0.003999  -0.001815  -0.000071   0.003534   0.000034  -0.000105
     9  C    0.387765   0.397119  -0.035917  -0.045616  -0.002020   0.004404
    10  C   -0.033154  -0.037052   0.400089   0.395838  -0.040180  -0.038473
    11  C   -0.002139   0.004126  -0.035785  -0.045558   0.396594   0.400355
    12  C    0.000551  -0.000381   0.004236  -0.001223  -0.036663  -0.037784
    13  C   -0.005926   0.003924  -0.000406   0.000316  -0.006016   0.004158
    14  H    0.000060  -0.000052   0.000009  -0.000042   0.000004  -0.000060
    15  N    0.006703   0.000088  -0.000034   0.000008   0.006831   0.000021
    16  C    0.002035  -0.000039   0.000003  -0.000001   0.000097   0.000005
    17  H    0.000009  -0.000008  -0.000000   0.000000   0.000000   0.000000
    18  H   -0.000132   0.002268   0.000000   0.000002   0.000000  -0.000000
    19  H    0.505839  -0.023801  -0.002564   0.003758   0.001661  -0.000073
    20  H   -0.023801   0.548009  -0.002656  -0.002935  -0.000049  -0.000090
    21  H   -0.002564  -0.002656   0.525685  -0.024687  -0.002820  -0.002067
    22  H    0.003758  -0.002935  -0.024687   0.569376   0.004065  -0.003567
    23  H    0.001661  -0.000049  -0.002820   0.004065   0.509799  -0.024925
    24  H   -0.000073  -0.000090  -0.002067  -0.003567  -0.024925   0.540708
    25  H   -0.000027   0.000011  -0.000086  -0.000083  -0.002064  -0.002398
    26  H    0.000022  -0.000035  -0.000072   0.002455   0.003835  -0.002762
    27  H    0.000067   0.000000  -0.000000   0.000000  -0.000022  -0.000000
              25         26         27
     1  O    0.000000   0.000000   0.006464
     2  N   -0.000000  -0.000000  -0.000175
     3  O    0.000000   0.000000   0.000042
     4  C    0.000022   0.000004  -0.068030
     5  C   -0.000001  -0.000001   0.002003
     6  N   -0.000073  -0.000074  -0.000008
     7  C    0.005129  -0.004409  -0.000397
     8  H   -0.000015   0.001487   0.000008
     9  C   -0.000383   0.001089  -0.000048
    10  C    0.004104  -0.002432   0.000003
    11  C   -0.033717  -0.042472   0.000006
    12  C    0.394865   0.394195  -0.000022
    13  C   -0.034300  -0.045079   0.004763
    14  H   -0.002705  -0.000891  -0.000147
    15  N    0.001281   0.004238  -0.040865
    16  C   -0.000061  -0.000030   0.404219
    17  H   -0.000000   0.000000  -0.000062
    18  H    0.000003  -0.000001   0.000001
    19  H   -0.000027   0.000022   0.000067
    20  H    0.000011  -0.000035   0.000000
    21  H   -0.000086  -0.000072  -0.000000
    22  H   -0.000083   0.002455   0.000000
    23  H   -0.002064   0.003835  -0.000022
    24  H   -0.002398  -0.002762  -0.000000
    25  H    0.509675  -0.023173  -0.000015
    26  H   -0.023173   0.563636   0.000001
    27  H   -0.000015   0.000001   0.444542
 Mulliken charges:
               1
     1  O   -0.457107
     2  N    0.508007
     3  O   -0.486617
     4  C   -0.028445
     5  C    0.195822
     6  N   -0.776963
     7  C    0.039606
     8  H    0.178470
     9  C   -0.308282
    10  C   -0.321129
    11  C   -0.316590
    12  C   -0.311628
    13  C   -0.018328
    14  H    0.196505
    15  N   -0.516758
    16  C    0.128853
    17  H    0.292248
    18  H    0.397375
    19  H    0.190425
    20  H    0.156214
    21  H    0.173124
    22  H    0.148901
    23  H    0.191352
    24  H    0.162795
    25  H    0.184010
    26  H    0.150468
    27  H    0.247672
 Sum of Mulliken charges =  -0.00000
 Mulliken charges with hydrogens summed into heavy atoms:
               1
     1  O   -0.457107
     2  N    0.508007
     3  O   -0.486617
     4  C   -0.028445
     5  C    0.488070
     6  N   -0.379588
     7  C    0.218077
     9  C    0.038357
    10  C    0.000896
    11  C    0.037557
    12  C    0.022850
    13  C    0.178177
    15  N   -0.516758
    16  C    0.376525
 Electronic spatial extent (au):  <R**2>=           3123.7376
 Charge=             -0.0000 electrons
 Dipole moment (field-independent basis, Debye):
    X=              5.4024    Y=              4.4903    Z=              1.1986  Tot=              7.1264
 Quadrupole moment (field-independent basis, Debye-Ang):
   XX=           -105.3510   YY=            -79.7694   ZZ=            -82.7372
   XY=             -0.9084   XZ=             -1.7398   YZ=              0.8064
 Traceless Quadrupole moment (field-independent basis, Debye-Ang):
   XX=            -16.0651   YY=              9.5165   ZZ=              6.5487
   XY=             -0.9084   XZ=             -1.7398   YZ=              0.8064
 Octapole moment (field-independent basis, Debye-Ang**2):
  XXX=            100.1458  YYY=             34.4598  ZZZ=             -0.5583  XYY=             -2.6212
  XXY=              8.2630  XXZ=             13.5906  XZZ=             -6.2995  YZZ=             -2.4744
  YYZ=              5.3687  XYZ=             -0.5751
 Hexadecapole moment (field-independent basis, Debye-Ang**3):
 XXXX=          -3532.2007 YYYY=           -617.0566 ZZZZ=           -314.0179 XXXY=            -12.8661
 XXXZ=            -80.0895 YYYX=              2.7976 YYYZ=             21.0459 ZZZX=            -31.3354
 ZZZY=              7.8084 XXYY=           -653.0275 XXZZ=           -548.6327 YYZZ=           -167.4125
 XXYZ=              4.9489 YYXZ=             -9.4772 ZZXY=              7.1466
 N-N= 9.169828379892D+02 E-N=-3.379987154366D+03  KE= 6.588623495482D+02
 Calling FoFJK, ICntrl=  10002127 FMM=F ISym2X=0 I1Cent= 0 IOpClX= 0 NMat=1 NMatS=1 NMatT=0.
 -------------------------------------------------------------------
 Center     Atomic                   Forces (Hartrees/Bohr)
 Number     Number              X              Y              Z
 -------------------------------------------------------------------
      1        8           0.001208176   -0.019001617   -0.000584034
      2        7           0.039893143    0.010360692    0.002818059
      3        8          -0.004077196    0.016660352    0.001852631
      4        6          -0.003122716    0.003527378    0.010340190
      5        6           0.002710397   -0.014973956   -0.003222888
      6        7           0.015652070   -0.004550524   -0.009948662
      7        6          -0.003146885    0.005513405    0.004868559
      8        1          -0.011829506   -0.001608006   -0.007150845
      9        6          -0.004027466    0.000922480   -0.002179203
     10        6           0.002718026   -0.001216844    0.000769149
     11        6          -0.001068774   -0.004342664   -0.002042686
     12        6           0.000637947   -0.009119085   -0.002933760
     13        6           0.010416725    0.000152828    0.000134935
     14        1           0.001250523    0.003684921   -0.010739035
     15        7          -0.000564294   -0.006404254    0.014971056
     16        6          -0.020949874    0.013917812   -0.009697291
     17        1           0.007268073   -0.007899661   -0.001184377
     18        1          -0.018309848   -0.002363634    0.001578645
     19        1           0.003260727    0.005702088    0.007441650
     20        1          -0.003023822   -0.007664077    0.002828514
     21        1          -0.003804029    0.002356721    0.009836365
     22        1          -0.004394587   -0.003978979   -0.007113704
     23        1           0.004336077    0.006008360    0.008983375
     24        1          -0.009551006    0.002416140   -0.001629152
     25        1          -0.001138709    0.010624019   -0.002464793
     26        1          -0.004876072   -0.004727893   -0.004071387
     27        1           0.004532902    0.006003999   -0.001461312
 -------------------------------------------------------------------
 Cartesian Forces:  Max     0.039893143 RMS     0.008644753

 GradGradGradGradGradGradGradGradGradGradGradGradGradGradGradGradGradGrad
 Berny optimization.
 FormGI is forming the generalized inverse of G from B-inverse, IUseBI=4.
 Internal  Forces:  Max     0.037989330 RMS     0.006988675
 Search for a local minimum.
 Step number   1 out of a maximum of   20
 All quantities printed in internal units (Hartrees-Bohrs-Radians)
 Mixed Optimization -- RFO/linear search
 Second derivative matrix not updated -- first step.
 ITU=  0
     Eigenvalues ---    0.00231   0.00777   0.01089   0.01151   0.01274
     Eigenvalues ---    0.01537   0.01572   0.01898   0.02037   0.02105
     Eigenvalues ---    0.02691   0.03467   0.04484   0.04585   0.04834
     Eigenvalues ---    0.05059   0.05139   0.05303   0.05692   0.06141
     Eigenvalues ---    0.06524   0.07263   0.07695   0.07771   0.07991
     Eigenvalues ---    0.08036   0.08047   0.10165   0.10643   0.11979
     Eigenvalues ---    0.12715   0.13125   0.15205   0.15966   0.15989
     Eigenvalues ---    0.19978   0.22079   0.23370   0.24990   0.25000
     Eigenvalues ---    0.25000   0.25135   0.26037   0.26644   0.27973
     Eigenvalues ---    0.28080   0.28439   0.29271   0.31431   0.31989
     Eigenvalues ---    0.32059   0.32238   0.32295   0.32383   0.32388
     Eigenvalues ---    0.32406   0.32517   0.32525   0.32588   0.33341
     Eigenvalues ---    0.33399   0.33624   0.35552   0.43886   0.44225
     Eigenvalues ---    0.49924   0.67178   0.90339   0.911601000.00000
     Eigenvalues --- 1000.000001000.000001000.000001000.000001000.00000
     Eigenvalues --- 1000.000001000.000001000.000001000.000001000.00000
     Eigenvalues --- 1000.000001000.000001000.000001000.000001000.00000
     Eigenvalues --- 1000.000001000.000001000.000001000.000001000.00000
     Eigenvalues --- 1000.000001000.000001000.000001000.000001000.00000
     Eigenvalues --- 1000.000001000.000001000.000001000.000001000.00000
     Eigenvalues --- 1000.000001000.000001000.000001000.000001000.00000
     Eigenvalues --- 1000.000001000.000001000.000001000.000001000.00000
     Eigenvalues --- 1000.000001000.000001000.000001000.000001000.00000
     Eigenvalues --- 1000.000001000.000001000.000001000.000001000.00000
     Eigenvalues --- 1000.000001000.000001000.000001000.000001000.00000
     Eigenvalues --- 1000.000001000.000001000.000001000.000001000.00000
     Eigenvalues --- 1000.000001000.000001000.000001000.000001000.00000
     Eigenvalues --- 1000.000001000.000001000.000001000.000001000.00000
     Eigenvalues --- 1000.000001000.000001000.000001000.000001000.00000
     Eigenvalues --- 1000.000001000.000001000.000001000.000001000.00000
     Eigenvalues --- 1000.000001000.000001000.000001000.000001000.00000
     Eigenvalues --- 1000.000001000.000001000.000001000.000001000.00000
     Eigenvalues --- 1000.00000
 RFO step:  Lambda=-2.45775995D-02 EMin= 2.31455098D-03
 Linear search not attempted -- first point.
 Iteration  1 RMS(Cart)=  0.05996929 RMS(Int)=  0.00118530
 Iteration  2 RMS(Cart)=  0.00138537 RMS(Int)=  0.00024034
 Iteration  3 RMS(Cart)=  0.00000078 RMS(Int)=  0.00024034
 Iteration  1 RMS(Cart)=  0.00002173 RMS(Int)=  0.00002581
 Iteration  2 RMS(Cart)=  0.00001290 RMS(Int)=  0.00002770
 Iteration  3 RMS(Cart)=  0.00001007 RMS(Int)=  0.00003063
 Iteration  4 RMS(Cart)=  0.00000919 RMS(Int)=  0.00003345
 Iteration  5 RMS(Cart)=  0.00000869 RMS(Int)=  0.00003608
 Iteration  6 RMS(Cart)=  0.00000820 RMS(Int)=  0.00003855
 Iteration  7 RMS(Cart)=  0.00000767 RMS(Int)=  0.00004088
 Iteration  8 RMS(Cart)=  0.00000713 RMS(Int)=  0.00004308
 Iteration  9 RMS(Cart)=  0.00000658 RMS(Int)=  0.00004515
 Iteration 10 RMS(Cart)=  0.00000606 RMS(Int)=  0.00004710
 Iteration 11 RMS(Cart)=  0.00000556 RMS(Int)=  0.00004892
 Iteration 12 RMS(Cart)=  0.00000509 RMS(Int)=  0.00005061
 Iteration 13 RMS(Cart)=  0.00000466 RMS(Int)=  0.00005218
 Iteration 14 RMS(Cart)=  0.00000426 RMS(Int)=  0.00005363
 Iteration 15 RMS(Cart)=  0.00000389 RMS(Int)=  0.00005497
 Iteration 16 RMS(Cart)=  0.00000355 RMS(Int)=  0.00005621
 Iteration 17 RMS(Cart)=  0.00000324 RMS(Int)=  0.00005736
 Iteration 18 RMS(Cart)=  0.00000296 RMS(Int)=  0.00005841
 Iteration 19 RMS(Cart)=  0.00000271 RMS(Int)=  0.00005937
 Iteration 20 RMS(Cart)=  0.00000247 RMS(Int)=  0.00006026
 Iteration 21 RMS(Cart)=  0.00000226 RMS(Int)=  0.00006108
 Iteration 22 RMS(Cart)=  0.00000206 RMS(Int)=  0.00006183
 Iteration 23 RMS(Cart)=  0.00000188 RMS(Int)=  0.00006251
 Iteration 24 RMS(Cart)=  0.00000172 RMS(Int)=  0.00006314
 Iteration 25 RMS(Cart)=  0.00000157 RMS(Int)=  0.00006372
 Iteration 26 RMS(Cart)=  0.00000143 RMS(Int)=  0.00006425
 Iteration 27 RMS(Cart)=  0.00000131 RMS(Int)=  0.00006473
 Iteration 28 RMS(Cart)=  0.00000120 RMS(Int)=  0.00006517
 Iteration 29 RMS(Cart)=  0.00000109 RMS(Int)=  0.00006558
 Iteration 30 RMS(Cart)=  0.00000100 RMS(Int)=  0.00006595
 Variable       Old X    -DE/DX   Delta X   Delta X   Delta X     New X
                                 (Linear)    (Quad)   (Total)
    R1        2.32403   0.01748   0.00000   0.01867   0.01867   2.34270
    R2        2.32777   0.01574   0.00000   0.01696   0.01696   2.34473
    R3        2.89442  -0.03799   0.00000  -0.11973  -0.11973   2.77469
    R4        2.64516  -0.03264   0.00000  -0.07090  -0.07068   2.57448
    R5        2.81650  -0.02547   0.00000  -0.07356  -0.07325   2.74325
    R6        2.58532  -0.02422   0.00000  -0.04647  -0.04647   2.53885
    R7        2.08357  -0.01077   0.00000  -0.03004  -0.03004   2.05353
    R8        2.81585  -0.01806   0.00000  -0.04943  -0.04970   2.76615
    R9        1.93292  -0.00658   0.00000  -0.01421  -0.01421   1.91871
   R10        2.11897  -0.01270   0.00000  -0.03747  -0.03747   2.08150
   R11        2.92770  -0.01289   0.00000  -0.04328  -0.04328   2.88442
   R12        2.89913  -0.00240   0.00000   0.00067   0.00074   2.89986
   R13        2.91149  -0.00446   0.00000  -0.01439  -0.01441   2.89708
   R14        2.09909  -0.00968   0.00000  -0.02768  -0.02768   2.07141
   R15        2.09894  -0.00829   0.00000  -0.02370  -0.02370   2.07524
   R16        2.90456  -0.00158   0.00000  -0.00727  -0.00733   2.89723
   R17        2.10139  -0.01055   0.00000  -0.03027  -0.03027   2.07112
   R18        2.10308  -0.00897   0.00000  -0.02580  -0.02580   2.07728
   R19        2.91772  -0.00926   0.00000  -0.02976  -0.02977   2.88795
   R20        2.10411  -0.01147   0.00000  -0.03307  -0.03307   2.07104
   R21        2.10107  -0.00995   0.00000  -0.02855  -0.02855   2.07251
   R22        2.93509  -0.01095   0.00000  -0.03691  -0.03689   2.89821
   R23        2.10149  -0.01081   0.00000  -0.03103  -0.03103   2.07046
   R24        2.09781  -0.00773   0.00000  -0.02205  -0.02205   2.07576
   R25        2.10736  -0.01032   0.00000  -0.02990  -0.02990   2.07746
   R26        2.76572  -0.00458   0.00000  -0.01000  -0.01033   2.75539
   R27        2.44298  -0.00286   0.00000  -0.00380  -0.00369   2.43929
   R28        2.07969  -0.00605   0.00000  -0.01677  -0.01677   2.06291
    A1        2.15469   0.01123   0.00000   0.04108   0.04087   2.19556
    A2        2.05574  -0.00626   0.00000  -0.02260  -0.02281   2.03292
    A3        2.07257  -0.00494   0.00000  -0.01779  -0.01800   2.05457
    A4        2.02082  -0.00927   0.00000  -0.03094  -0.03134   1.98948
    A5        2.02916  -0.00265   0.00000  -0.00693  -0.00734   2.02182
    A6        2.23295   0.01189   0.00000   0.03743   0.03806   2.27101
    A7        2.20658   0.00675   0.00000   0.02089   0.02130   2.22788
    A8        2.06281  -0.00397   0.00000  -0.01356  -0.01377   2.04904
    A9        2.01287  -0.00275   0.00000  -0.00704  -0.00727   2.00561
   A10        2.25140  -0.00696   0.00000  -0.02451  -0.02477   2.22663
   A11        2.10149  -0.01231   0.00000  -0.07196  -0.07226   2.02923
   A12        1.86305   0.01948   0.00000   0.10626   0.10659   1.96965
   A13        1.84029  -0.00228   0.00000  -0.02045  -0.02028   1.82001
   A14        2.00919  -0.00060   0.00000  -0.01774  -0.01793   1.99126
   A15        1.96512   0.00115   0.00000   0.00427   0.00387   1.96899
   A16        1.85123   0.00301   0.00000   0.02677   0.02664   1.87787
   A17        1.84902   0.00162   0.00000   0.02554   0.02526   1.87428
   A18        1.93512  -0.00250   0.00000  -0.01282  -0.01251   1.92262
   A19        1.90934   0.00022   0.00000  -0.00452  -0.00461   1.90473
   A20        1.92246  -0.00068   0.00000  -0.01434  -0.01434   1.90812
   A21        1.92248  -0.00183   0.00000  -0.00648  -0.00651   1.91597
   A22        1.91922  -0.00065   0.00000   0.00440   0.00433   1.92355
   A23        1.90581   0.00333   0.00000   0.02609   0.02608   1.93189
   A24        1.88435  -0.00036   0.00000  -0.00472  -0.00497   1.87938
   A25        1.94022  -0.00085   0.00000   0.00621   0.00613   1.94635
   A26        1.91876  -0.00073   0.00000  -0.00742  -0.00745   1.91131
   A27        1.90519   0.00028   0.00000  -0.00310  -0.00319   1.90201
   A28        1.91610   0.00062   0.00000   0.00669   0.00673   1.92284
   A29        1.89874   0.00190   0.00000   0.01145   0.01146   1.91020
   A30        1.88379  -0.00121   0.00000  -0.01430  -0.01438   1.86941
   A31        1.94447   0.00124   0.00000   0.00710   0.00722   1.95170
   A32        1.90230   0.00032   0.00000   0.00542   0.00540   1.90770
   A33        1.91745   0.00038   0.00000   0.00519   0.00515   1.92259
   A34        1.90670  -0.00138   0.00000  -0.01529  -0.01534   1.89136
   A35        1.91548  -0.00061   0.00000   0.00018   0.00007   1.91555
   A36        1.87608   0.00000   0.00000  -0.00307  -0.00311   1.87298
   A37        1.94570  -0.00362   0.00000  -0.02059  -0.02061   1.92509
   A38        1.90628   0.00257   0.00000   0.01535   0.01517   1.92145
   A39        1.91119   0.00169   0.00000   0.01518   0.01516   1.92635
   A40        1.90672   0.00053   0.00000  -0.00316  -0.00302   1.90370
   A41        1.91224  -0.00016   0.00000  -0.00331  -0.00321   1.90903
   A42        1.88053  -0.00091   0.00000  -0.00288  -0.00307   1.87746
   A43        1.84655   0.00527   0.00000   0.02404   0.02408   1.87063
   A44        1.93376  -0.00454   0.00000  -0.02459  -0.02503   1.90873
   A45        1.99194   0.00049   0.00000   0.00700   0.00723   1.99917
   A46        1.88497   0.00202   0.00000   0.02697   0.02717   1.91214
   A47        1.89175  -0.00429   0.00000  -0.03114  -0.03116   1.86059
   A48        1.91064   0.00125   0.00000  -0.00031  -0.00017   1.91047
   A49        2.10086  -0.00494   0.00000  -0.01195  -0.01247   2.08838
   A50        2.27165  -0.00654   0.00000  -0.02808  -0.02835   2.24331
   A51        1.97488   0.00389   0.00000   0.01436   0.01329   1.98817
   A52        2.03288   0.00263   0.00000   0.00784   0.00677   2.03965
    D1       -3.01998   0.00013   0.00000  -0.01844  -0.01794  -3.03792
    D2        0.14415   0.00133   0.00000   0.00000  -0.00000   0.14415
    D3        0.14180  -0.00184   0.00000  -0.05523  -0.05497   0.08683
    D4       -2.97725  -0.00064   0.00000  -0.03678  -0.03704  -3.01428
    D5        3.06408   0.00167   0.00000   0.02036   0.02046   3.08454
    D6       -0.02917   0.00105   0.00000   0.01320   0.01316  -0.01601
    D7       -0.10315   0.00003   0.00000  -0.00145  -0.00155  -0.10470
    D8        3.08679  -0.00059   0.00000  -0.00861  -0.00886   3.07793
    D9       -2.99827   0.00117   0.00000  -0.01670  -0.01701  -3.01529
   D10        0.24135   0.00120   0.00000   0.05865   0.05840   0.29976
   D11        0.16906   0.00289   0.00000   0.00550   0.00562   0.17468
   D12       -2.87450   0.00293   0.00000   0.08084   0.08104  -2.79347
   D13        0.17290  -0.00224   0.00000  -0.01919  -0.01889   0.15401
   D14        2.87501   0.00277   0.00000   0.03482   0.03388   2.90888
   D15       -3.01584  -0.00168   0.00000  -0.01240  -0.01192  -3.02776
   D16       -0.31373   0.00334   0.00000   0.04161   0.04084  -0.27288
   D17       -2.74246  -0.00001   0.00000   0.00444   0.00466  -2.73780
   D18        1.50694  -0.00188   0.00000  -0.00534  -0.00524   1.50170
   D19       -0.73430   0.00116   0.00000   0.02500   0.02468  -0.70962
   D20        0.79239   0.00099   0.00000  -0.01243  -0.01280   0.77959
   D21       -1.24139  -0.00088   0.00000  -0.02221  -0.02270  -1.26409
   D22        2.80055   0.00216   0.00000   0.00812   0.00722   2.80777
   D23        2.94456   0.00270   0.00000   0.02987   0.02958   2.97414
   D24       -1.22711   0.00160   0.00000   0.02337   0.02312  -1.20399
   D25        0.84960  -0.00041   0.00000   0.00458   0.00439   0.85399
   D26        0.91702   0.00384   0.00000   0.04712   0.04713   0.96415
   D27        3.02853   0.00274   0.00000   0.04063   0.04068   3.06920
   D28       -1.17795   0.00073   0.00000   0.02183   0.02194  -1.15600
   D29       -1.08253   0.00150   0.00000   0.00860   0.00870  -1.07383
   D30        1.02898   0.00040   0.00000   0.00210   0.00224   1.03122
   D31        3.10569  -0.00161   0.00000  -0.01670  -0.01649   3.08920
   D32       -2.89550  -0.00065   0.00000  -0.01839  -0.01824  -2.91374
   D33       -0.85681   0.00242   0.00000   0.01471   0.01456  -0.84225
   D34        1.30938   0.00084   0.00000   0.00000  -0.00001   1.30937
   D35       -0.89262  -0.00184   0.00000  -0.02562  -0.02554  -0.91816
   D36        1.14607   0.00124   0.00000   0.00749   0.00725   1.15333
   D37       -2.97092  -0.00035   0.00000  -0.00723  -0.00731  -2.97824
   D38        1.10830   0.00138   0.00000   0.01368   0.01375   1.12205
   D39       -3.13618   0.00445   0.00000   0.04678   0.04654  -3.08964
   D40       -0.97000   0.00286   0.00000   0.03207   0.03197  -0.93802
   D41        0.95666   0.00094   0.00000   0.00000  -0.00000   0.95666
   D42        3.08201   0.00066   0.00000   0.00754   0.00750   3.08950
   D43       -1.13795  -0.00108   0.00000  -0.01607  -0.01605  -1.15400
   D44       -1.15682   0.00206   0.00000   0.01784   0.01790  -1.13891
   D45        0.96853   0.00178   0.00000   0.02538   0.02540   0.99393
   D46        3.03176   0.00004   0.00000   0.00177   0.00186   3.03361
   D47        3.06181   0.00088   0.00000   0.00534   0.00531   3.06713
   D48       -1.09602   0.00061   0.00000   0.01288   0.01281  -1.08321
   D49        0.96720  -0.00113   0.00000  -0.01073  -0.01073   0.95647
   D50       -0.92192  -0.00078   0.00000   0.00000  -0.00000  -0.92192
   D51        1.18336  -0.00150   0.00000  -0.01099  -0.01100   1.17237
   D52       -3.04842  -0.00109   0.00000  -0.00853  -0.00857  -3.05699
   D53       -3.04882   0.00029   0.00000   0.00069   0.00070  -3.04812
   D54       -0.94353  -0.00043   0.00000  -0.01030  -0.01030  -0.95383
   D55        1.10787  -0.00003   0.00000  -0.00784  -0.00787   1.10000
   D56        1.17651   0.00027   0.00000   0.00740   0.00743   1.18394
   D57       -3.00139  -0.00045   0.00000  -0.00359  -0.00357  -3.00495
   D58       -0.94998  -0.00004   0.00000  -0.00113  -0.00114  -0.95112
   D59        0.98874  -0.00117   0.00000  -0.01082  -0.01084   0.97790
   D60        3.09747  -0.00112   0.00000  -0.01774  -0.01788   3.07959
   D61       -1.13022   0.00026   0.00000  -0.00344  -0.00339  -1.13361
   D62       -1.11396  -0.00145   0.00000  -0.01200  -0.01198  -1.12594
   D63        0.99477  -0.00140   0.00000  -0.01892  -0.01902   0.97575
   D64        3.05026  -0.00002   0.00000  -0.00463  -0.00453   3.04573
   D65        3.11638  -0.00028   0.00000   0.00060   0.00061   3.11699
   D66       -1.05807  -0.00024   0.00000  -0.00632  -0.00643  -1.06451
   D67        0.99742   0.00114   0.00000   0.00798   0.00806   1.00548
   D68       -1.05645  -0.00004   0.00000  -0.00257  -0.00248  -1.05893
   D69       -3.12781   0.00147   0.00000  -0.00005  -0.00041  -3.12822
   D70        1.08691   0.00123   0.00000   0.00250   0.00241   1.08932
   D71        3.11826  -0.00128   0.00000  -0.00646  -0.00632   3.11194
   D72        1.04690   0.00023   0.00000  -0.00395  -0.00424   1.04265
   D73       -1.02157  -0.00001   0.00000  -0.00140  -0.00142  -1.02299
   D74        1.06190  -0.00040   0.00000   0.00080   0.00099   1.06289
   D75       -1.00946   0.00111   0.00000   0.00331   0.00307  -1.00639
   D76       -3.07793   0.00087   0.00000   0.00586   0.00589  -3.07204
   D77       -1.17217   0.00632   0.00000   0.00000  -0.00001  -1.17218
   D78        3.05850   0.00233   0.00000  -0.01326  -0.01325   3.04525
   D79        1.00637   0.00166   0.00000  -0.02760  -0.02786   0.97851
   D80        0.37196  -0.00492   0.00000   0.00000  -0.00001   0.37195
   D81       -2.87033  -0.00492   0.00000  -0.07719  -0.07709  -2.94742
         Item               Value     Threshold  Converged?
 Maximum Force            0.037989     0.000450     NO 
 RMS     Force            0.007029     0.000300     NO 
 Maximum Displacement     0.316455     0.001800     NO 
 RMS     Displacement     0.060020     0.001200     NO 
 Predicted change in Energy=-1.372760D-02
 GradGradGradGradGradGradGradGradGradGradGradGradGradGradGradGradGradGrad

                          Input orientation:                          
 ---------------------------------------------------------------------
 Center     Atomic      Atomic             Coordinates (Angstroms)
 Number     Number       Type             X           Y           Z
 ---------------------------------------------------------------------
      1          8           0       -3.507690   -1.344428   -0.416757
      2          7           0       -3.107945   -0.181836   -0.257218
      3          8           0       -3.819879    0.834190   -0.237992
      4          6           0       -1.664423   -0.008237   -0.052240
      5          6           0       -1.296812    1.269660    0.244170
      6          7           0       -0.067079    1.721854    0.541276
      7          6           0        1.198932    0.993210    0.446679
      8          1           0        1.867582    1.518303    1.147001
      9          6           0        1.845638    1.044598   -0.934963
     10          6           0        3.260730    0.461072   -0.849424
     11          6           0        3.251628   -0.950849   -0.251979
     12          6           0        2.513412   -0.997129    1.085333
     13          6           0        1.085665   -0.460874    0.923787
     14          1           0        0.570744   -0.486827    1.894732
     15          7           0        0.408413   -1.353470   -0.009290
     16          6           0       -0.850704   -1.194807   -0.245209
     17          1           0       -2.082272    2.019561    0.283925
     18          1           0        0.056128    2.729616    0.529345
     19          1           0        1.239289    0.465591   -1.641092
     20          1           0        1.874863    2.082284   -1.293190
     21          1           0        3.711379    0.445832   -1.848361
     22          1           0        3.881462    1.118842   -0.224619
     23          1           0        2.751038   -1.634942   -0.946622
     24          1           0        4.278723   -1.312448   -0.121092
     25          1           0        2.469166   -2.027447    1.455351
     26          1           0        3.045133   -0.397549    1.836568
     27          1           0       -1.353100   -1.990788   -0.798116
 ---------------------------------------------------------------------
                    Distance matrix (angstroms):
                    1          2          3          4          5
     1  O    0.000000
     2  N    1.239705   0.000000
     3  O    2.208120   1.240777   0.000000
     4  C    2.305626   1.468301   2.321676   0.000000
     5  C    3.486869   2.374538   2.605375   1.362357   0.000000
     6  N    4.707198   3.675390   3.934300   2.428370   1.343501
     7  C    5.325633   4.519446   5.067794   3.074186   2.519162
     8  H    6.287617   5.442258   5.893508   4.030331   3.300049
     9  C    5.885074   5.147957   5.712103   3.769375   3.363926
    10  C    7.018443   6.428379   7.116747   5.011276   4.756149
    11  C    6.772772   6.405901   7.293338   5.009588   5.085777
    12  C    6.215349   5.836677   6.724247   4.441429   4.512615
    13  C    4.865865   4.365661   5.204929   2.953049   3.022056
    14  H    4.765720   4.272781   5.056794   3.002619   3.049158
    15  N    3.937255   3.714696   4.766195   2.471467   3.138924
    16  C    2.666719   2.474145   3.596232   1.451663   2.551882
    17  H    3.720106   2.488170   2.167206   2.097515   1.086682
    18  H    5.494883   4.371109   4.382337   3.285480   2.010782
    19  H    5.225799   4.607896   5.263054   3.343727   3.260759
    20  H    6.440680   5.570265   5.924633   4.293807   3.617093
    21  H    7.574264   7.030567   7.711288   5.686077   5.489932
    22  H    7.791288   7.109474   7.706611   5.661878   5.201637
    23  H    6.287832   6.075728   7.055191   4.789821   5.122479
    24  H    7.792091   7.473933   8.379086   6.084957   6.155266
    25  H    6.300326   6.119095   7.113962   4.841136   5.149802
    26  H    6.993822   6.503141   7.276632   5.089114   4.916077
    27  H    2.281551   2.577665   3.791997   2.140973   3.423456
                    6          7          8          9         10
     6  N    0.000000
     7  C    1.463781   0.000000
     8  H    2.037462   1.101484   0.000000
     9  C    2.509272   1.526369   2.135288   0.000000
    10  C    3.820724   2.492802   2.654112   1.533070   0.000000
    11  C    4.334329   2.912224   3.157442   2.534775   1.533148
    12  C    3.787849   2.469248   2.597749   2.948927   2.535373
    13  C    2.497886   1.534542   2.139710   2.509772   2.953839
    14  H    2.667758   2.163791   2.502287   3.460895   3.957895
    15  N    3.160195   2.517883   3.422465   2.945032   3.483404
    16  C    3.120823   3.076871   4.085131   3.572247   4.473354
    17  H    2.053256   3.441829   4.074004   4.226667   5.679880
    18  H    1.015336   2.080371   2.264982   2.861090   4.161342
    19  H    2.836816   2.153787   3.045722   1.096141   2.170941
    20  H    2.695611   2.161043   2.504528   1.098168   2.178504
    21  H    4.649230   3.446624   3.677224   2.161898   1.095990
    22  H    4.067087   2.768102   2.469134   2.157471   1.099249
    23  H    4.628574   3.355220   3.886735   2.828395   2.159284
    24  H    5.341509   3.888899   3.928717   3.483957   2.170750
    25  H    4.617935   3.428597   3.609616   3.942061   3.483000
    26  H    3.981899   2.697121   2.352152   3.346635   2.828120
    27  H    4.151088   4.119057   5.144900   4.411827   5.225101
                   11         12         13         14         15
    11  C    0.000000
    12  C    1.528237   0.000000
    13  C    2.512747   1.533665   0.000000
    14  H    3.465664   2.165524   1.099342   0.000000
    15  N    2.881818   2.399208   1.458092   2.098267   0.000000
    16  C    4.109585   3.623078   2.377969   2.664789   1.290816
    17  H    6.128704   5.555446   4.074040   3.989382   4.203192
    18  H    4.936346   4.498444   3.375612   3.531943   4.133501
    19  H    2.825853   3.346093   2.731399   3.722380   2.581108
    20  H    3.489913   3.943083   3.464891   4.296965   3.950099
    21  H    2.170374   3.481928   3.924448   4.974353   4.186795
    22  H    2.163575   2.839871   3.410398   4.246254   4.268578
    23  H    1.095948   2.142922   2.765923   3.761003   2.538840
    24  H    1.096727   2.161299   3.465916   4.300502   3.872142
    25  H    2.164783   1.095639   2.156568   2.484063   2.616509
    26  H    2.170440   1.098443   2.162566   2.476683   3.357569
    27  H    4.752185   4.414143   3.354574   3.635177   2.032572
                   16         17         18         19         20
    16  C    0.000000
    17  H    3.482658   0.000000
    18  H    4.101631   2.266531   0.000000
    19  H    3.012222   4.141652   3.352086   0.000000
    20  H    4.389340   4.260299   2.654896   1.771634   0.000000
    21  H    5.106309   6.371001   4.922400   2.480842   2.521701
    22  H    5.267521   6.052770   4.218559   3.068258   2.469110
    23  H    3.695706   6.183083   5.337639   2.679536   3.834782
    24  H    5.132277   7.192259   5.881468   3.835360   4.321639
    25  H    3.821874   6.202104   5.413860   4.161225   4.979715
    26  H    4.488537   5.877364   4.519087   4.012506   4.161069
    27  H    1.091647   4.217274   5.101989   3.669453   5.220609
                   21         22         23         24         25
    21  H    0.000000
    22  H    1.765902   0.000000
    23  H    2.462723   3.063082   0.000000
    24  H    2.529207   2.465706   1.766161   0.000000
    25  H    4.309839   3.836145   2.450099   2.504176   0.000000
    26  H    3.838474   2.692096   3.060030   2.488216   1.770206
    27  H    5.717436   6.115499   4.122212   5.712788   4.437248
                   26         27
    26  H    0.000000
    27  H    5.368839   0.000000
 Symmetry turned off by external request.
 Stoichiometry    C9H13N3O2
 Framework group  C1[X(C9H13N3O2)]
 Deg. of freedom    75
 Full point group                 C1      NOp   1
 Rotational constants (GHZ):           1.6518699           0.4235721           0.3752083
 Standard basis: 6-31G(d) (6D, 7F)
   236 basis functions,   444 primitive gaussians,   236 cartesian basis functions
    52 alpha electrons       52 beta electrons
       nuclear repulsion energy       932.1486162351 Hartrees.
 NAtoms=   27 NActive=   27 NUniq=   27 SFac= 1.00D+00 NAtFMM=   60 NAOKFM=F Big=F
 Integral buffers will be    131072 words long.
 Raffenetti 1 integral format.
 Two-electron integral symmetry is turned off.
 One-electron integrals computed using PRISM.
 NBasis=   236 RedAO= T EigKep=  1.00D-03  NBF=   236
 NBsUse=   236 1.00D-06 EigRej= -1.00D+00 NBFU=   236
 Initial guess from the checkpoint file:  "/home/alexey/tmp/Gau-1469190.chk"
 B after Tr=     0.060264    0.004770    0.006052
         Rot=    0.999999   -0.000999    0.000108    0.000858 Ang=  -0.15 deg.
 ExpMin= 1.61D-01 ExpMax= 5.48D+03 ExpMxC= 8.25D+02 IAcc=3 IRadAn=         5 AccDes= 0.00D+00
 Harris functional with IExCor=  205 and IRadAn=       5 diagonalized for initial guess.
 HarFok:  IExCor=  205 AccDes= 0.00D+00 IRadAn=         5 IDoV= 1 UseB2=F ITyADJ=14
 ICtDFT=  3500011 ScaDFX=  1.000000  1.000000  1.000000  1.000000
 FoFCou: FMM=F IPFlag=           0 FMFlag=      100000 FMFlg1=           0
         NFxFlg=           0 DoJE=T BraDBF=F KetDBF=T FulRan=T
         wScrn=  0.000000 ICntrl=       500 IOpCl=  0 I1Cent=   200000004 NGrid=           0
         NMat0=    1 NMatS0=      1 NMatT0=    0 NMatD0=    1 NMtDS0=    0 NMtDT0=    0
 Symmetry not used in FoFCou.
 Keep R1 ints in memory in canonical form, NReq=397720213.
 Requested convergence on RMS density matrix=1.00D-08 within 128 cycles.
 Requested convergence on MAX density matrix=1.00D-06.
 Requested convergence on             energy=1.00D-06.
 No special actions if energy rises.
 SCF Done:  E(RHF) =  -661.297212009     A.U. after   15 cycles
            NFock= 15  Conv=0.41D-08     -V/T= 2.0024
 ExpMin= 1.61D-01 ExpMax= 5.48D+03 ExpMxC= 8.25D+02 IAcc=3 IRadAn=         5 AccDes= 0.00D+00
 HarFok:  IExCor=  205 AccDes= 0.00D+00 IRadAn=         5 IDoV=-2 UseB2=F ITyADJ=14
 ICtDFT= 12500011 ScaDFX=  1.000000  1.000000  1.000000  1.000000
 Range of M.O.s used for correlation:    15   236
 NBasis=   236 NAE=    52 NBE=    52 NFC=    14 NFV=     0
 NROrb=    222 NOA=    38 NOB=    38 NVA=   184 NVB=   184
 Fully direct method using O(ONN) memory.
 JobTyp=1 Pass  1:  I=  15 to  52 NPSUse=  4 ParTrn=T ParDer=T DoDerP=T.
 Spin components of T(2) and E(2):
     alpha-alpha T2 =       0.9139867799D-01 E2=     -0.2725232895D+00
     alpha-beta  T2 =       0.4913866577D+00 E2=     -0.1488105665D+01
     beta-beta   T2 =       0.9139867799D-01 E2=     -0.2725232895D+00
[...]
                   16         17         18         19         20
    16  C    0.000000
    17  H    3.475428   0.000000
    18  H    4.118903   2.240462   0.000000
    19  H    2.982677   4.147219   3.511020   0.000000
    20  H    4.379805   4.298372   2.880200   1.768695   0.000000
    21  H    5.086316   6.392613   5.085779   2.499041   2.519720
    22  H    5.250459   6.054273   4.314157   3.070071   2.461291
    23  H    3.677465   6.184700   5.424002   2.704104   3.843155
    24  H    5.125138   7.188483   5.940405   3.849172   4.316959
    25  H    3.823876   6.171085   5.375066   4.171130   4.984674
    26  H    4.503277   5.865235   4.485576   4.031890   4.177913
    27  H    1.090086   4.229187   5.133375   3.616751   5.189235
                   21         22         23         24         25
    21  H    0.000000
    22  H    1.759035   0.000000
    23  H    2.470536   3.062739   0.000000
    24  H    2.517377   2.460161   1.764441   0.000000
    25  H    4.311426   3.837461   2.444033   2.519029   0.000000
    26  H    3.844623   2.700718   3.060590   2.494422   1.768812
    27  H    5.664401   6.073400   4.072222   5.677273   4.426429
                   26         27
    26  H    0.000000
    27  H    5.369242   0.000000
 Symmetry turned off by external request.
 Stoichiometry    C9H13N3O2
 Framework group  C1[X(C9H13N3O2)]
 Deg. of freedom    75
 Full point group                 C1      NOp   1
 Rotational constants (GHZ):           1.6462920           0.4224595           0.3751850

 **********************************************************************

            Population analysis using the SCF Density.

 **********************************************************************

 Alpha  occ. eigenvalues --  -20.59283 -20.58947 -15.84744 -15.64205 -15.55878
 Alpha  occ. eigenvalues --  -11.35022 -11.29585 -11.29512 -11.28763 -11.27114
 Alpha  occ. eigenvalues --  -11.23759 -11.23202 -11.22635 -11.22067  -1.57157
 Alpha  occ. eigenvalues --   -1.36747  -1.31063  -1.22849  -1.14671  -1.09796
 Alpha  occ. eigenvalues --   -1.02787  -1.01257  -0.94540  -0.89698  -0.85512
 Alpha  occ. eigenvalues --   -0.82507  -0.78724  -0.77352  -0.75210  -0.72072
 Alpha  occ. eigenvalues --   -0.69803  -0.69357  -0.67816  -0.64714  -0.63851
 Alpha  occ. eigenvalues --   -0.62305  -0.60237  -0.57827  -0.56874  -0.55145
 Alpha  occ. eigenvalues --   -0.54504  -0.50621  -0.50299  -0.48753  -0.48147
 Alpha  occ. eigenvalues --   -0.47401  -0.46170  -0.45913  -0.43713  -0.41877
 Alpha  occ. eigenvalues --   -0.39316  -0.33650
 Alpha virt. eigenvalues --    0.07414   0.11399   0.17213   0.21944   0.24352
 Alpha virt. eigenvalues --    0.26073   0.26998   0.28795   0.29177   0.29423
 Alpha virt. eigenvalues --    0.30746   0.31987   0.32063   0.32822   0.33884
 Alpha virt. eigenvalues --    0.34434   0.36079   0.37500   0.38578   0.40434
 Alpha virt. eigenvalues --    0.41146   0.42031   0.44599   0.46018   0.46486
 Alpha virt. eigenvalues --    0.47524   0.49085   0.54034   0.57603   0.59891
 Alpha virt. eigenvalues --    0.63748   0.69373   0.69659   0.73093   0.74089
 Alpha virt. eigenvalues --    0.74947   0.75684   0.76523   0.78706   0.79478
 Alpha virt. eigenvalues --    0.81553   0.83814   0.85488   0.85820   0.88673
 Alpha virt. eigenvalues --    0.88936   0.91719   0.91969   0.93018   0.94646
 Alpha virt. eigenvalues --    0.95388   0.97942   1.00125   1.01771   1.02315
 Alpha virt. eigenvalues --    1.03366   1.05891   1.07114   1.08269   1.09038
 Alpha virt. eigenvalues --    1.10666   1.11564   1.12063   1.12421   1.13956
 Alpha virt. eigenvalues --    1.14440   1.15190   1.15836   1.17173   1.18288
 Alpha virt. eigenvalues --    1.18772   1.21613   1.23289   1.23440   1.24037
 Alpha virt. eigenvalues --    1.25110   1.25955   1.27690   1.27868   1.29883
 Alpha virt. eigenvalues --    1.29996   1.33121   1.35679   1.37380   1.40539
 Alpha virt. eigenvalues --    1.42775   1.48607   1.49591   1.52159   1.54893
 Alpha virt. eigenvalues --    1.57947   1.58931   1.61029   1.62601   1.64868
 Alpha virt. eigenvalues --    1.67057   1.68001   1.72527   1.75669   1.79040
 Alpha virt. eigenvalues --    1.80926   1.84362   1.87440   1.89867   1.92639
 Alpha virt. eigenvalues --    1.95303   1.96005   1.99957   2.01356   2.03293
 Alpha virt. eigenvalues --    2.04469   2.06031   2.08394   2.09770   2.12434
 Alpha virt. eigenvalues --    2.12747   2.15428   2.18814   2.19988   2.22198
 Alpha virt. eigenvalues --    2.22738   2.24440   2.25126   2.28208   2.29131
 Alpha virt. eigenvalues --    2.30939   2.33660   2.34817   2.36304   2.38222
 Alpha virt. eigenvalues --    2.40117   2.43017   2.44874   2.45335   2.47560
 Alpha virt. eigenvalues --    2.50566   2.52592   2.53484   2.55808   2.59798
 Alpha virt. eigenvalues --    2.62663   2.66220   2.66893   2.69330   2.70381
 Alpha virt. eigenvalues --    2.71027   2.72142   2.76144   2.77959   2.83605
 Alpha virt. eigenvalues --    2.88602   2.89537   2.92296   2.93535   2.95785
 Alpha virt. eigenvalues --    2.99206   3.01090   3.04217   3.06346   3.08731
 Alpha virt. eigenvalues --    3.09625   3.16269   3.20962   3.24693   3.27493
 Alpha virt. eigenvalues --    3.33431   3.36487   3.38517   3.51902   3.66888
 Alpha virt. eigenvalues --    4.13492   4.27282   4.35142   4.39707   4.46924
 Alpha virt. eigenvalues --    4.55752   4.61671   4.62367   4.73340   4.79945
 Alpha virt. eigenvalues --    4.99707   5.00814   5.07212   5.09951
          Condensed to atoms (all electrons):
               1          2          3          4          5          6
     1  O    8.317418   0.305524  -0.083272  -0.084192   0.004458  -0.000015
     2  N    0.305524   5.717236   0.303473   0.265012  -0.056452   0.000930
     3  O   -0.083272   0.303473   8.352387  -0.093911   0.003876   0.000805
     4  C   -0.084192   0.265012  -0.093911   5.233459   0.562184  -0.049570
     5  C    0.004458  -0.056452   0.003876   0.562184   4.715110   0.321032
     6  N   -0.000015   0.000930   0.000805  -0.049570   0.321032   7.184878
     7  C    0.000003  -0.000160   0.000001   0.005942  -0.031350   0.174141
     8  H   -0.000000   0.000002  -0.000000  -0.000257   0.003371  -0.049244
     9  C   -0.000000  -0.000008  -0.000000   0.000624   0.000495  -0.064800
    10  C   -0.000000   0.000000   0.000000  -0.000034  -0.000047   0.003832
    11  C   -0.000000  -0.000000  -0.000000  -0.000030   0.000021  -0.000174
    12  C   -0.000000   0.000002  -0.000000  -0.000222  -0.000183   0.003773
    13  C   -0.000019  -0.000004  -0.000002  -0.009766  -0.000945  -0.049162
    14  H   -0.000001  -0.000059   0.000001   0.002164   0.004443  -0.005826
    15  N    0.000536   0.002291  -0.000015  -0.063270  -0.007581   0.001792
    16  C    0.000620  -0.025525   0.002588   0.323932  -0.052514   0.000325
    17  H    0.000234  -0.007132   0.017711  -0.022405   0.373552  -0.033031
    18  H    0.000001  -0.000051   0.000012   0.001504  -0.031182   0.339018
    19  H    0.000001  -0.000007  -0.000000  -0.001380   0.001669  -0.000906
    20  H    0.000000  -0.000000   0.000000  -0.000091   0.000102   0.000062
    21  H   -0.000000  -0.000000  -0.000000   0.000001   0.000001  -0.000082
    22  H   -0.000000   0.000000  -0.000000  -0.000000  -0.000003  -0.000113
    23  H    0.000000  -0.000000   0.000000   0.000044   0.000001  -0.000030
    24  H    0.000000   0.000000   0.000000   0.000000  -0.000000   0.000006
    25  H    0.000000  -0.000000   0.000000   0.000030  -0.000001  -0.000087
    26  H    0.000000  -0.000000   0.000000   0.000003   0.000001  -0.000066
    27  H    0.005982  -0.000976   0.000016  -0.066588   0.002365  -0.000008
               7          8          9         10         11         12
     1  O    0.000003  -0.000000  -0.000000  -0.000000  -0.000000  -0.000000
     2  N   -0.000160   0.000002  -0.000008   0.000000  -0.000000   0.000002
     3  O    0.000001  -0.000000  -0.000000   0.000000  -0.000000  -0.000000
     4  C    0.005942  -0.000257   0.000624  -0.000034  -0.000030  -0.000222
     5  C   -0.031350   0.003371   0.000495  -0.000047   0.000021  -0.000183
     6  N    0.174141  -0.049244  -0.064800   0.003832  -0.000174   0.003773
     7  C    5.033286   0.416595   0.353019  -0.054351  -0.009255  -0.061058
     8  H    0.416595   0.535726  -0.053378   0.000338  -0.000202  -0.002360
     9  C    0.353019  -0.053378   5.157773   0.326449  -0.050857  -0.004959
    10  C   -0.054351   0.000338   0.326449   5.116230   0.337284  -0.061603
    11  C   -0.009255  -0.000202  -0.050857   0.337284   5.121303   0.335757
    12  C   -0.061058  -0.002360  -0.004959  -0.061603   0.335757   5.120960
    13  C    0.328484  -0.036356  -0.061922   0.000145  -0.049986   0.371939
    14  H   -0.046403  -0.000704   0.004312  -0.000395   0.004210  -0.036865
    15  N   -0.061768   0.003911  -0.014372   0.001458  -0.013635  -0.083063
    16  C   -0.000637  -0.000117  -0.000595  -0.000084   0.000047   0.002411
    17  H    0.001555  -0.000061  -0.000043   0.000001   0.000000   0.000001
    18  H   -0.021687  -0.004758   0.001450  -0.000082   0.000004  -0.000109
    19  H   -0.036601   0.004273   0.391199  -0.032443  -0.002116   0.000676
    20  H   -0.043015  -0.002085   0.399231  -0.034950   0.003931  -0.000437
    21  H    0.004603  -0.000071  -0.036527   0.402405  -0.034945   0.004395
    22  H   -0.004857   0.003540  -0.047075   0.397828  -0.045266  -0.001042
    23  H    0.000657   0.000032  -0.002026  -0.038958   0.399154  -0.037938
    24  H   -0.000134  -0.000102   0.004406  -0.038408   0.402396  -0.038564
    25  H    0.005205  -0.000036  -0.000422   0.004206  -0.033361   0.397983
    26  H   -0.003746   0.001658   0.000959  -0.002246  -0.041515   0.396402
    27  H   -0.000425   0.000008  -0.000042   0.000004   0.000016  -0.000038
              13         14         15         16         17         18
     1  O   -0.000019  -0.000001   0.000536   0.000620   0.000234   0.000001
     2  N   -0.000004  -0.000059   0.002291  -0.025525  -0.007132  -0.000051
     3  O   -0.000002   0.000001  -0.000015   0.002588   0.017711   0.000012
     4  C   -0.009766   0.002164  -0.063270   0.323932  -0.022405   0.001504
     5  C   -0.000945   0.004443  -0.007581  -0.052514   0.373552  -0.031182
     6  N   -0.049162  -0.005826   0.001792   0.000325  -0.033031   0.339018
     7  C    0.328484  -0.046403  -0.061768  -0.000637   0.001555  -0.021687
     8  H   -0.036356  -0.000704   0.003911  -0.000117  -0.000061  -0.004758
     9  C   -0.061922   0.004312  -0.014372  -0.000595  -0.000043   0.001450
    10  C    0.000145  -0.000395   0.001458  -0.000084   0.000001  -0.000082
    11  C   -0.049986   0.004210  -0.013635   0.000047   0.000000   0.000004
    12  C    0.371939  -0.036865  -0.083063   0.002411   0.000001  -0.000109
    13  C    5.037044   0.406380   0.246484  -0.067286  -0.000053   0.002986
    14  H    0.406380   0.522731  -0.035553  -0.006352   0.000031  -0.000091
    15  N    0.246484  -0.035553   6.981274   0.581681  -0.000068  -0.000139
    16  C   -0.067286  -0.006352   0.581681   4.705931   0.001682  -0.000179
    17  H   -0.000053   0.000031  -0.000068   0.001682   0.373044  -0.002758
    18  H    0.002986  -0.000091  -0.000139  -0.000179  -0.002758   0.309450
    19  H   -0.007738   0.000096   0.007545   0.002362   0.000013  -0.000150
    20  H    0.004426  -0.000067   0.000146  -0.000047  -0.000005   0.000845
    21  H   -0.000456   0.000010  -0.000048   0.000005  -0.000000   0.000001
    22  H    0.000004  -0.000052   0.000028  -0.000001   0.000000   0.000001
    23  H   -0.007814  -0.000001   0.008729   0.000157   0.000000   0.000000
    24  H    0.004708  -0.000060   0.000120   0.000006   0.000000  -0.000000
    25  H   -0.035650  -0.002903   0.000928  -0.000047  -0.000000   0.000002
    26  H   -0.047567  -0.001009   0.004942  -0.000035   0.000000  -0.000000
    27  H    0.005021  -0.000146  -0.041825   0.407116  -0.000080   0.000000
              19         20         21         22         23         24
     1  O    0.000001   0.000000  -0.000000  -0.000000   0.000000   0.000000
     2  N   -0.000007  -0.000000  -0.000000   0.000000  -0.000000   0.000000
     3  O   -0.000000   0.000000  -0.000000  -0.000000   0.000000   0.000000
     4  C   -0.001380  -0.000091   0.000001  -0.000000   0.000044   0.000000
     5  C    0.001669   0.000102   0.000001  -0.000003   0.000001  -0.000000
     6  N   -0.000906   0.000062  -0.000082  -0.000113  -0.000030   0.000006
     7  C   -0.036601  -0.043015   0.004603  -0.004857   0.000657  -0.000134
     8  H    0.004273  -0.002085  -0.000071   0.003540   0.000032  -0.000102
     9  C    0.391199   0.399231  -0.036527  -0.047075  -0.002026   0.004406
    10  C   -0.032443  -0.034950   0.402405   0.397828  -0.038958  -0.038408
    11  C   -0.002116   0.003931  -0.034945  -0.045266   0.399154   0.402396
    12  C    0.000676  -0.000437   0.004395  -0.001042  -0.037938  -0.038564
    13  C   -0.007738   0.004426  -0.000456   0.000004  -0.007814   0.004708
    14  H    0.000096  -0.000067   0.000010  -0.000052  -0.000001  -0.000060
    15  N    0.007545   0.000146  -0.000048   0.000028   0.008729   0.000120
    16  C    0.002362  -0.000047   0.000005  -0.000001   0.000157   0.000006
    17  H    0.000013  -0.000005  -0.000000   0.000000   0.000000   0.000000
    18  H   -0.000150   0.000845   0.000001   0.000001   0.000000  -0.000000
    19  H    0.505141  -0.024888  -0.002767   0.003974   0.001517  -0.000069
    20  H   -0.024888   0.541361  -0.002750  -0.002993  -0.000044  -0.000083
    21  H   -0.002767  -0.002750   0.524362  -0.027431  -0.002902  -0.002255
    22  H    0.003974  -0.002993  -0.027431   0.571233   0.004131  -0.003632
    23  H    0.001517  -0.000044  -0.002902   0.004131   0.498666  -0.025424
    24  H   -0.000069  -0.000083  -0.002255  -0.003632  -0.025424   0.537753
    25  H   -0.000030   0.000013  -0.000087  -0.000082  -0.002259  -0.002315
    26  H    0.000021  -0.000030  -0.000080   0.002390   0.004066  -0.003006
    27  H    0.000069   0.000000  -0.000000   0.000000  -0.000037  -0.000000
              25         26         27
     1  O    0.000000   0.000000   0.005982
     2  N   -0.000000  -0.000000  -0.000976
     3  O    0.000000   0.000000   0.000016
     4  C    0.000030   0.000003  -0.066588
     5  C   -0.000001   0.000001   0.002365
     6  N   -0.000087  -0.000066  -0.000008
     7  C    0.005205  -0.003746  -0.000425
     8  H   -0.000036   0.001658   0.000008
     9  C   -0.000422   0.000959  -0.000042
    10  C    0.004206  -0.002246   0.000004
    11  C   -0.033361  -0.041515   0.000016
    12  C    0.397983   0.396402  -0.000038
    13  C   -0.035650  -0.047567   0.005021
    14  H   -0.002903  -0.001009  -0.000146
    15  N    0.000928   0.004942  -0.041825
    16  C   -0.000047  -0.000035   0.407116
    17  H   -0.000000   0.000000  -0.000080
    18  H    0.000002  -0.000000   0.000000
    19  H   -0.000030   0.000021   0.000069
    20  H    0.000013  -0.000030   0.000000
    21  H   -0.000087  -0.000080  -0.000000
    22  H   -0.000082   0.002390   0.000000
    23  H   -0.002259   0.004066  -0.000037
    24  H   -0.002315  -0.003006  -0.000000
    25  H    0.505621  -0.024000  -0.000017
    26  H   -0.024000   0.563036   0.000001
    27  H   -0.000017   0.000001   0.440546
 Mulliken charges:
               1
     1  O   -0.467279
     2  N    0.495904
     3  O   -0.503671
     4  C   -0.003183
     5  C    0.187577
     6  N   -0.777479
     7  C    0.051954
     8  H    0.180276
     9  C   -0.302893
    10  C   -0.326578
    11  C   -0.322781
    12  C   -0.305855
    13  C   -0.032895
    14  H    0.192109
    15  N   -0.520529
    16  C    0.124557
    17  H    0.297811
    18  H    0.405911
    19  H    0.190539
    20  H    0.161368
    21  H    0.174616
    22  H    0.149419
    23  H    0.200280
    24  H    0.164657
    25  H    0.187307
    26  H    0.149820
    27  H    0.249038
 Sum of Mulliken charges =  -0.00000
 Mulliken charges with hydrogens summed into heavy atoms:
               1
     1  O   -0.467279
     2  N    0.495904
     3  O   -0.503671
     4  C   -0.003183
     5  C    0.485388
     6  N   -0.371568
     7  C    0.232229
     9  C    0.049014
    10  C   -0.002544
    11  C    0.042156
    12  C    0.031272
    13  C    0.159214
    15  N   -0.520529
    16  C    0.373595
 Electronic spatial extent (au):  <R**2>=           2991.7661
 Charge=             -0.0000 electrons
 Dipole moment (field-independent basis, Debye):
    X=              5.3526    Y=              4.7003    Z=              1.7438  Tot=              7.3338
 Quadrupole moment (field-independent basis, Debye-Ang):
   XX=           -105.6180   YY=            -79.2612   ZZ=            -81.6625
   XY=             -1.1285   XZ=             -2.1704   YZ=              2.4017
 Traceless Quadrupole moment (field-independent basis, Debye-Ang):
   XX=            -16.7708   YY=              9.5861   ZZ=              7.1847
   XY=             -1.1285   XZ=             -2.1704   YZ=              2.4017
 Octapole moment (field-independent basis, Debye-Ang**2):
  XXX=             87.9273  YYY=             34.1322  ZZZ=              2.1874  XYY=             -5.1943
  XXY=              6.9769  XXZ=             14.8143  XZZ=             -8.9919  YZZ=             -0.3767
  YYZ=              9.8322  XYZ=             -0.9234
 Hexadecapole moment (field-independent basis, Debye-Ang**3):
 XXXX=          -3327.1317 YYYY=           -606.7075 ZZZZ=           -315.8593 XXXY=             -0.9329
 XXXZ=            -87.0507 YYYX=              7.7185 YYYZ=             30.6748 ZZZX=            -36.3457
 ZZZY=              9.1460 XXYY=           -623.5461 XXZZ=           -523.6374 YYZZ=           -160.1305
 XXYZ=              3.6397 YYXZ=            -12.8048 ZZXY=              8.8434
 N-N= 9.314190682159D+02 E-N=-3.409558573217D+03  KE= 6.596246080750D+02
 Unable to Open any file for archive entry.
 1\1\GINC-LOTUS\FOpt\RMP2-FC\6-31G(d)\C9H13N3O2\ALEXEY\02-Jul-2023\0\\#
 MP2/6-31G* SCF=Tight Opt=(ModRedun, MaxCycle=20 ) NoSymm\\MolName:\\0,
 1\O,-3.512112947,-1.3427939797,-0.4419960712\N,-3.0957244601,-0.179075
 5321,-0.2830768096\O,-3.836144631,0.8235759512,-0.3005049137\C,-1.6642
 628812,-0.0063211219,-0.0721957827\C,-1.2859476674,1.2693291567,0.2619
 754421\N,-0.0537428631,1.7323420777,0.5153722301\C,1.2048060146,1.0123
 793247,0.4319142673\H,1.8797233351,1.5420870016,1.1203905979\C,1.84348
 47018,1.0351561949,-0.9567548568\C,3.2526525584,0.4386696034,-0.866974
 6007\C,3.2474418838,-0.9612073772,-0.2478302402\C,2.5194853945,-0.9847
 968997,1.0973678396\C,1.0944163833,-0.4467146227,0.9297659531\H,0.5581
 293282,-0.4465206552,1.8897854199\N,0.4183897989,-1.3413128476,-0.0049
 934099\C,-0.8448898342,-1.1873026996,-0.2528841046\H,-2.0792639797,2.0
 080250112,0.334314575\H,0.0049613746,2.7154517965,0.7529107541\H,1.218
 0498467,0.456316547,-1.6454195339\H,1.8824792501,2.065265006,-1.332212
 3952\H,3.7070965028,0.4108965948,-1.864028048\H,3.8781587927,1.1061898
 242,-0.2573207191\H,2.740285717,-1.6584535224,-0.9224247912\H,4.276991
 431,-1.3178224249,-0.1250802168\H,2.4630775594,-2.0089251867,1.4804112
 591\H,3.0598168011,-0.3834437721,1.8415325469\H,-1.3173374103,-1.98801
 3448,-0.8220443916\\Version=ES64L-G16RevC.02\HF=-661.2974105\MP2=-663.
 3324063\RMSD=5.104e-09\RMSF=2.861e-03\Dipole=1.9716697,1.6651265,0.619
 7192\PG=C01 [X(C9H13N3O2)]\\@
 The archive entry for this job was punched.


 THE DIFFICULTY IN SCIENCE IS OFTEN NOT SO MUCH HOW
 TO MAKE A DISCOVERY BUT RATHER TO KNOW ONE HAS MADE IT.

                                                   -- J. D. BERNAL
 Job cpu time:       0 days  1 hours 16 minutes 53.5 seconds.
 Elapsed time:       0 days  0 hours 23 minutes  3.6 seconds.
 File lengths (MBytes):  RWF=     36 Int=      0 D2E=      0 Chk=      7 Scr=      1
 Normal termination of Gaussian 16 at Sun Jul  2 07:58:10 2023.
