 Entering Gaussian System, Link 0=g16
 Initial command:
 /home/alexey/programs//g16/l1.exe "/home/alexey/tmp/Gau-1245221.inp" -scrdir="/home/alexey/tmp/"
 Entering Link 1 = /home/alexey/programs//g16/l1.exe PID=   1245223.
  
 Copyright (c) 1988-2021, Gaussian, Inc.  All Rights Reserved.
  
 This is part of the Gaussian(R) 16 program.  It is based on
 the Gaussian(R) 09 system (copyright 2009, Gaussian, Inc.),
 the Gaussian(R) 03 system (copyright 2003, Gaussian, Inc.),
 the Gaussian(R) 98 system (copyright 1998, Gaussian, Inc.),
 the Gaussian(R) 94 system (copyright 1995, Gaussian, Inc.),
 the Gaussian 92(TM) system (copyright 1992, Gaussian, Inc.),
 the Gaussian 90(TM) system (copyright 1990, Gaussian, Inc.),
 the Gaussian 88(TM) system (copyright 1988, Gaussian, Inc.),
 the Gaussian 86(TM) system (copyright 1986, Carnegie Mellon
 University), and the Gaussian 82(TM) system (copyright 1983,
 Carnegie Mellon University). Gaussian is a federally registered
 trademark of Gaussian, Inc.
  
 This software contains proprietary and confidential information,
 including trade secrets, belonging to Gaussian, Inc.
  
 This software is provided under written license and may be
 used, copied, transmitted, or stored only in accord with that
 written license.
  
 The following legend is applicable only to US Government
 contracts under FAR:
  
                    RESTRICTED RIGHTS LEGEND
  
 Use, reproduction and disclosure by the US Government is
 subject to restrictions as set forth in subparagraphs (a)
 and (c) of the Commercial Computer Software - Restricted
 Rights clause in FAR 52.227-19.
  
 Gaussian, Inc.
 340 Quinnipiac St., Bldg. 40, Wallingford CT 06492
  
  
 ---------------------------------------------------------------
 Warning -- This program may not be used in any manner that
 competes with the business of Gaussian, Inc. or will provide
 assistance to any competitor of Gaussian, Inc.  The licensee
 of this program is prohibited from giving any competitor of
 Gaussian, Inc. access to this program.  By using this program,
 the user acknowledges that Gaussian, Inc. is engaged in the
 business of creating and licensing software in the field of
 computational chemistry and represents and warrants to the
 licensee that it is not a competitor of Gaussian, Inc. and that
 it will not use this program in any manner prohibited above.
 ---------------------------------------------------------------
  

 Cite this work as:
 Gaussian 16, Revision C.02,
 M. J. Frisch, G. W. Trucks, H. B. Schlegel, G. E. Scuseria, 
 M. A. Robb, J. R. Cheeseman, G. Scalmani, V. Barone, 
 G. A. Petersson, H. Nakatsuji, X. Li, M. Caricato, A. V. Marenich, 
 J. Bloino, B. G. Janesko, R. Gomperts, B. Mennucci, H. P. Hratchian, 
 J. V. Ortiz, A. F. Izmaylov, J. L. Sonnenberg, D. Williams-Young, 
 F. Ding, F. Lipparini, F. Egidi, J. Goings, B. Peng, A. Petrone, 
 T. Henderson, D. Ranasinghe, V. G. Zakrzewski, J. Gao, N. Rega, 
 G. Zheng, W. Liang, M. Hada, M. Ehara, K. Toyota, R. Fukuda, 
 J. Hasegawa, M. Ishida, T. Nakajima, Y. Honda, O. Kitao, H. Nakai, 
 T. Vreven, K. Throssell, J. A. Montgomery, Jr., J. E. Peralta, 
 F. Ogliaro, M. J. Bearpark, J. J. Heyd, E. N. Brothers, K. N. Kudin, 
 V. N. Staroverov, T. A. Keith, R. Kobayashi, J. Normand, 
 K. Raghavachari, A. P. Rendell, J. C. Burant, S. S. Iyengar, 
 J. Tomasi, M. Cossi, J. M. Millam, M. Klene, C. Adamo, R. Cammi, 
 J. W. Ochterski, R. L. Martin, K. Morokuma, O. Farkas, 
 J. B. Foresman, and D. J. Fox, Gaussian, Inc., Wallingford CT, 2019.
 
 ******************************************
 Gaussian 16:  ES64L-G16RevC.02  7-Dec-2021
                 1-Jul-2023 
 ******************************************
 %mem=8GB
 %NPROCS=4
 Will use up to    4 processors via shared memory.
 %NoSave
 ---------------------------------------------------------
 #MP2/6-31G* SCF=Tight Opt=(ModRedun, MaxCycle=20 ) NoSymm
 ---------------------------------------------------------
 1/6=20,18=120,19=15,38=1/1,3;
 2/9=110,12=2,15=1,17=6,18=5,40=1/2;
 3/5=1,6=6,7=1,11=9,25=1,30=1,71=1/1,2,3;
 4//1;
 5/5=2,32=2,38=5/2;
 8/6=4,10=2/1;
 9/15=2,16=-3/6;
 10/5=1,31=1/2;
 6/7=2,8=2,9=2,10=2/1;
 7/12=2,30=1/1,2,3,16;
 1/6=20,18=20,19=15/3(2);
 2/9=110,15=1/2;
 99//99;
 2/9=110,15=1/2;
 3/5=1,6=6,7=1,11=9,25=1,30=1,71=1/1,2,3;
 4/5=5,16=3,69=1/1;
 5/5=2,32=2,38=5/2;
 8/6=4,10=2/1;
 9/15=2,16=-3/6;
 10/5=1,31=1/2;
 7/12=2,30=1/1,2,3,16;
 1/6=20,18=20,19=15/3(-8);
 2/9=110,15=1/2;
 6/7=2,8=2,9=2,10=2/1;
 99/9=10/99;
 --------
 MolName:
 --------
 Symbolic Z-matrix:
 Charge =  0 Multiplicity = 1
 8                    0    -3.47733  -1.62146   0.05649 
 7                    0    -3.1898   -0.45179   0.30075 
 8                    0    -3.97039   0.37391   0.77335 
 6                    0    -1.77604  -0.00537   0.00481 
 6                    0    -1.37249   1.29347   0.36853 
 7                    0    -0.10214   1.79223   0.11181 
 6                    0     1.2072    1.04089   0.21441 
 1                    0     1.78429   1.54808   1.02699 
 6                    0     2.10261   1.05542  -1.04568 
 6                    0     3.46414   0.42392  -0.70571 
 6                    0     3.28062  -0.98167  -0.11303 
 6                    0     2.29751  -0.96723   1.07879 
 6                    0     0.90758  -0.37936   0.69366 
 1                    0     0.30596  -0.40234   1.63442 
 7                    0     0.32451  -1.24949  -0.34 
 6                    0    -0.86768  -0.91973  -0.72511 
 1                    0    -2.08663   1.95202   0.89027 
 1                    0     0.06959   2.73405  -0.24862 
 1                    0     1.61607   0.48649  -1.86672 
 1                    0     2.2579    2.09873  -1.39342 
 1                    0     4.09776   0.36957  -1.61787 
 1                    0     3.98864   1.06278   0.03957 
 1                    0     2.88625  -1.6599   -0.90318 
 1                    0     4.2632   -1.38528   0.21513 
 1                    0     2.16233  -2.0065    1.45099 
 1                    0     2.73354  -0.36774   1.90545 
 1                    0    -1.34618  -1.47071  -1.54807 
 
 The following ModRedundant input section has been read:
 D      13      15      16       4 F                                           
 D       1       2       4      16 F                                           
 D       7      13      15      16 F                                           
 D       7       9      10      11 F                                           
 D       9      10      11      12 F                                           
 D       6       7      13      15 F                                           
 

 GradGradGradGradGradGradGradGradGradGradGradGradGradGradGradGradGradGrad
 Berny optimization.
 Initialization pass.
                           ----------------------------
                           !    Initial Parameters    !
                           ! (Angstroms and Degrees)  !
 --------------------------                            --------------------------
 ! Name  Definition              Value          Derivative Info.                !
 --------------------------------------------------------------------------------
 ! R1    R(1,2)                  1.229          estimate D2E/DX2                !
 ! R2    R(2,3)                  1.2306         estimate D2E/DX2                !
 ! R3    R(2,4)                  1.5118         estimate D2E/DX2                !
 ! R4    R(4,5)                  1.4079         estimate D2E/DX2                !
 ! R5    R(4,16)                 1.4812         estimate D2E/DX2                !
 ! R6    R(5,6)                  1.3887         estimate D2E/DX2                !
 ! R7    R(5,17)                 1.1027         estimate D2E/DX2                !
 ! R8    R(6,7)                  1.5131         estimate D2E/DX2                !
 ! R9    R(6,18)                 1.0229         estimate D2E/DX2                !
 ! R10   R(7,8)                  1.1183         estimate D2E/DX2                !
 ! R11   R(7,9)                  1.5459         estimate D2E/DX2                !
 ! R12   R(7,13)                 1.5286         estimate D2E/DX2                !
 ! R13   R(9,10)                 1.5389         estimate D2E/DX2                !
 ! R14   R(9,19)                 1.1111         estimate D2E/DX2                !
 ! R15   R(9,20)                 1.1106         estimate D2E/DX2                !
 ! R16   R(10,11)                1.5364         estimate D2E/DX2                !
 ! R17   R(10,21)                1.112          estimate D2E/DX2                !
 ! R18   R(10,22)                1.113          estimate D2E/DX2                !
 ! R19   R(11,12)                1.545          estimate D2E/DX2                !
 ! R20   R(11,23)                1.1135         estimate D2E/DX2                !
 ! R21   R(11,24)                1.1118         estimate D2E/DX2                !
 ! R22   R(12,13)                1.5575         estimate D2E/DX2                !
 ! R23   R(12,25)                1.1122         estimate D2E/DX2                !
 ! R24   R(12,26)                1.1104         estimate D2E/DX2                !
 ! R25   R(13,14)                1.1169         estimate D2E/DX2                !
 ! R26   R(13,15)                1.4716         estimate D2E/DX2                !
 ! R27   R(15,16)                1.2955         estimate D2E/DX2                !
 ! R28   R(16,27)                1.0999         estimate D2E/DX2                !
 ! A1    A(1,2,3)              124.5058         estimate D2E/DX2                !
 ! A2    A(1,2,4)              117.4454         estimate D2E/DX2                !
 ! A3    A(3,2,4)              118.0479         estimate D2E/DX2                !
 ! A4    A(2,4,5)              119.3334         estimate D2E/DX2                !
 ! A5    A(2,4,16)             119.1871         estimate D2E/DX2                !
 ! A6    A(5,4,16)             121.4011         estimate D2E/DX2                !
 ! A7    A(4,5,6)              123.0789         estimate D2E/DX2                !
 ! A8    A(4,5,17)             119.1812         estimate D2E/DX2                !
 ! A9    A(6,5,17)             117.7376         estimate D2E/DX2                !
 ! A10   A(5,6,7)              126.9219         estimate D2E/DX2                !
 ! A11   A(5,6,18)             123.3246         estimate D2E/DX2                !
 ! A12   A(7,6,18)             109.6213         estimate D2E/DX2                !
 ! A13   A(6,7,8)              105.7012         estimate D2E/DX2                !
 ! A14   A(6,7,9)              116.1859         estimate D2E/DX2                !
 ! A15   A(6,7,13)             108.2409         estimate D2E/DX2                !
 ! A16   A(8,7,9)              106.8055         estimate D2E/DX2                !
 ! A17   A(8,7,13)             107.1416         estimate D2E/DX2                !
 ! A18   A(9,7,13)             112.1992         estimate D2E/DX2                !
 ! A19   A(7,9,10)             109.1797         estimate D2E/DX2                !
 ! A20   A(7,9,19)             110.1138         estimate D2E/DX2                !
 ! A21   A(7,9,20)             110.1834         estimate D2E/DX2                !
 ! A22   A(10,9,19)            109.9107         estimate D2E/DX2                !
 ! A23   A(10,9,20)            109.3264         estimate D2E/DX2                !
 ! A24   A(19,9,20)            108.1115         estimate D2E/DX2                !
 ! A25   A(9,10,11)            110.7909         estimate D2E/DX2                !
 ! A26   A(9,10,21)            110.0589         estimate D2E/DX2                !
 ! A27   A(9,10,22)            109.2284         estimate D2E/DX2                !
 ! A28   A(11,10,21)           109.8637         estimate D2E/DX2                !
 ! A29   A(11,10,22)           108.8512         estimate D2E/DX2                !
 ! A30   A(21,10,22)           107.9889         estimate D2E/DX2                !
 ! A31   A(10,11,12)           111.4085         estimate D2E/DX2                !
 ! A32   A(10,11,23)           109.0141         estimate D2E/DX2                !
 ! A33   A(10,11,24)           109.9019         estimate D2E/DX2                !
 ! A34   A(12,11,23)           109.1303         estimate D2E/DX2                !
 ! A35   A(12,11,24)           109.7589         estimate D2E/DX2                !
 ! A36   A(23,11,24)           107.5386         estimate D2E/DX2                !
 ! A37   A(11,12,13)           112.3724         estimate D2E/DX2                !
 ! A38   A(11,12,25)           109.0724         estimate D2E/DX2                !
 ! A39   A(11,12,26)           109.2367         estimate D2E/DX2                !
 ! A40   A(13,12,25)           109.0863         estimate D2E/DX2                !
 ! A41   A(13,12,26)           109.3146         estimate D2E/DX2                !
 ! A42   A(25,12,26)           107.6439         estimate D2E/DX2                !
 ! A43   A(7,13,12)            104.6728         estimate D2E/DX2                !
 ! A44   A(7,13,14)            112.8782         estimate D2E/DX2                !
 ! A45   A(7,13,15)            114.0054         estimate D2E/DX2                !
 ! A46   A(12,13,14)           105.3461         estimate D2E/DX2                !
 ! A47   A(12,13,15)           107.7041         estimate D2E/DX2                !
 ! A48   A(14,13,15)           111.4719         estimate D2E/DX2                !
 ! A49   A(13,15,16)           115.0187         estimate D2E/DX2                !
 ! A50   A(4,16,15)            125.0988         estimate D2E/DX2                !
 ! A51   A(4,16,27)            114.277          estimate D2E/DX2                !
 ! A52   A(15,16,27)           119.6859         estimate D2E/DX2                !
 ! D1    D(1,2,4,5)           -174.9137         estimate D2E/DX2                !
 ! D2    D(1,2,4,16)             8.2589         Frozen                          !
 ! D3    D(3,2,4,5)              4.7622         estimate D2E/DX2                !
 ! D4    D(3,2,4,16)          -172.0652         estimate D2E/DX2                !
 ! D5    D(2,4,5,6)           -178.7627         estimate D2E/DX2                !
 ! D6    D(2,4,5,17)             1.8064         estimate D2E/DX2                !
 ! D7    D(16,4,5,6)            -2.0078         estimate D2E/DX2                !
 ! D8    D(16,4,5,17)          178.5613         estimate D2E/DX2                !
 ! D9    D(2,4,16,15)         -128.7209         estimate D2E/DX2                !
 ! D10   D(2,4,16,27)           40.0965         estimate D2E/DX2                !
 ! D11   D(5,4,16,15)           54.5196         estimate D2E/DX2                !
 ! D12   D(5,4,16,27)         -136.6631         estimate D2E/DX2                !
 ! D13   D(4,5,6,7)            -39.024          estimate D2E/DX2                !
 ! D14   D(4,5,6,18)           136.353          estimate D2E/DX2                !
 ! D15   D(17,5,6,7)           140.4146         estimate D2E/DX2                !
 ! D16   D(17,5,6,18)          -44.2084         estimate D2E/DX2                !
 ! D17   D(5,6,7,8)           -116.0571         estimate D2E/DX2                !
 ! D18   D(5,6,7,9)            125.7192         estimate D2E/DX2                !
 ! D19   D(5,6,7,13)            -1.5375         estimate D2E/DX2                !
 ! D20   D(18,6,7,8)            68.043          estimate D2E/DX2                !
 ! D21   D(18,6,7,9)           -50.1807         estimate D2E/DX2                !
 ! D22   D(18,6,7,13)         -177.4374         estimate D2E/DX2                !
 ! D23   D(6,7,9,10)           172.0439         estimate D2E/DX2                !
 ! D24   D(6,7,9,19)           -67.2006         estimate D2E/DX2                !
 ! D25   D(6,7,9,20)            51.9652         estimate D2E/DX2                !
 ! D26   D(8,7,9,10)            54.4277         estimate D2E/DX2                !
 ! D27   D(8,7,9,19)           175.1831         estimate D2E/DX2                !
 ! D28   D(8,7,9,20)           -65.651          estimate D2E/DX2                !
 ! D29   D(13,7,9,10)          -62.6874         estimate D2E/DX2                !
 ! D30   D(13,7,9,19)           58.068          estimate D2E/DX2                !
 ! D31   D(13,7,9,20)          177.2339         estimate D2E/DX2                !
 ! D32   D(6,7,13,12)         -167.544          estimate D2E/DX2                !
 ! D33   D(6,7,13,14)          -53.5013         estimate D2E/DX2                !
 ! D34   D(6,7,13,15)           75.0223         Frozen                          !
 ! D35   D(8,7,13,12)          -53.976          estimate D2E/DX2                !
 ! D36   D(8,7,13,14)           60.0667         estimate D2E/DX2                !
 ! D37   D(8,7,13,15)         -171.4097         estimate D2E/DX2                !
 ! D38   D(9,7,13,12)           62.9379         estimate D2E/DX2                !
 ! D39   D(9,7,13,14)          176.9806         estimate D2E/DX2                !
 ! D40   D(9,7,13,15)          -54.4958         estimate D2E/DX2                !
 ! D41   D(7,9,10,11)           54.8121         Frozen                          !
 ! D42   D(7,9,10,21)          176.5178         estimate D2E/DX2                !
 ! D43   D(7,9,10,22)          -65.0865         estimate D2E/DX2                !
 ! D44   D(19,9,10,11)         -66.0673         estimate D2E/DX2                !
 ! D45   D(19,9,10,21)          55.6384         estimate D2E/DX2                !
 ! D46   D(19,9,10,22)         174.0341         estimate D2E/DX2                !
 ! D47   D(20,9,10,11)         175.4167         estimate D2E/DX2                !
 ! D48   D(20,9,10,21)         -62.8776         estimate D2E/DX2                !
 ! D49   D(20,9,10,22)          55.518          estimate D2E/DX2                !
 ! D50   D(9,10,11,12)         -52.8226         Frozen                          !
 ! D51   D(9,10,11,23)          67.67           estimate D2E/DX2                !
 ! D52   D(9,10,11,24)        -174.7012         estimate D2E/DX2                !
 ! D53   D(21,10,11,12)       -174.6427         estimate D2E/DX2                !
 ! D54   D(21,10,11,23)        -54.1501         estimate D2E/DX2                !
 ! D55   D(21,10,11,24)         63.4787         estimate D2E/DX2                !
 ! D56   D(22,10,11,12)         67.3015         estimate D2E/DX2                !
 ! D57   D(22,10,11,23)       -172.2059         estimate D2E/DX2                !
 ! D58   D(22,10,11,24)        -54.5771         estimate D2E/DX2                !
 ! D59   D(10,11,12,13)         56.6715         estimate D2E/DX2                !
 ! D60   D(10,11,12,25)        177.7663         estimate D2E/DX2                !
 ! D61   D(10,11,12,26)        -64.8261         estimate D2E/DX2                !
 ! D62   D(23,11,12,13)        -63.7528         estimate D2E/DX2                !
 ! D63   D(23,11,12,25)         57.342          estimate D2E/DX2                !
 ! D64   D(23,11,12,26)        174.7497         estimate D2E/DX2                !
 ! D65   D(24,11,12,13)        178.6329         estimate D2E/DX2                !
 ! D66   D(24,11,12,25)        -60.2723         estimate D2E/DX2                !
 ! D67   D(24,11,12,26)         57.1353         estimate D2E/DX2                !
 ! D68   D(11,12,13,7)         -59.48           estimate D2E/DX2                !
 ! D69   D(11,12,13,14)       -178.7284         estimate D2E/DX2                !
 ! D70   D(11,12,13,15)         62.1901         estimate D2E/DX2                !
 ! D71   D(25,12,13,7)         179.4331         estimate D2E/DX2                !
 ! D72   D(25,12,13,14)         60.1848         estimate D2E/DX2                !
 ! D73   D(25,12,13,15)        -58.8968         estimate D2E/DX2                !
 ! D74   D(26,12,13,7)          61.9731         estimate D2E/DX2                !
 ! D75   D(26,12,13,14)        -57.2753         estimate D2E/DX2                !
 ! D76   D(26,12,13,15)       -176.3569         estimate D2E/DX2                !
 ! D77   D(7,13,15,16)         -67.1557         Frozen                          !
 ! D78   D(12,13,15,16)        177.1718         estimate D2E/DX2                !
 ! D79   D(14,13,15,16)         62.0788         estimate D2E/DX2                !
 ! D80   D(13,15,16,4)         -16.3707         Frozen                          !
 ! D81   D(13,15,16,27)        175.3707         estimate D2E/DX2                !
 --------------------------------------------------------------------------------
 Trust Radius=3.00D-01 FncErr=1.00D-07 GrdErr=1.00D-07 EigMax=2.50D+02 EigMin=1.00D-04
 Number of steps in this run=     20 maximum allowed number of steps=    162.
 GradGradGradGradGradGradGradGradGradGradGradGradGradGradGradGradGradGrad

                          Input orientation:                          
 ---------------------------------------------------------------------
 Center     Atomic      Atomic             Coordinates (Angstroms)
 Number     Number       Type             X           Y           Z
 ---------------------------------------------------------------------
      1          8           0       -3.477330   -1.621460    0.056490
      2          7           0       -3.189800   -0.451790    0.300750
      3          8           0       -3.970390    0.373910    0.773350
      4          6           0       -1.776040   -0.005370    0.004810
      5          6           0       -1.372490    1.293470    0.368530
      6          7           0       -0.102140    1.792230    0.111810
      7          6           0        1.207200    1.040890    0.214410
      8          1           0        1.784290    1.548080    1.026990
      9          6           0        2.102610    1.055420   -1.045680
     10          6           0        3.464140    0.423920   -0.705710
     11          6           0        3.280620   -0.981670   -0.113030
     12          6           0        2.297510   -0.967230    1.078790
     13          6           0        0.907580   -0.379360    0.693660
     14          1           0        0.305960   -0.402340    1.634420
     15          7           0        0.324510   -1.249490   -0.340000
     16          6           0       -0.867680   -0.919730   -0.725110
     17          1           0       -2.086630    1.952020    0.890270
     18          1           0        0.069590    2.734050   -0.248620
     19          1           0        1.616070    0.486490   -1.866720
     20          1           0        2.257900    2.098730   -1.393420
     21          1           0        4.097760    0.369570   -1.617870
     22          1           0        3.988640    1.062780    0.039570
     23          1           0        2.886250   -1.659900   -0.903180
     24          1           0        4.263200   -1.385280    0.215130
     25          1           0        2.162330   -2.006500    1.450990
     26          1           0        2.733540   -0.367740    1.905450
     27          1           0       -1.346180   -1.470710   -1.548070
 ---------------------------------------------------------------------
                    Distance matrix (angstroms):
                    1          2          3          4          5
     1  O    0.000000
     2  N    1.229010   0.000000
     3  O    2.176809   1.230631   0.000000
     4  C    2.347084   1.511816   2.355776   0.000000
     5  C    3.608952   2.520544   2.785418   1.407881   0.000000
     6  N    4.800859   3.821645   4.172844   2.458609   1.388689
     7  C    5.390535   4.644261   5.250211   3.168330   2.596604
     8  H    6.218722   5.410035   5.878720   4.016716   3.234757
     9  C    6.286191   5.665171   6.376100   4.156047   3.759385
    10  C    7.276574   6.786365   7.580393   5.305527   5.030219
    11  C    6.790284   6.505253   7.429698   5.151394   5.201884
    12  C    5.901008   5.566111   6.417049   4.321159   4.368539
    13  C    4.601764   4.116813   4.936432   2.795747   2.846540
    14  H    4.276611   3.741852   4.430708   2.673563   2.701008
    15  N    3.840515   3.660227   4.724526   2.465571   3.138227
    16  C    2.813112   2.581395   3.680448   1.481201   2.519749
    17  H    3.924155   2.709764   2.460214   2.170687   1.102677
    18  H    5.625318   4.590752   4.789167   3.312854   2.129728
    19  H    5.838229   5.354875   6.179901   3.905248   3.818252
    20  H    6.988198   6.249224   6.816267   4.759722   4.114929
    21  H    8.009349   7.580519   8.415046   6.105342   5.892623
    22  H    7.933860   7.341126   8.022414   5.862908   5.376165
    23  H    6.435650   6.310892   7.345791   5.029798   5.336338
    24  H    7.745757   7.511720   8.437912   6.198452   6.241813
    25  H    5.822255   5.690823   6.613305   4.648302   4.955449
    26  H    6.600407   6.137433   6.839179   4.907143   4.688414
    27  H    2.671917   2.802725   3.959557   2.177943   3.363739
                    6          7          8          9         10
     6  N    0.000000
     7  C    1.513080   0.000000
     8  H    2.110872   1.118285   0.000000
     9  C    2.596843   1.545897   2.154066   0.000000
    10  C    3.906272   2.514170   2.662307   1.538875   0.000000
    11  C    4.380427   2.914968   3.152504   2.531260   1.536435
    12  C    3.782590   2.443046   2.567657   2.939808   2.545734
    13  C    2.464526   1.528582   2.143538   2.551861   3.023160
    14  H    2.702041   2.216207   2.521620   3.540615   4.016592
    15  N    3.104549   2.516417   3.438898   2.995369   3.576496
    16  C    2.939594   3.005305   4.024038   3.581425   4.535464
    17  H    2.137693   3.483714   3.894340   4.701226   5.974386
    18  H    1.022950   2.091732   2.444157   2.754319   4.131416
    19  H    2.927761   2.192176   3.086880   1.111085   2.183397
    20  H    2.815928   2.192741   2.527035   1.110646   2.175534
    21  H    4.759718   3.487586   3.706253   2.185959   1.111964
    22  H    4.155935   2.787016   2.463671   2.175990   1.112962
    23  H    4.677380   3.370828   3.902692   2.829728   2.171464
    24  H    5.400318   3.901979   3.925393   3.494969   2.181662
    25  H    4.620777   3.424615   3.599685   3.951238   3.500429
    26  H    3.990451   2.678352   2.311522   3.336559   2.824652
    27  H    3.866473   3.991769   5.054094   4.304403   5.238165
                   11         12         13         14         15
    11  C    0.000000
    12  C    1.545040   0.000000
    13  C    2.577760   1.557505   0.000000
    14  H    3.498258   2.143384   1.116917   0.000000
    15  N    2.976882   2.446501   1.471581   2.148567   0.000000
    16  C    4.193670   3.643452   2.335906   2.685611   1.295519
    17  H    6.198429   5.270507   3.799905   3.438206   4.192473
    18  H    4.912807   4.519416   3.359083   3.665877   3.992734
    19  H    2.828719   3.354652   2.794137   3.842446   2.648137
    20  H    3.489157   3.938718   3.510014   4.385571   4.007277
    21  H    2.181309   3.507123   4.010152   5.054798   4.300200
    22  H    2.168952   2.839162   3.464178   4.272266   4.349312
    23  H    1.113490   2.180507   2.846896   3.831288   2.654830
    24  H    1.111779   2.187375   3.535683   4.317442   3.979936
    25  H    2.178763   1.112155   2.189870   2.460302   2.675498
    26  H    2.179557   1.110350   2.191506   2.442908   3.409245
    27  H    4.868858   4.519996   3.360927   3.741554   2.073542
                   16         17         18         19         20
    16  C    0.000000
    17  H    3.513152   0.000000
    18  H    3.802056   2.560845   0.000000
    19  H    3.074043   4.843424   3.171967   0.000000
    20  H    4.396247   4.910367   2.550078   1.798687   0.000000
    21  H    5.207198   6.858687   4.867419   2.496874   2.534849
    22  H    5.300842   6.198657   4.270263   3.097602   2.474291
    23  H    3.830346   6.402497   5.260116   2.673716   3.842194
    24  H    5.237052   7.205118   5.896635   3.852911   4.329779
    25  H    3.885543   5.834205   5.453535   4.185761   4.995269
    26  H    4.493698   5.444806   4.621444   4.025881   4.146354
    27  H    1.099911   4.267183   4.623092   3.564701   5.074861
                   21         22         23         24         25
    21  H    0.000000
    22  H    1.799876   0.000000
    23  H    2.469268   3.084968   0.000000
    24  H    2.542982   2.469656   1.795000   0.000000
    25  H    4.336992   3.840312   2.487229   2.515337   0.000000
    26  H    3.849481   2.665178   3.095384   2.496483   1.793976
    27  H    5.746998   6.115511   4.285457   5.880588   4.646620
                   26         27
    26  H    0.000000
    27  H    5.457789   0.000000
 Symmetry turned off by external request.
 Stoichiometry    C9H13N3O2
 Framework group  C1[X(C9H13N3O2)]
 Deg. of freedom    75
 Full point group                 C1      NOp   1
 Rotational constants (GHZ):           1.6888859           0.4057062           0.3618817
 Standard basis: 6-31G(d) (6D, 7F)
   236 basis functions,   444 primitive gaussians,   236 cartesian basis functions
    52 alpha electrons       52 beta electrons
       nuclear repulsion energy       920.9100322552 Hartrees.
 NAtoms=   27 NActive=   27 NUniq=   27 SFac= 1.00D+00 NAtFMM=   60 NAOKFM=F Big=F
 Integral buffers will be    131072 words long.
 Raffenetti 1 integral format.
 Two-electron integral symmetry is turned off.
 One-electron integrals computed using PRISM.
 NBasis=   236 RedAO= T EigKep=  1.40D-03  NBF=   236
 NBsUse=   236 1.00D-06 EigRej= -1.00D+00 NBFU=   236
 ExpMin= 1.61D-01 ExpMax= 5.48D+03 ExpMxC= 8.25D+02 IAcc=3 IRadAn=         5 AccDes= 0.00D+00
 Harris functional with IExCor=  205 and IRadAn=       5 diagonalized for initial guess.
 HarFok:  IExCor=  205 AccDes= 0.00D+00 IRadAn=         5 IDoV= 1 UseB2=F ITyADJ=14
 ICtDFT=  3500011 ScaDFX=  1.000000  1.000000  1.000000  1.000000
 FoFCou: FMM=F IPFlag=           0 FMFlag=      100000 FMFlg1=           0
         NFxFlg=           0 DoJE=T BraDBF=F KetDBF=T FulRan=T
         wScrn=  0.000000 ICntrl=       500 IOpCl=  0 I1Cent=   200000004 NGrid=           0
         NMat0=    1 NMatS0=      1 NMatT0=    0 NMatD0=    1 NMtDS0=    0 NMtDT0=    0
 Symmetry not used in FoFCou.
 Keep R1 ints in memory in canonical form, NReq=397720213.
 Requested convergence on RMS density matrix=1.00D-08 within 128 cycles.
 Requested convergence on MAX density matrix=1.00D-06.
 Requested convergence on             energy=1.00D-06.
 No special actions if energy rises.
 SCF Done:  E(RHF) =  -661.257191826     A.U. after   16 cycles
            NFock= 16  Conv=0.75D-08     -V/T= 2.0036
 ExpMin= 1.61D-01 ExpMax= 5.48D+03 ExpMxC= 8.25D+02 IAcc=3 IRadAn=         5 AccDes= 0.00D+00
 HarFok:  IExCor=  205 AccDes= 0.00D+00 IRadAn=         5 IDoV=-2 UseB2=F ITyADJ=14
 ICtDFT= 12500011 ScaDFX=  1.000000  1.000000  1.000000  1.000000
 Range of M.O.s used for correlation:    15   236
 NBasis=   236 NAE=    52 NBE=    52 NFC=    14 NFV=     0
 NROrb=    222 NOA=    38 NOB=    38 NVA=   184 NVB=   184
 Fully direct method using O(ONN) memory.
 JobTyp=1 Pass  1:  I=  15 to  52 NPSUse=  4 ParTrn=T ParDer=T DoDerP=T.
 Spin components of T(2) and E(2):
     alpha-alpha T2 =       0.9211572983D-01 E2=     -0.2720274102D+00
     alpha-beta  T2 =       0.5028361857D+00 E2=     -0.1497099594D+01
     beta-beta   T2 =       0.9211572983D-01 E2=     -0.2720274102D+00
 ANorm=    0.1298871682D+01
 E2 =    -0.2041154414D+01 EUMP2 =    -0.66329834623979D+03
          IDoAtm=111111111111111111111111111
          Differentiating once with respect to electric field.
                with respect to dipole field.
          Differentiating once with respect to nuclear coordinates.
 Keep R1 ints in memory in canonical form, NReq=397723379.
          There are     1 degrees of freedom in the 1st order CPHF.  IDoFFX=0 NUNeed=     1.
 LinEq1:  Iter=  0 NonCon=     1 RMS=4.56D-03 Max=1.03D-01 NDo=     1
 AX will form     1 AO Fock derivatives at one time.
 LinEq1:  Iter=  1 NonCon=     1 RMS=1.54D-03 Max=3.33D-02 NDo=     1
 LinEq1:  Iter=  2 NonCon=     1 RMS=6.32D-04 Max=1.39D-02 NDo=     1
 LinEq1:  Iter=  3 NonCon=     1 RMS=3.01D-04 Max=9.93D-03 NDo=     1
 LinEq1:  Iter=  4 NonCon=     1 RMS=9.36D-05 Max=1.91D-03 NDo=     1
 LinEq1:  Iter=  5 NonCon=     1 RMS=4.05D-05 Max=2.28D-03 NDo=     1
 LinEq1:  Iter=  6 NonCon=     1 RMS=1.58D-05 Max=5.27D-04 NDo=     1
 LinEq1:  Iter=  7 NonCon=     1 RMS=6.40D-06 Max=1.17D-04 NDo=     1
 LinEq1:  Iter=  8 NonCon=     1 RMS=2.66D-06 Max=6.89D-05 NDo=     1
 LinEq1:  Iter=  9 NonCon=     1 RMS=1.01D-06 Max=2.59D-05 NDo=     1
 LinEq1:  Iter= 10 NonCon=     1 RMS=4.81D-07 Max=1.39D-05 NDo=     1
 LinEq1:  Iter= 11 NonCon=     1 RMS=1.74D-07 Max=5.69D-06 NDo=     1
 LinEq1:  Iter= 12 NonCon=     1 RMS=6.40D-08 Max=1.21D-06 NDo=     1
 LinEq1:  Iter= 13 NonCon=     1 RMS=2.11D-08 Max=3.46D-07 NDo=     1
 LinEq1:  Iter= 14 NonCon=     1 RMS=7.94D-09 Max=1.81D-07 NDo=     1
 LinEq1:  Iter= 15 NonCon=     1 RMS=3.20D-09 Max=6.35D-08 NDo=     1
 LinEq1:  Iter= 16 NonCon=     1 RMS=1.05D-09 Max=2.24D-08 NDo=     1
 LinEq1:  Iter= 17 NonCon=     1 RMS=2.97D-10 Max=4.61D-09 NDo=     1
 LinEq1:  Iter= 18 NonCon=     1 RMS=1.01D-10 Max=1.59D-09 NDo=     1
 LinEq1:  Iter= 19 NonCon=     1 RMS=3.38D-11 Max=1.01D-09 NDo=     1
 LinEq1:  Iter= 20 NonCon=     0 RMS=1.17D-11 Max=2.91D-10 NDo=     1
 Linear equations converged to 1.000D-10 1.000D-09 after    20 iterations.
 End of Minotr F.D. properties file   721 does not exist.
 End of Minotr F.D. properties file   722 does not exist.
 End of Minotr F.D. properties file   788 does not exist.

 **********************************************************************

            Population analysis using the SCF Density.

 **********************************************************************

 Alpha  occ. eigenvalues --  -20.60292 -20.59772 -15.85747 -15.61278 -15.58115
 Alpha  occ. eigenvalues --  -11.35444 -11.30690 -11.30399 -11.30024 -11.27575
 Alpha  occ. eigenvalues --  -11.24562 -11.23795 -11.23216 -11.22751  -1.58958
 Alpha  occ. eigenvalues --   -1.38521  -1.27549  -1.22556  -1.13209  -1.08305
 Alpha  occ. eigenvalues --   -1.01644  -1.00428  -0.93207  -0.89125  -0.84718
 Alpha  occ. eigenvalues --   -0.81419  -0.78273  -0.76768  -0.73478  -0.70962
 Alpha  occ. eigenvalues --   -0.70319  -0.69977  -0.67515  -0.64624  -0.63496
 Alpha  occ. eigenvalues --   -0.61444  -0.60653  -0.57179  -0.55980  -0.55079
 Alpha  occ. eigenvalues --   -0.52598  -0.50622  -0.49155  -0.48535  -0.47635
 Alpha  occ. eigenvalues --   -0.46446  -0.45919  -0.45449  -0.44246  -0.42423
 Alpha  occ. eigenvalues --   -0.40628  -0.34260
 Alpha virt. eigenvalues --    0.06236   0.11457   0.19694   0.20612   0.22121
 Alpha virt. eigenvalues --    0.24073   0.26442   0.27067   0.28433   0.29019
 Alpha virt. eigenvalues --    0.29563   0.31230   0.31915   0.32235   0.33419
 Alpha virt. eigenvalues --    0.33594   0.34073   0.35981   0.37431   0.38561
 Alpha virt. eigenvalues --    0.40891   0.43039   0.44514   0.45424   0.45856
 Alpha virt. eigenvalues --    0.46654   0.48983   0.52445   0.56835   0.57861
 Alpha virt. eigenvalues --    0.62987   0.69236   0.70633   0.72345   0.74172
 Alpha virt. eigenvalues --    0.75222   0.75869   0.76809   0.77816   0.79425
 Alpha virt. eigenvalues --    0.80100   0.83282   0.83909   0.86442   0.87505
 Alpha virt. eigenvalues --    0.88840   0.90464   0.91472   0.92645   0.93528
 Alpha virt. eigenvalues --    0.96589   0.97238   0.97754   0.99973   1.01714
 Alpha virt. eigenvalues --    1.02704   1.04520   1.05119   1.06533   1.08364
 Alpha virt. eigenvalues --    1.09004   1.10351   1.10527   1.11519   1.12893
 Alpha virt. eigenvalues --    1.13736   1.13752   1.14732   1.16193   1.16542
 Alpha virt. eigenvalues --    1.17785   1.19310   1.20471   1.21315   1.22679
 Alpha virt. eigenvalues --    1.23359   1.24893   1.25014   1.26850   1.27804
 Alpha virt. eigenvalues --    1.28823   1.30356   1.32850   1.37253   1.40261
 Alpha virt. eigenvalues --    1.41439   1.44247   1.46456   1.47297   1.50109
 Alpha virt. eigenvalues --    1.51343   1.55964   1.60483   1.63945   1.66564
 Alpha virt. eigenvalues --    1.67801   1.70142   1.71954   1.74215   1.76453
 Alpha virt. eigenvalues --    1.79212   1.83400   1.84191   1.87672   1.92165
 Alpha virt. eigenvalues --    1.93475   1.96988   1.98355   1.99342   2.01307
 Alpha virt. eigenvalues --    2.03093   2.04222   2.06558   2.09319   2.11634
 Alpha virt. eigenvalues --    2.12697   2.15173   2.16804   2.17352   2.19524
 Alpha virt. eigenvalues --    2.21086   2.23515   2.25001   2.26566   2.27679
 Alpha virt. eigenvalues --    2.29582   2.32326   2.33753   2.35709   2.38104
 Alpha virt. eigenvalues --    2.38709   2.39551   2.40345   2.42571   2.45905
 Alpha virt. eigenvalues --    2.49350   2.50527   2.54030   2.54977   2.57821
 Alpha virt. eigenvalues --    2.61876   2.63008   2.67036   2.68343   2.69517
 Alpha virt. eigenvalues --    2.71419   2.72578   2.76469   2.79228   2.80701
 Alpha virt. eigenvalues --    2.81683   2.87160   2.90428   2.93100   2.96028
 Alpha virt. eigenvalues --    2.96994   2.99278   3.02439   3.02835   3.05233
 Alpha virt. eigenvalues --    3.06897   3.11419   3.20233   3.22218   3.25932
 Alpha virt. eigenvalues --    3.26540   3.31854   3.34652   3.44258   3.54105
 Alpha virt. eigenvalues --    4.09229   4.23427   4.31151   4.35917   4.42268
 Alpha virt. eigenvalues --    4.54389   4.59585   4.62557   4.70702   4.78510
 Alpha virt. eigenvalues --    4.91441   4.99258   5.02008   5.12808
          Condensed to atoms (all electrons):
               1          2          3          4          5          6
     1  O    8.293220   0.316739  -0.086748  -0.082567   0.002957  -0.000018
     2  N    0.316739   5.692445   0.308432   0.257431  -0.038171   0.001120
     3  O   -0.086748   0.308432   8.323461  -0.085810   0.006942   0.000341
     4  C   -0.082567   0.257431  -0.085810   5.224736   0.581772  -0.057104
     5  C    0.002957  -0.038171   0.006942   0.581772   4.661711   0.304967
     6  N   -0.000018   0.001120   0.000341  -0.057104   0.304967   7.244648
     7  C    0.000003  -0.000065   0.000002   0.000332  -0.030399   0.201053
     8  H   -0.000000   0.000003  -0.000000   0.000067   0.000854  -0.052333
     9  C   -0.000000  -0.000002   0.000000   0.000249   0.002217  -0.047237
    10  C   -0.000000   0.000000  -0.000000  -0.000009  -0.000070   0.003056
    11  C    0.000000  -0.000000  -0.000000  -0.000031   0.000008  -0.000189
    12  C   -0.000000   0.000004  -0.000000   0.000321   0.000146   0.004172
    13  C   -0.000033  -0.000073  -0.000008  -0.018488  -0.001456  -0.052271
    14  H   -0.000006   0.000036  -0.000005   0.003205   0.006240  -0.006786
    15  N   -0.000341   0.001602  -0.000014  -0.063511  -0.006020   0.001220
    16  C    0.007004  -0.033153   0.001822   0.322225  -0.042327  -0.002890
    17  H    0.000041  -0.002152   0.008197  -0.036669   0.383171  -0.037032
    18  H    0.000000  -0.000034   0.000006   0.000740  -0.021395   0.325078
    19  H    0.000000   0.000001   0.000000  -0.000204   0.000030   0.001507
    20  H    0.000000  -0.000000   0.000000  -0.000004   0.000013  -0.002668
    21  H   -0.000000  -0.000000   0.000000  -0.000000   0.000001  -0.000048
    22  H   -0.000000   0.000000  -0.000000   0.000000  -0.000003  -0.000083
    23  H   -0.000000  -0.000000   0.000000   0.000022  -0.000001  -0.000025
    24  H   -0.000000   0.000000   0.000000   0.000000  -0.000000   0.000004
    25  H    0.000000  -0.000000   0.000000   0.000017   0.000001  -0.000086
    26  H   -0.000000  -0.000000   0.000000   0.000016  -0.000006  -0.000071
    27  H    0.002971  -0.000083  -0.000024  -0.063799   0.002303   0.000248
               7          8          9         10         11         12
     1  O    0.000003  -0.000000  -0.000000  -0.000000   0.000000  -0.000000
     2  N   -0.000065   0.000003  -0.000002   0.000000  -0.000000   0.000004
     3  O    0.000002  -0.000000   0.000000  -0.000000  -0.000000  -0.000000
     4  C    0.000332   0.000067   0.000249  -0.000009  -0.000031   0.000321
     5  C   -0.030399   0.000854   0.002217  -0.000070   0.000008   0.000146
     6  N    0.201053  -0.052333  -0.047237   0.003056  -0.000189   0.004172
     7  C    4.952734   0.418594   0.339708  -0.048760  -0.007590  -0.066590
     8  H    0.418594   0.550437  -0.060235   0.002016  -0.000386  -0.002216
     9  C    0.339708  -0.060235   5.176061   0.315893  -0.053677  -0.007612
    10  C   -0.048760   0.002016   0.315893   5.129401   0.332242  -0.058930
    11  C   -0.007590  -0.000386  -0.053677   0.332242   5.121704   0.331710
    12  C   -0.066590  -0.002216  -0.007612  -0.058930   0.331710   5.142161
    13  C    0.344821  -0.045331  -0.043934  -0.003407  -0.047508   0.361503
    14  H   -0.037349  -0.000778   0.003693  -0.000408   0.004017  -0.042394
    15  N   -0.050680   0.003583  -0.010490   0.001317  -0.007332  -0.072996
    16  C   -0.007917   0.000348  -0.001882   0.000068  -0.000079   0.004243
    17  H    0.001497   0.000057  -0.000056   0.000001   0.000000   0.000002
    18  H   -0.026645  -0.000832   0.000331  -0.000120   0.000011  -0.000134
    19  H   -0.035772   0.004181   0.385435  -0.032462  -0.002554   0.000719
    20  H   -0.040354  -0.002108   0.397502  -0.037451   0.004202  -0.000337
    21  H    0.003999  -0.000095  -0.035768   0.400391  -0.035857   0.004156
    22  H   -0.003894   0.003440  -0.045630   0.395982  -0.045407  -0.001385
    23  H    0.000355   0.000040  -0.002150  -0.040094   0.396895  -0.037188
    24  H   -0.000143  -0.000088   0.004450  -0.038707   0.400454  -0.037620
    25  H    0.005071   0.000004  -0.000367   0.004131  -0.034424   0.396122
    26  H   -0.004508   0.001757   0.000948  -0.002325  -0.042705   0.395330
    27  H   -0.000403   0.000011  -0.000056   0.000006   0.000002  -0.000023
              13         14         15         16         17         18
     1  O   -0.000033  -0.000006  -0.000341   0.007004   0.000041   0.000000
     2  N   -0.000073   0.000036   0.001602  -0.033153  -0.002152  -0.000034
     3  O   -0.000008  -0.000005  -0.000014   0.001822   0.008197   0.000006
     4  C   -0.018488   0.003205  -0.063511   0.322225  -0.036669   0.000740
     5  C   -0.001456   0.006240  -0.006020  -0.042327   0.383171  -0.021395
     6  N   -0.052271  -0.006786   0.001220  -0.002890  -0.037032   0.325078
     7  C    0.344821  -0.037349  -0.050680  -0.007917   0.001497  -0.026645
     8  H   -0.045331  -0.000778   0.003583   0.000348   0.000057  -0.000832
     9  C   -0.043934   0.003693  -0.010490  -0.001882  -0.000056   0.000331
    10  C   -0.003407  -0.000408   0.001317   0.000068   0.000001  -0.000120
    11  C   -0.047508   0.004017  -0.007332  -0.000079   0.000000   0.000011
    12  C    0.361503  -0.042394  -0.072996   0.004243   0.000002  -0.000134
    13  C    5.077249   0.397267   0.240572  -0.074943  -0.000079   0.003931
    14  H    0.397267   0.521253  -0.034723  -0.004639   0.000273   0.000030
    15  N    0.240572  -0.034723   6.902259   0.568844  -0.000144  -0.000118
    16  C   -0.074943  -0.004639   0.568844   4.738005   0.002119  -0.000303
    17  H   -0.000079   0.000273  -0.000144   0.002119   0.407295  -0.001067
    18  H    0.003931   0.000030  -0.000118  -0.000303  -0.001067   0.324438
    19  H   -0.006475   0.000068   0.006321   0.002959   0.000007  -0.000058
    20  H    0.003857  -0.000043   0.000054  -0.000034   0.000001   0.002969
    21  H   -0.000319   0.000009  -0.000015   0.000001  -0.000000  -0.000000
    22  H    0.000357  -0.000048  -0.000009  -0.000002  -0.000000   0.000002
    23  H   -0.005298   0.000009   0.006256  -0.000043   0.000000   0.000000
    24  H    0.004049  -0.000058   0.000057   0.000007   0.000000  -0.000000
    25  H   -0.035369  -0.002686  -0.000092  -0.000087  -0.000000   0.000002
    26  H   -0.044730  -0.001115   0.004105  -0.000120  -0.000000  -0.000000
    27  H    0.005465  -0.000261  -0.039393   0.401131  -0.000062   0.000010
              19         20         21         22         23         24
     1  O    0.000000   0.000000  -0.000000  -0.000000  -0.000000  -0.000000
     2  N    0.000001  -0.000000  -0.000000   0.000000  -0.000000   0.000000
     3  O    0.000000   0.000000   0.000000  -0.000000   0.000000   0.000000
     4  C   -0.000204  -0.000004  -0.000000   0.000000   0.000022   0.000000
     5  C    0.000030   0.000013   0.000001  -0.000003  -0.000001  -0.000000
     6  N    0.001507  -0.002668  -0.000048  -0.000083  -0.000025   0.000004
     7  C   -0.035772  -0.040354   0.003999  -0.003894   0.000355  -0.000143
     8  H    0.004181  -0.002108  -0.000095   0.003440   0.000040  -0.000088
     9  C    0.385435   0.397502  -0.035768  -0.045630  -0.002150   0.004450
    10  C   -0.032462  -0.037451   0.400391   0.395982  -0.040094  -0.038707
    11  C   -0.002554   0.004202  -0.035857  -0.045407   0.396895   0.400454
    12  C    0.000719  -0.000337   0.004156  -0.001385  -0.037188  -0.037620
    13  C   -0.006475   0.003857  -0.000319   0.000357  -0.005298   0.004049
    14  H    0.000068  -0.000043   0.000009  -0.000048   0.000009  -0.000058
    15  N    0.006321   0.000054  -0.000015  -0.000009   0.006256   0.000057
    16  C    0.002959  -0.000034   0.000001  -0.000002  -0.000043   0.000007
    17  H    0.000007   0.000001  -0.000000  -0.000000   0.000000   0.000000
    18  H   -0.000058   0.002969  -0.000000   0.000002   0.000000  -0.000000
    19  H    0.508169  -0.024177  -0.002637   0.003781   0.001727  -0.000067
    20  H   -0.024177   0.547535  -0.002469  -0.003000  -0.000053  -0.000090
    21  H   -0.002637  -0.002469   0.525792  -0.024642  -0.002792  -0.002002
    22  H    0.003781  -0.003000  -0.024642   0.566990   0.004065  -0.003593
    23  H    0.001727  -0.000053  -0.002792   0.004065   0.512595  -0.025125
    24  H   -0.000067  -0.000090  -0.002002  -0.003593  -0.025125   0.541440
    25  H   -0.000028   0.000011  -0.000086  -0.000081  -0.002137  -0.002453
    26  H    0.000028  -0.000038  -0.000074   0.002513   0.003859  -0.002799
    27  H    0.000056  -0.000001  -0.000000   0.000000  -0.000015  -0.000000
              25         26         27
     1  O    0.000000  -0.000000   0.002971
     2  N   -0.000000  -0.000000  -0.000083
     3  O    0.000000   0.000000  -0.000024
     4  C    0.000017   0.000016  -0.063799
     5  C    0.000001  -0.000006   0.002303
     6  N   -0.000086  -0.000071   0.000248
     7  C    0.005071  -0.004508  -0.000403
     8  H    0.000004   0.001757   0.000011
     9  C   -0.000367   0.000948  -0.000056
    10  C    0.004131  -0.002325   0.000006
    11  C   -0.034424  -0.042705   0.000002
    12  C    0.396122   0.395330  -0.000023
    13  C   -0.035369  -0.044730   0.005465
    14  H   -0.002686  -0.001115  -0.000261
    15  N   -0.000092   0.004105  -0.039393
    16  C   -0.000087  -0.000120   0.401131
    17  H   -0.000000  -0.000000  -0.000062
    18  H    0.000002  -0.000000   0.000010
    19  H   -0.000028   0.000028   0.000056
    20  H    0.000011  -0.000038  -0.000001
    21  H   -0.000086  -0.000074  -0.000000
    22  H   -0.000081   0.002513   0.000000
    23  H   -0.002137   0.003859  -0.000015
    24  H   -0.002453  -0.002799  -0.000000
    25  H    0.515844  -0.023130  -0.000004
    26  H   -0.023130   0.561185   0.000001
    27  H   -0.000004   0.000001   0.464376
 Mulliken charges:
               1
     1  O   -0.453224
     2  N    0.495921
     3  O   -0.476592
     4  C    0.017061
     5  C    0.186516
     6  N   -0.828575
     7  C    0.092901
     8  H    0.179007
     9  C   -0.317391
    10  C   -0.321761
    11  C   -0.313504
    12  C   -0.313163
    13  C   -0.059349
    14  H    0.195199
    15  N   -0.450308
    16  C    0.119642
    17  H    0.274599
    18  H    0.393157
    19  H    0.189445
    20  H    0.156684
    21  H    0.172455
    22  H    0.150646
    23  H    0.189099
    24  H    0.162285
    25  H    0.179826
    26  H    0.151880
    27  H    0.227544
 Sum of Mulliken charges =  -0.00000
 Mulliken charges with hydrogens summed into heavy atoms:
               1
     1  O   -0.453224
     2  N    0.495921
     3  O   -0.476592
     4  C    0.017061
     5  C    0.461115
     6  N   -0.435418
     7  C    0.271908
     9  C    0.028738
    10  C    0.001340
    11  C    0.037880
    12  C    0.018543
    13  C    0.135850
    15  N   -0.450308
    16  C    0.347186
 Electronic spatial extent (au):  <R**2>=           3082.9110
 Charge=             -0.0000 electrons
 Dipole moment (field-independent basis, Debye):
    X=              4.8822    Y=              4.4294    Z=             -0.3543  Tot=              6.6016
 Quadrupole moment (field-independent basis, Debye-Ang):
   XX=           -103.3280   YY=            -81.9447   ZZ=            -81.9075
   XY=             -3.3983   XZ=              4.1651   YZ=             -0.6894
 Traceless Quadrupole moment (field-independent basis, Debye-Ang):
   XX=            -14.2679   YY=              7.1154   ZZ=              7.1525
   XY=             -3.3983   XZ=              4.1651   YZ=             -0.6894
 Octapole moment (field-independent basis, Debye-Ang**2):
  XXX=             85.8746  YYY=             39.3843  ZZZ=            -11.9311  XYY=             -0.2398
  XXY=             18.9727  XXZ=            -19.7836  XZZ=             -7.9986  YZZ=             -0.9473
  YYZ=             -3.6671  XYZ=             -2.9279
 Hexadecapole moment (field-independent basis, Debye-Ang**3):
 XXXX=          -3427.5713 YYYY=           -625.1634 ZZZZ=           -321.3010 XXXY=           -101.7894
 XXXZ=            173.0620 YYYX=            -69.7158 YYYZ=              3.9883 ZZZX=            101.6033
 ZZZY=             18.8719 XXYY=           -645.6601 XXZZ=           -548.5265 YYZZ=           -163.1449
 XXYZ=              5.3940 YYXZ=             34.3807 ZZXY=             -8.5628
 N-N= 9.209100322552D+02 E-N=-3.387850149300D+03  KE= 6.588549503658D+02
 Calling FoFJK, ICntrl=  10002127 FMM=F ISym2X=0 I1Cent= 0 IOpClX= 0 NMat=1 NMatS=1 NMatT=0.
 -------------------------------------------------------------------
 Center     Atomic                   Forces (Hartrees/Bohr)
 Number     Number              X              Y              Z
 -------------------------------------------------------------------
      1        8           0.001656558   -0.019317265   -0.008491302
      2        7           0.037720720    0.017441669   -0.002651811
      3        8          -0.006881272    0.013513310    0.006116490
      4        6           0.006968434    0.037946573    0.008898788
      5        6          -0.003952796   -0.024024699   -0.014256899
      6        7           0.020162134   -0.012408396   -0.004022395
      7        6          -0.024853556    0.006447526    0.002348023
      8        1          -0.006195097   -0.004155147   -0.006943155
      9        6          -0.006734665    0.000500730   -0.002851846
     10        6           0.003086814   -0.000871263    0.001777388
     11        6          -0.001695121   -0.004837229   -0.002287207
     12        6           0.002007503   -0.010656064   -0.001841541
     13        6           0.027473456   -0.020556413    0.019266314
     14        1          -0.000719980    0.007407003   -0.012177922
     15        7           0.002609449    0.024574043   -0.015085845
     16        6          -0.025957161   -0.017331902    0.016228500
     17        1           0.003637917   -0.002328406   -0.011023265
     18        1          -0.016121943   -0.001136734    0.011612913
     19        1           0.002874344    0.006396067    0.008021319
     20        1          -0.003728408   -0.007055985    0.002381245
     21        1          -0.005309654    0.002748645    0.009074873
     22        1          -0.003243429   -0.004114135   -0.007836580
     23        1           0.003660308    0.006192765    0.009401315
     24        1          -0.008997942    0.002902958   -0.003034030
     25        1           0.000426249    0.010173860   -0.002265213
     26        1          -0.004636154   -0.004801300   -0.004769309
     27        1           0.006743294   -0.002650210    0.004411152
 -------------------------------------------------------------------
 Cartesian Forces:  Max     0.037946573 RMS     0.011976877

 GradGradGradGradGradGradGradGradGradGradGradGradGradGradGradGradGradGrad
 Berny optimization.
 FormGI is forming the generalized inverse of G from B-inverse, IUseBI=4.
 Internal  Forces:  Max     0.045496602 RMS     0.007626257
 Search for a local minimum.
 Step number   1 out of a maximum of   20
 All quantities printed in internal units (Hartrees-Bohrs-Radians)
 Mixed Optimization -- RFO/linear search
 Second derivative matrix not updated -- first step.
 ITU=  0
     Eigenvalues ---    0.00230   0.00756   0.00886   0.01087   0.01185
     Eigenvalues ---    0.01540   0.01640   0.01914   0.01989   0.02037
     Eigenvalues ---    0.02678   0.03433   0.04419   0.04556   0.04863
     Eigenvalues ---    0.05097   0.05142   0.05317   0.05976   0.06149
     Eigenvalues ---    0.06398   0.07324   0.07662   0.07875   0.07936
     Eigenvalues ---    0.08048   0.08183   0.09525   0.10472   0.11925
     Eigenvalues ---    0.12428   0.13717   0.15833   0.15962   0.15999
     Eigenvalues ---    0.19469   0.20491   0.21682   0.24933   0.25000
     Eigenvalues ---    0.25000   0.25211   0.25815   0.26571   0.28036
     Eigenvalues ---    0.28139   0.28529   0.29404   0.31169   0.31738
     Eigenvalues ---    0.31878   0.32233   0.32288   0.32373   0.32393
     Eigenvalues ---    0.32412   0.32485   0.32532   0.32563   0.32888
     Eigenvalues ---    0.33388   0.33692   0.34508   0.41880   0.43871
     Eigenvalues ---    0.44897   0.65070   0.90824   0.915001000.00000
     Eigenvalues --- 1000.000001000.000001000.000001000.000001000.00000
     Eigenvalues --- 1000.000001000.000001000.000001000.000001000.00000
     Eigenvalues --- 1000.000001000.000001000.000001000.000001000.00000
     Eigenvalues --- 1000.000001000.000001000.000001000.000001000.00000
     Eigenvalues --- 1000.000001000.000001000.000001000.000001000.00000
     Eigenvalues --- 1000.000001000.000001000.000001000.000001000.00000
     Eigenvalues --- 1000.000001000.000001000.000001000.000001000.00000
     Eigenvalues --- 1000.000001000.000001000.000001000.000001000.00000
     Eigenvalues --- 1000.000001000.000001000.000001000.000001000.00000
     Eigenvalues --- 1000.000001000.000001000.000001000.000001000.00000
     Eigenvalues --- 1000.000001000.000001000.000001000.000001000.00000
     Eigenvalues --- 1000.000001000.000001000.000001000.000001000.00000
     Eigenvalues --- 1000.000001000.000001000.000001000.000001000.00000
     Eigenvalues --- 1000.000001000.000001000.000001000.000001000.00000
     Eigenvalues --- 1000.000001000.000001000.000001000.000001000.00000
     Eigenvalues --- 1000.000001000.000001000.000001000.000001000.00000
     Eigenvalues --- 1000.000001000.000001000.000001000.000001000.00000
     Eigenvalues --- 1000.000001000.000001000.000001000.000001000.00000
     Eigenvalues --- 1000.00000
 RFO step:  Lambda=-2.57062431D-02 EMin= 2.30119289D-03
 Linear search not attempted -- first point.
 Iteration  1 RMS(Cart)=  0.05392232 RMS(Int)=  0.00115114
 Iteration  2 RMS(Cart)=  0.00130121 RMS(Int)=  0.00046437
 Iteration  3 RMS(Cart)=  0.00000115 RMS(Int)=  0.00046437
 Iteration  4 RMS(Cart)=  0.00000000 RMS(Int)=  0.00046437
 Iteration  1 RMS(Cart)=  0.00006052 RMS(Int)=  0.00006320
 Iteration  2 RMS(Cart)=  0.00004638 RMS(Int)=  0.00006737
 Iteration  3 RMS(Cart)=  0.00003808 RMS(Int)=  0.00007481
 Iteration  4 RMS(Cart)=  0.00003238 RMS(Int)=  0.00008262
 Iteration  5 RMS(Cart)=  0.00002806 RMS(Int)=  0.00009017
 Iteration  6 RMS(Cart)=  0.00002460 RMS(Int)=  0.00009733
 Iteration  7 RMS(Cart)=  0.00002173 RMS(Int)=  0.00010405
 Iteration  8 RMS(Cart)=  0.00001930 RMS(Int)=  0.00011033
 Iteration  9 RMS(Cart)=  0.00001722 RMS(Int)=  0.00011617
 Iteration 10 RMS(Cart)=  0.00001541 RMS(Int)=  0.00012156
 Iteration 11 RMS(Cart)=  0.00001382 RMS(Int)=  0.00012652
 Iteration 12 RMS(Cart)=  0.00001242 RMS(Int)=  0.00013108
 Iteration 13 RMS(Cart)=  0.00001118 RMS(Int)=  0.00013526
 Iteration 14 RMS(Cart)=  0.00001007 RMS(Int)=  0.00013907
 Iteration 15 RMS(Cart)=  0.00000908 RMS(Int)=  0.00014255
 Iteration 16 RMS(Cart)=  0.00000819 RMS(Int)=  0.00014572
 Iteration 17 RMS(Cart)=  0.00000739 RMS(Int)=  0.00014860
 Iteration 18 RMS(Cart)=  0.00000667 RMS(Int)=  0.00015123
 Iteration 19 RMS(Cart)=  0.00000602 RMS(Int)=  0.00015361
 Iteration 20 RMS(Cart)=  0.00000544 RMS(Int)=  0.00015577
 Iteration 21 RMS(Cart)=  0.00000491 RMS(Int)=  0.00015773
 Iteration 22 RMS(Cart)=  0.00000443 RMS(Int)=  0.00015951
 Iteration 23 RMS(Cart)=  0.00000401 RMS(Int)=  0.00016112
 Iteration 24 RMS(Cart)=  0.00000362 RMS(Int)=  0.00016258
 Iteration 25 RMS(Cart)=  0.00000327 RMS(Int)=  0.00016390
 Iteration 26 RMS(Cart)=  0.00000295 RMS(Int)=  0.00016509
 Iteration 27 RMS(Cart)=  0.00000267 RMS(Int)=  0.00016618
 Iteration 28 RMS(Cart)=  0.00000241 RMS(Int)=  0.00016716
 Iteration 29 RMS(Cart)=  0.00000218 RMS(Int)=  0.00016805
 Iteration 30 RMS(Cart)=  0.00000197 RMS(Int)=  0.00016885
 Iteration 31 RMS(Cart)=  0.00000178 RMS(Int)=  0.00016957
 Iteration 32 RMS(Cart)=  0.00000161 RMS(Int)=  0.00017023
 Iteration 33 RMS(Cart)=  0.00000145 RMS(Int)=  0.00017082
 Iteration 34 RMS(Cart)=  0.00000131 RMS(Int)=  0.00017136
 Iteration 35 RMS(Cart)=  0.00000118 RMS(Int)=  0.00017185
 Iteration 36 RMS(Cart)=  0.00000107 RMS(Int)=  0.00017229
 Iteration 37 RMS(Cart)=  0.00000097 RMS(Int)=  0.00017268
 Variable       Old X    -DE/DX   Delta X   Delta X   Delta X     New X
                                 (Linear)    (Quad)   (Total)
    R1        2.32249   0.01968   0.00000   0.02093   0.02093   2.34342
    R2        2.32556   0.01578   0.00000   0.01690   0.01690   2.34245
    R3        2.85692  -0.03481   0.00000  -0.10317  -0.10317   2.75375
    R4        2.66051  -0.04550   0.00000  -0.09377  -0.09359   2.56692
    R5        2.79906  -0.00951   0.00000  -0.03894  -0.03915   2.75992
    R6        2.62424  -0.02563   0.00000  -0.03857  -0.03815   2.58610
    R7        2.08376  -0.00896   0.00000  -0.02492  -0.02492   2.05883
    R8        2.85931  -0.02076   0.00000  -0.05179  -0.05136   2.80794
    R9        1.93309  -0.00784   0.00000  -0.01689  -0.01689   1.91620
   R10        2.11325  -0.01013   0.00000  -0.02952  -0.02952   2.08374
   R11        2.92132  -0.01464   0.00000  -0.05003  -0.05014   2.87118
   R12        2.88860  -0.00299   0.00000  -0.02202  -0.02200   2.86660
   R13        2.90805  -0.00260   0.00000  -0.00965  -0.00978   2.89828
   R14        2.09965  -0.01046   0.00000  -0.02984  -0.02984   2.06980
   R15        2.09882  -0.00790   0.00000  -0.02249  -0.02249   2.07632
   R16        2.90344  -0.00141   0.00000  -0.00466  -0.00474   2.89870
   R17        2.10131  -0.01060   0.00000  -0.03033  -0.03033   2.07098
   R18        2.10319  -0.00914   0.00000  -0.02621  -0.02621   2.07698
   R19        2.91970  -0.00924   0.00000  -0.02798  -0.02787   2.89183
   R20        2.10419  -0.01174   0.00000  -0.03373  -0.03373   2.07046
   R21        2.10096  -0.00990   0.00000  -0.02830  -0.02830   2.07265
   R22        2.94326  -0.00971   0.00000  -0.03150  -0.03138   2.91188
   R23        2.10167  -0.01032   0.00000  -0.02952  -0.02952   2.07214
   R24        2.09826  -0.00796   0.00000  -0.02267  -0.02267   2.07559
   R25        2.11067  -0.01002   0.00000  -0.02909  -0.02909   2.08158
   R26        2.78088  -0.00767   0.00000  -0.01794  -0.01823   2.76265
   R27        2.44818  -0.00598   0.00000  -0.01232  -0.01280   2.43538
   R28        2.07853  -0.00491   0.00000  -0.01353  -0.01353   2.06500
    A1        2.17304   0.00906   0.00000   0.03290   0.03280   2.20584
    A2        2.04981  -0.00816   0.00000  -0.02956  -0.02966   2.02015
    A3        2.06032  -0.00089   0.00000  -0.00321  -0.00331   2.05701
    A4        2.08276  -0.00607   0.00000  -0.00235  -0.00231   2.08045
    A5        2.08021  -0.00820   0.00000  -0.00921  -0.00924   2.07097
    A6        2.11885   0.01428   0.00000   0.00850   0.00672   2.12557
    A7        2.14813   0.00134   0.00000   0.00656   0.00619   2.15432
    A8        2.08010  -0.00022   0.00000  -0.00080  -0.00062   2.07949
    A9        2.05491  -0.00113   0.00000  -0.00570  -0.00553   2.04938
   A10        2.21520  -0.00206   0.00000  -0.00423  -0.00483   2.21037
   A11        2.15242  -0.01419   0.00000  -0.07839  -0.07865   2.07377
   A12        1.91325   0.01626   0.00000   0.08570   0.08554   1.99880
   A13        1.84483   0.00057   0.00000  -0.00345  -0.00302   1.84182
   A14        2.02783  -0.00976   0.00000  -0.01820  -0.01820   2.00963
   A15        1.88916   0.01144   0.00000   0.01373   0.01300   1.90216
   A16        1.86411   0.00436   0.00000   0.02096   0.02077   1.88487
   A17        1.86997  -0.00323   0.00000  -0.00439  -0.00455   1.86542
   A18        1.95824  -0.00311   0.00000  -0.00767  -0.00696   1.95128
   A19        1.90555   0.00033   0.00000  -0.00690  -0.00734   1.89821
   A20        1.92185  -0.00067   0.00000  -0.00952  -0.00940   1.91245
   A21        1.92306  -0.00172   0.00000  -0.00809  -0.00792   1.91515
   A22        1.91830  -0.00015   0.00000   0.00810   0.00821   1.92652
   A23        1.90811   0.00266   0.00000   0.02240   0.02243   1.93054
   A24        1.88690  -0.00043   0.00000  -0.00562  -0.00592   1.88098
   A25        1.93367   0.00037   0.00000   0.00994   0.00982   1.94348
   A26        1.92089  -0.00154   0.00000  -0.00844  -0.00848   1.91241
   A27        1.90640   0.00050   0.00000  -0.00268  -0.00276   1.90363
   A28        1.91748   0.00063   0.00000   0.00690   0.00698   1.92446
   A29        1.89981   0.00110   0.00000   0.00852   0.00852   1.90833
   A30        1.88476  -0.00106   0.00000  -0.01474  -0.01482   1.86994
   A31        1.94444   0.00105   0.00000   0.00606   0.00616   1.95061
   A32        1.90266  -0.00037   0.00000   0.00153   0.00155   1.90421
   A33        1.91815   0.00099   0.00000   0.00764   0.00755   1.92570
   A34        1.90468  -0.00049   0.00000  -0.01155  -0.01160   1.89309
   A35        1.91565  -0.00116   0.00000  -0.00070  -0.00080   1.91485
   A36        1.87690  -0.00007   0.00000  -0.00345  -0.00347   1.87344
   A37        1.96127  -0.00560   0.00000  -0.02285  -0.02280   1.93847
   A38        1.90367   0.00252   0.00000   0.01725   0.01715   1.92082
   A39        1.90654   0.00280   0.00000   0.01332   0.01318   1.91972
   A40        1.90391   0.00207   0.00000   0.00564   0.00575   1.90966
   A41        1.90790  -0.00024   0.00000  -0.00750  -0.00742   1.90048
   A42        1.87874  -0.00140   0.00000  -0.00519  -0.00533   1.87341
   A43        1.82688   0.00863   0.00000   0.03753   0.03740   1.86429
   A44        1.97010  -0.00591   0.00000  -0.04268  -0.04435   1.92575
   A45        1.98977  -0.00494   0.00000  -0.01843  -0.01797   1.97180
   A46        1.83864   0.00311   0.00000   0.05214   0.05299   1.89163
   A47        1.87979  -0.00032   0.00000  -0.02229  -0.02203   1.85776
   A48        1.94555   0.00098   0.00000   0.00333   0.00217   1.94772
   A49        2.00746  -0.00269   0.00000  -0.01511  -0.01533   1.99213
   A50        2.18339  -0.00005   0.00000  -0.01734  -0.01748   2.16590
   A51        1.99451   0.00818   0.00000   0.04014   0.03919   2.03370
   A52        2.08891  -0.00646   0.00000  -0.03319  -0.03381   2.05510
    D1       -3.05282  -0.00201   0.00000  -0.06172  -0.06188  -3.11470
    D2        0.14414  -0.00279   0.00000   0.00000   0.00000   0.14414
    D3        0.08312   0.00022   0.00000  -0.03689  -0.03697   0.04615
    D4       -3.00310  -0.00056   0.00000   0.02483   0.02491  -2.97819
    D5       -3.12000  -0.00370   0.00000  -0.03009  -0.03030   3.13289
    D6        0.03153  -0.00278   0.00000  -0.03738  -0.03783  -0.00630
    D7       -0.03504  -0.00366   0.00000  -0.09381  -0.09473  -0.12977
    D8        3.11648  -0.00274   0.00000  -0.10110  -0.10226   3.01423
    D9       -2.24660  -0.00737   0.00000   0.01223   0.01258  -2.23402
   D10        0.69982   0.00185   0.00000  -0.05206  -0.05285   0.64697
   D11        0.95155  -0.00748   0.00000   0.07565   0.07645   1.02800
   D12       -2.38522   0.00174   0.00000   0.01135   0.01102  -2.37420
   D13       -0.68110   0.00485   0.00000   0.05307   0.05312  -0.62797
   D14        2.37981   0.00559   0.00000   0.11054   0.10840   2.48821
   D15        2.45070   0.00395   0.00000   0.06028   0.06056   2.51125
   D16       -0.77158   0.00470   0.00000   0.11775   0.11584  -0.65575
   D17       -2.02558  -0.00260   0.00000  -0.01184  -0.01109  -2.03667
   D18        2.19421  -0.00280   0.00000  -0.02515  -0.02442   2.16979
   D19       -0.02683  -0.00078   0.00000  -0.01227  -0.01185  -0.03868
   D20        1.18757  -0.00217   0.00000  -0.05690  -0.05818   1.12939
   D21       -0.87582  -0.00237   0.00000  -0.07021  -0.07151  -0.94733
   D22       -3.09687  -0.00035   0.00000  -0.05733  -0.05894   3.12738
   D23        3.00273  -0.00057   0.00000   0.01772   0.01771   3.02044
   D24       -1.17287  -0.00095   0.00000   0.01741   0.01743  -1.15544
   D25        0.90696  -0.00298   0.00000  -0.00053  -0.00040   0.90657
   D26        0.94994   0.00145   0.00000   0.01802   0.01787   0.96781
   D27        3.05752   0.00106   0.00000   0.01771   0.01759   3.07512
   D28       -1.14583  -0.00097   0.00000  -0.00024  -0.00024  -1.14607
   D29       -1.09410   0.00439   0.00000   0.01469   0.01452  -1.07958
   D30        1.01348   0.00401   0.00000   0.01438   0.01425   1.02772
   D31        3.09331   0.00198   0.00000  -0.00357  -0.00359   3.08973
   D32       -2.92419  -0.00582   0.00000  -0.01284  -0.01282  -2.93701
   D33       -0.93377   0.00005   0.00000   0.05039   0.04934  -0.88443
   D34        1.30939  -0.00833   0.00000   0.00000   0.00001   1.30940
   D35       -0.94206  -0.00127   0.00000  -0.01241  -0.01235  -0.95441
   D36        1.04836   0.00460   0.00000   0.05083   0.04981   1.09818
   D37       -2.99166  -0.00377   0.00000   0.00043   0.00048  -2.99118
   D38        1.09847   0.00032   0.00000   0.00609   0.00618   1.10465
   D39        3.08889   0.00619   0.00000   0.06933   0.06834  -3.12595
   D40       -0.95113  -0.00219   0.00000   0.01893   0.01901  -0.93212
   D41        0.95665   0.00078   0.00000   0.00000   0.00000   0.95665
   D42        3.08082   0.00077   0.00000   0.00961   0.00957   3.09039
   D43       -1.13597  -0.00113   0.00000  -0.01499  -0.01494  -1.15092
   D44       -1.15309   0.00149   0.00000   0.01105   0.01112  -1.14197
   D45        0.97107   0.00148   0.00000   0.02066   0.02069   0.99177
   D46        3.03747  -0.00042   0.00000  -0.00394  -0.00382   3.03365
   D47        3.06160   0.00050   0.00000  -0.00043  -0.00054   3.06106
   D48       -1.09742   0.00049   0.00000   0.00918   0.00903  -1.08839
   D49        0.96897  -0.00141   0.00000  -0.01542  -0.01549   0.95349
   D50       -0.92193  -0.00160   0.00000   0.00000   0.00000  -0.92193
   D51        1.18107  -0.00178   0.00000  -0.00956  -0.00954   1.17152
   D52       -3.04911  -0.00151   0.00000  -0.00841  -0.00843  -3.05754
   D53       -3.04809  -0.00032   0.00000  -0.00058  -0.00060  -3.04869
   D54       -0.94510  -0.00050   0.00000  -0.01014  -0.01014  -0.95524
   D55        1.10791  -0.00023   0.00000  -0.00900  -0.00903   1.09888
   D56        1.17463  -0.00006   0.00000   0.00823   0.00825   1.18289
   D57       -3.00556  -0.00024   0.00000  -0.00133  -0.00129  -3.00685
   D58       -0.95255   0.00003   0.00000  -0.00018  -0.00018  -0.95273
   D59        0.98910  -0.00217   0.00000  -0.02519  -0.02509   0.96401
   D60        3.10261  -0.00147   0.00000  -0.02108  -0.02114   3.08146
   D61       -1.13143  -0.00011   0.00000  -0.00985  -0.00975  -1.14118
   D62       -1.11270  -0.00206   0.00000  -0.02333  -0.02326  -1.13595
   D63        1.00081  -0.00136   0.00000  -0.01922  -0.01931   0.98150
   D64        3.04996  -0.00000   0.00000  -0.00799  -0.00791   3.04204
   D65        3.11773  -0.00102   0.00000  -0.01197  -0.01191   3.10583
   D66       -1.05195  -0.00032   0.00000  -0.00786  -0.00796  -1.05991
   D67        0.99720   0.00104   0.00000   0.00337   0.00344   1.00064
   D68       -1.03812   0.00052   0.00000   0.01080   0.01090  -1.02722
   D69       -3.11940   0.00182   0.00000   0.01813   0.01728  -3.10212
   D70        1.08542  -0.00077   0.00000  -0.00178  -0.00159   1.08383
   D71        3.13170  -0.00044   0.00000   0.00003   0.00028   3.13198
   D72        1.05042   0.00086   0.00000   0.00736   0.00666   1.05708
   D73       -1.02794  -0.00173   0.00000  -0.01255  -0.01221  -1.04015
   D74        1.08163   0.00019   0.00000   0.00733   0.00766   1.08930
   D75       -0.99964   0.00149   0.00000   0.01466   0.01404  -0.98561
   D76       -3.07801  -0.00110   0.00000  -0.00525  -0.00483  -3.08284
   D77       -1.17209   0.00743   0.00000   0.00000   0.00001  -1.17208
   D78        3.09223  -0.00019   0.00000  -0.02138  -0.02175   3.07048
   D79        1.08348  -0.00426   0.00000  -0.07279  -0.07360   1.00988
   D80       -0.28572   0.01944   0.00000   0.00000   0.00001  -0.28572
   D81        3.06080   0.00822   0.00000   0.05990   0.05863   3.11942
         Item               Value     Threshold  Converged?
 Maximum Force            0.040643     0.000450     NO 
 RMS     Force            0.006911     0.000300     NO 
 Maximum Displacement     0.303328     0.001800     NO 
 RMS     Displacement     0.054263     0.001200     NO 
 Predicted change in Energy=-1.504699D-02
 GradGradGradGradGradGradGradGradGradGradGradGradGradGradGradGradGradGrad

                          Input orientation:                          
 ---------------------------------------------------------------------
 Center     Atomic      Atomic             Coordinates (Angstroms)
 Number     Number       Type             X           Y           Z
 ---------------------------------------------------------------------
      1          8           0       -3.316816   -1.618011    0.039282
      2          7           0       -3.061339   -0.437488    0.320175
      3          8           0       -3.848030    0.390590    0.801780
      4          6           0       -1.704757    0.004411    0.023691
      5          6           0       -1.339570    1.275818    0.332388
      6          7           0       -0.087581    1.777830    0.101503
      7          6           0        1.198205    1.042189    0.217621
      8          1           0        1.755510    1.547285    1.023946
      9          6           0        2.064190    1.054812   -1.030726
     10          6           0        3.416411    0.411365   -0.699497
     11          6           0        3.236986   -0.992520   -0.108017
     12          6           0        2.274697   -0.988127    1.081846
     13          6           0        0.917358   -0.370305    0.694166
     14          1           0        0.275730   -0.351857    1.589334
     15          7           0        0.357436   -1.224668   -0.351680
     16          6           0       -0.827024   -0.886489   -0.730563
     17          1           0       -2.070496    1.941514    0.790188
     18          1           0        0.004620    2.741391   -0.200601
     19          1           0        1.563076    0.499171   -1.830611
     20          1           0        2.202060    2.088720   -1.376074
     21          1           0        4.032913    0.366022   -1.604428
     22          1           0        3.948438    1.045645    0.023438
     23          1           0        2.832383   -1.657465   -0.879102
     24          1           0        4.206094   -1.402437    0.201449
     25          1           0        2.119344   -2.011547    1.443589
     26          1           0        2.704911   -0.409791    1.910596
     27          1           0       -1.293730   -1.473068   -1.525684
 ---------------------------------------------------------------------
                    Distance matrix (angstroms):
                    1          2          3          4          5
     1  O    0.000000
     2  N    1.240083   0.000000
     3  O    2.213159   1.239572   0.000000
     4  C    2.287189   1.457221   2.312612   0.000000
     5  C    3.517053   2.429003   2.701172   1.358356   0.000000
     6  N    4.686530   3.714659   4.068882   2.401318   1.368503
     7  C    5.243460   4.510396   5.121553   3.088977   2.551088
     8  H    6.059468   5.257058   5.725990   3.918471   3.182996
     9  C    6.102796   5.506627   6.225240   4.052172   3.673215
    10  C    7.071104   6.612227   7.417977   5.187965   4.942816
    11  C    6.585229   6.337216   7.275862   5.043019   5.126809
    12  C    5.722648   5.418176   6.282283   4.235667   4.330134
    13  C    4.462496   3.996801   4.826952   2.732295   2.816794
    14  H    4.112443   3.571292   4.263433   2.549606   2.615040
    15  N    3.715871   3.571984   4.650320   2.429852   3.098421
    16  C    2.706815   2.509545   3.620150   1.460486   2.463360
    17  H    3.845438   2.619605   2.359052   2.115100   1.089488
    18  H    5.485788   4.447087   4.623196   3.234708   2.058841
    19  H    5.638466   5.185405   6.018417   3.789717   3.702310
    20  H    6.797138   6.079668   6.650585   4.644018   4.015320
    21  H    7.788240   7.394467   8.240127   5.975147   5.782954
    22  H    7.738167   7.171103   7.862559   5.748285   5.302024
    23  H    6.217526   6.136984   7.186641   4.915537   5.241855
    24  H    7.527745   7.332177   8.273105   6.078568   6.159918
    25  H    5.628390   5.529846   6.464653   4.550159   4.899553
    26  H    6.420499   5.981626   6.694110   4.814265   4.657235
    27  H    2.561836   2.757547   3.926164   2.180012   3.318269
                    6          7          8          9         10
     6  N    0.000000
     7  C    1.485899   0.000000
     8  H    2.073894   1.102666   0.000000
     9  C    2.536693   1.519363   2.135297   0.000000
    10  C    3.845359   2.481832   2.649371   1.533702   0.000000
    11  C    4.332606   2.898742   3.150669   2.533458   1.533928
    12  C    3.767220   2.455179   2.588672   2.946333   2.536784
    13  C    2.444511   1.516940   2.118585   2.514247   2.966239
    14  H    2.623205   2.162387   2.473086   3.470162   3.960446
    15  N    3.068943   2.483875   3.395686   2.927481   3.486389
    16  C    2.887509   2.953033   3.958667   3.495406   4.437582
    17  H    2.105476   3.438171   3.853359   4.604084   5.887841
    18  H    1.014011   2.118217   2.447656   2.788455   4.161519
    19  H    2.844767   2.150176   3.046977   1.095293   2.173012
    20  H    2.742689   2.154720   2.500531   1.098744   2.178514
    21  H    4.677806   3.436951   3.672914   2.163200   1.095915
    22  H    4.102638   2.757083   2.462030   2.159106   1.099091
    23  H    4.614003   3.340879   3.879648   2.823040   2.157175
    24  H    5.344130   3.876062   3.922082   3.484836   2.173748
    25  H    4.585966   3.417133   3.601911   3.940538   3.485069
    26  H    3.982024   2.691574   2.348969   3.347681   2.827211
    27  H    3.830256   3.946563   4.992094   4.232113   5.139951
                   11         12         13         14         15
    11  C    0.000000
    12  C    1.530292   0.000000
    13  C    2.532058   1.540898   0.000000
    14  H    3.472821   2.158298   1.101523   0.000000
    15  N    2.899150   2.405584   1.461932   2.129791   0.000000
    16  C    4.112782   3.593860   2.310664   2.623703   1.288745
    17  H    6.130634   5.248672   3.779020   3.376827   4.150111
    18  H    4.939519   4.550519   3.363978   3.584069   3.984587
    19  H    2.827445   3.346770   2.747261   3.752004   2.571464
    20  H    3.488993   3.938735   3.461669   4.296604   3.928175
    21  H    2.172183   3.484410   3.941116   4.983160   4.196284
    22  H    2.162767   2.838638   3.412072   4.230110   4.265013
    23  H    1.095641   2.145774   2.792718   3.786062   2.567265
    24  H    1.096801   2.162649   3.481932   4.298570   3.892264
    25  H    2.166800   1.096531   2.167967   2.484899   2.635619
    26  H    2.167366   1.098355   2.162546   2.451017   3.360440
    27  H    4.771591   4.446127   3.321555   3.663830   2.041160
                   16         17         18         19         20
    16  C    0.000000
    17  H    3.443328   0.000000
    18  H    3.759522   2.434661   0.000000
    19  H    2.973674   4.706568   3.180136   0.000000
    20  H    4.294637   4.792608   2.576133   1.772447   0.000000
    21  H    5.094253   6.742993   4.882647   2.483744   2.524253
    22  H    5.206410   6.133356   4.298773   3.070194   2.469104
    23  H    3.742690   6.306932   5.273191   2.677235   3.831212
    24  H    5.144621   7.136119   5.914841   3.838089   4.323529
    25  H    3.830636   5.797273   5.455808   4.163355   4.976899
    26  H    4.435936   5.439527   4.656036   4.015798   4.159040
    27  H    1.092751   4.198332   4.604695   3.484830   4.992921
                   21         22         23         24         25
    21  H    0.000000
    22  H    1.766061   0.000000
    23  H    2.462086   3.060549   0.000000
    24  H    2.533501   2.468031   1.766271   0.000000
    25  H    4.313350   3.835210   2.455340   2.503688   0.000000
    26  H    3.836779   2.688126   3.058653   2.481952   1.768222
    27  H    5.635740   6.018639   4.180535   5.765071   4.555832
                   26         27
    26  H    0.000000
    27  H    5.378448   0.000000
 Symmetry turned off by external request.
 Stoichiometry    C9H13N3O2
 Framework group  C1[X(C9H13N3O2)]
 Deg. of freedom    75
 Full point group                 C1      NOp   1
 Rotational constants (GHZ):           1.7012626           0.4267437           0.3788784
 Standard basis: 6-31G(d) (6D, 7F)
   236 basis functions,   444 primitive gaussians,   236 cartesian basis functions
    52 alpha electrons       52 beta electrons
       nuclear repulsion energy       935.3546125511 Hartrees.
 NAtoms=   27 NActive=   27 NUniq=   27 SFac= 1.00D+00 NAtFMM=   60 NAOKFM=F Big=F
 Integral buffers will be    131072 words long.
 Raffenetti 1 integral format.
 Two-electron integral symmetry is turned off.
 One-electron integrals computed using PRISM.
 NBasis=   236 RedAO= T EigKep=  1.16D-03  NBF=   236
 NBsUse=   236 1.00D-06 EigRej= -1.00D+00 NBFU=   236
 Initial guess from the checkpoint file:  "/home/alexey/tmp/Gau-1245223.chk"
 B after Tr=     0.054323    0.004554    0.002070
         Rot=    0.999999   -0.000586   -0.000929   -0.000236 Ang=  -0.13 deg.
 ExpMin= 1.61D-01 ExpMax= 5.48D+03 ExpMxC= 8.25D+02 IAcc=3 IRadAn=         5 AccDes= 0.00D+00
 Harris functional with IExCor=  205 and IRadAn=       5 diagonalized for initial guess.
 HarFok:  IExCor=  205 AccDes= 0.00D+00 IRadAn=         5 IDoV= 1 UseB2=F ITyADJ=14
 ICtDFT=  3500011 ScaDFX=  1.000000  1.000000  1.000000  1.000000
 FoFCou: FMM=F IPFlag=           0 FMFlag=      100000 FMFlg1=           0
         NFxFlg=           0 DoJE=T BraDBF=F KetDBF=T FulRan=T
         wScrn=  0.000000 ICntrl=       500 IOpCl=  0 I1Cent=   200000004 NGrid=           0
         NMat0=    1 NMatS0=      1 NMatT0=    0 NMatD0=    1 NMtDS0=    0 NMtDT0=    0
 Symmetry not used in FoFCou.
 Keep R1 ints in memory in canonical form, NReq=397720213.
 Requested convergence on RMS density matrix=1.00D-08 within 128 cycles.
 Requested convergence on MAX density matrix=1.00D-06.
 Requested convergence on             energy=1.00D-06.
 No special actions if energy rises.
 SCF Done:  E(RHF) =  -661.276502311     A.U. after   15 cycles
            NFock= 15  Conv=0.43D-08     -V/T= 2.0025
 ExpMin= 1.61D-01 ExpMax= 5.48D+03 ExpMxC= 8.25D+02 IAcc=3 IRadAn=         5 AccDes= 0.00D+00
 HarFok:  IExCor=  205 AccDes= 0.00D+00 IRadAn=         5 IDoV=-2 UseB2=F ITyADJ=14
 ICtDFT= 12500011 ScaDFX=  1.000000  1.000000  1.000000  1.000000
[...]
                   16         17         18         19         20
    16  C    0.000000
    17  H    3.406457   0.000000
    18  H    3.899949   2.231932   0.000000
    19  H    2.967514   4.597677   3.493606   0.000000
    20  H    4.304332   4.718350   2.886587   1.769074   0.000000
    21  H    5.093291   6.698097   5.090511   2.501359   2.525215
    22  H    5.204088   6.136102   4.326834   3.071642   2.461752
    23  H    3.745065   6.302991   5.406018   2.706906   3.843935
    24  H    5.150200   7.168457   5.931710   3.852330   4.317980
    25  H    3.822470   5.880426   5.353760   4.172141   4.987156
    26  H    4.456092   5.562452   4.502087   4.050953   4.198996
    27  H    1.091413   4.142749   4.813651   3.463933   4.989142
                   21         22         23         24         25
    21  H    0.000000
    22  H    1.758499   0.000000
    23  H    2.465937   3.061249   0.000000
    24  H    2.516823   2.459176   1.764305   0.000000
    25  H    4.313967   3.847154   2.443774   2.523219   0.000000
    26  H    3.854484   2.717570   3.060501   2.483218   1.766131
    27  H    5.614240   5.999297   4.162016   5.751413   4.533478
                   26         27
    26  H    0.000000
    27  H    5.385324   0.000000
 Symmetry turned off by external request.
 Stoichiometry    C9H13N3O2
 Framework group  C1[X(C9H13N3O2)]
 Deg. of freedom    75
 Full point group                 C1      NOp   1
 Rotational constants (GHZ):           1.7236298           0.4172279           0.3743033

 **********************************************************************

            Population analysis using the SCF Density.

 **********************************************************************

 Alpha  occ. eigenvalues --  -20.59290 -20.58979 -15.84846 -15.63633 -15.56879
 Alpha  occ. eigenvalues --  -11.35216 -11.29878 -11.29622 -11.28454 -11.26982
 Alpha  occ. eigenvalues --  -11.23714 -11.23266 -11.22742 -11.22159  -1.57168
 Alpha  occ. eigenvalues --   -1.36803  -1.30384  -1.23428  -1.14800  -1.09880
 Alpha  occ. eigenvalues --   -1.02686  -1.01365  -0.94281  -0.89658  -0.85667
 Alpha  occ. eigenvalues --   -0.82184  -0.78143  -0.77520  -0.74623  -0.71655
 Alpha  occ. eigenvalues --   -0.69922  -0.69661  -0.67937  -0.65104  -0.63653
 Alpha  occ. eigenvalues --   -0.62308  -0.60179  -0.57331  -0.56988  -0.54946
 Alpha  occ. eigenvalues --   -0.54620  -0.50824  -0.49673  -0.48669  -0.47888
 Alpha  occ. eigenvalues --   -0.47454  -0.46396  -0.45997  -0.43667  -0.41963
 Alpha  occ. eigenvalues --   -0.40417  -0.34243
 Alpha virt. eigenvalues --    0.07074   0.11886   0.17850   0.21272   0.22666
 Alpha virt. eigenvalues --    0.24723   0.27055   0.27917   0.29055   0.29382
 Alpha virt. eigenvalues --    0.30463   0.31997   0.32141   0.32589   0.33916
 Alpha virt. eigenvalues --    0.34244   0.35514   0.37118   0.38282   0.39915
 Alpha virt. eigenvalues --    0.41618   0.43408   0.45056   0.45928   0.46483
 Alpha virt. eigenvalues --    0.47155   0.48360   0.53191   0.56793   0.58705
 Alpha virt. eigenvalues --    0.63706   0.69576   0.71062   0.72774   0.74080
 Alpha virt. eigenvalues --    0.75523   0.76649   0.77141   0.79084   0.79396
 Alpha virt. eigenvalues --    0.80582   0.84402   0.85230   0.87842   0.88166
 Alpha virt. eigenvalues --    0.88774   0.89852   0.92353   0.92921   0.94218
 Alpha virt. eigenvalues --    0.96536   0.97132   0.98505   1.01426   1.02381
 Alpha virt. eigenvalues --    1.02866   1.04634   1.05536   1.07146   1.08809
 Alpha virt. eigenvalues --    1.09482   1.10968   1.11736   1.12102   1.13710
 Alpha virt. eigenvalues --    1.14412   1.14658   1.15424   1.16333   1.18219
 Alpha virt. eigenvalues --    1.18743   1.20101   1.21153   1.22842   1.23205
 Alpha virt. eigenvalues --    1.23878   1.25518   1.27063   1.27931   1.28459
 Alpha virt. eigenvalues --    1.30836   1.32932   1.33549   1.36378   1.40178
 Alpha virt. eigenvalues --    1.41231   1.44391   1.45553   1.49938   1.52882
 Alpha virt. eigenvalues --    1.55250   1.59337   1.60677   1.61627   1.68426
 Alpha virt. eigenvalues --    1.69766   1.69947   1.71763   1.74659   1.77856
 Alpha virt. eigenvalues --    1.82115   1.83112   1.86202   1.90039   1.93008
 Alpha virt. eigenvalues --    1.95901   1.98314   1.99746   2.01309   2.03421
 Alpha virt. eigenvalues --    2.04417   2.06530   2.08947   2.09576   2.12452
 Alpha virt. eigenvalues --    2.14433   2.16032   2.18213   2.20353   2.20994
 Alpha virt. eigenvalues --    2.23760   2.25439   2.27192   2.28129   2.30262
 Alpha virt. eigenvalues --    2.30556   2.33712   2.35934   2.37058   2.39199
 Alpha virt. eigenvalues --    2.39999   2.41532   2.42092   2.46399   2.50123
 Alpha virt. eigenvalues --    2.50659   2.51961   2.53794   2.55477   2.61983
 Alpha virt. eigenvalues --    2.64223   2.64979   2.68151   2.71236   2.72578
 Alpha virt. eigenvalues --    2.74835   2.75495   2.77592   2.79166   2.84166
 Alpha virt. eigenvalues --    2.87325   2.87983   2.92545   2.95226   2.97639
 Alpha virt. eigenvalues --    2.97961   3.02002   3.03796   3.04267   3.07429
 Alpha virt. eigenvalues --    3.08866   3.13789   3.21698   3.24829   3.25390
 Alpha virt. eigenvalues --    3.33125   3.36491   3.37393   3.51692   3.57934
 Alpha virt. eigenvalues --    4.11987   4.28524   4.30066   4.36049   4.45471
 Alpha virt. eigenvalues --    4.58687   4.62031   4.64415   4.73351   4.80398
 Alpha virt. eigenvalues --    4.95196   5.00453   5.02845   5.14860
          Condensed to atoms (all electrons):
               1          2          3          4          5          6
     1  O    8.309426   0.312473  -0.078641  -0.087921   0.004092  -0.000018
     2  N    0.312473   5.746105   0.293989   0.253296  -0.040883   0.001312
     3  O   -0.078641   0.293989   8.347981  -0.090206   0.004440   0.000563
     4  C   -0.087921   0.253296  -0.090206   5.217881   0.549498  -0.054294
     5  C    0.004092  -0.040883   0.004440   0.549498   4.709094   0.326242
     6  N   -0.000018   0.001312   0.000563  -0.054294   0.326242   7.193310
     7  C    0.000004  -0.000082   0.000004   0.001801  -0.029361   0.171786
     8  H   -0.000000   0.000002  -0.000000  -0.000161   0.002101  -0.050603
     9  C   -0.000000  -0.000001  -0.000000   0.000911   0.001261  -0.053998
    10  C    0.000000   0.000000   0.000000  -0.000033  -0.000055   0.003530
    11  C   -0.000000  -0.000000  -0.000000  -0.000026   0.000016  -0.000220
    12  C   -0.000000   0.000004  -0.000000   0.000166   0.000050   0.004156
    13  C   -0.000034  -0.000124  -0.000012  -0.018917  -0.002964  -0.049704
    14  H   -0.000011  -0.000134  -0.000002   0.005063   0.006402  -0.009248
    15  N    0.000037   0.002243  -0.000020  -0.066441  -0.005658   0.002241
    16  C    0.003181  -0.034469   0.002877   0.338611  -0.055849  -0.008151
    17  H    0.000142  -0.006942   0.014361  -0.026648   0.376999  -0.037266
    18  H    0.000001  -0.000052   0.000007   0.002039  -0.031500   0.335872
    19  H    0.000000  -0.000001   0.000000  -0.000621   0.000403   0.000579
    20  H    0.000000  -0.000000   0.000000  -0.000037   0.000093  -0.001265
    21  H   -0.000000   0.000000   0.000000   0.000000   0.000001  -0.000064
    22  H   -0.000000   0.000000  -0.000000   0.000000  -0.000004  -0.000106
    23  H   -0.000000  -0.000000   0.000000   0.000028  -0.000001  -0.000029
    24  H   -0.000000   0.000000   0.000000   0.000000  -0.000000   0.000006
    25  H    0.000000  -0.000000   0.000000   0.000016   0.000004  -0.000102
    26  H   -0.000000  -0.000000   0.000000   0.000013  -0.000006  -0.000057
    27  H    0.006030  -0.000597   0.000019  -0.059651   0.002417   0.000213
               7          8          9         10         11         12
     1  O    0.000004  -0.000000  -0.000000   0.000000  -0.000000  -0.000000
     2  N   -0.000082   0.000002  -0.000001   0.000000  -0.000000   0.000004
     3  O    0.000004  -0.000000  -0.000000   0.000000  -0.000000  -0.000000
     4  C    0.001801  -0.000161   0.000911  -0.000033  -0.000026   0.000166
     5  C   -0.029361   0.002101   0.001261  -0.000055   0.000016   0.000050
     6  N    0.171786  -0.050603  -0.053998   0.003530  -0.000220   0.004156
     7  C    5.001698   0.418907   0.344876  -0.055327  -0.008992  -0.061507
     8  H    0.418907   0.539671  -0.055829   0.001368  -0.000516  -0.001679
     9  C    0.344876  -0.055829   5.154538   0.321530  -0.049523  -0.006278
    10  C   -0.055327   0.001368   0.321530   5.126747   0.336226  -0.059082
    11  C   -0.008992  -0.000516  -0.049523   0.336226   5.116900   0.336571
    12  C   -0.061507  -0.001679  -0.006278  -0.059082   0.336571   5.115676
    13  C    0.352114  -0.042508  -0.055587  -0.001622  -0.051675   0.365382
    14  H   -0.046152  -0.000563   0.004397  -0.000420   0.004105  -0.034538
    15  N   -0.055673   0.003878  -0.013792   0.001414  -0.011404  -0.079771
    16  C   -0.006955   0.000442  -0.003145   0.000096  -0.000121   0.004366
    17  H    0.001704  -0.000006  -0.000074   0.000001   0.000000   0.000000
    18  H   -0.021802  -0.003535   0.000913  -0.000095   0.000005  -0.000134
    19  H   -0.036971   0.004384   0.389966  -0.031266  -0.002347   0.000775
    20  H   -0.041461  -0.002218   0.399793  -0.035808   0.003926  -0.000380
    21  H    0.004634  -0.000088  -0.036057   0.402498  -0.034671   0.004224
    22  H   -0.004727   0.003536  -0.046642   0.397430  -0.045658  -0.000935
    23  H    0.000459   0.000041  -0.001902  -0.039154   0.399292  -0.037569
    24  H   -0.000132  -0.000099   0.004353  -0.038535   0.402391  -0.038784
    25  H    0.005151  -0.000017  -0.000426   0.004135  -0.033741   0.399131
    26  H   -0.004023   0.001853   0.000904  -0.002029  -0.041747   0.397341
    27  H   -0.000406   0.000013  -0.000097   0.000011   0.000003  -0.000040
              13         14         15         16         17         18
     1  O   -0.000034  -0.000011   0.000037   0.003181   0.000142   0.000001
     2  N   -0.000124  -0.000134   0.002243  -0.034469  -0.006942  -0.000052
     3  O   -0.000012  -0.000002  -0.000020   0.002877   0.014361   0.000007
     4  C   -0.018917   0.005063  -0.066441   0.338611  -0.026648   0.002039
     5  C   -0.002964   0.006402  -0.005658  -0.055849   0.376999  -0.031500
     6  N   -0.049704  -0.009248   0.002241  -0.008151  -0.037266   0.335872
     7  C    0.352114  -0.046152  -0.055673  -0.006955   0.001704  -0.021802
     8  H   -0.042508  -0.000563   0.003878   0.000442  -0.000006  -0.003535
     9  C   -0.055587   0.004397  -0.013792  -0.003145  -0.000074   0.000913
    10  C   -0.001622  -0.000420   0.001414   0.000096   0.000001  -0.000095
    11  C   -0.051675   0.004105  -0.011404  -0.000121   0.000000   0.000005
    12  C    0.365382  -0.034538  -0.079771   0.004366   0.000000  -0.000134
    13  C    5.076882   0.398245   0.251450  -0.078334   0.000033   0.003379
    14  H    0.398245   0.525915  -0.037614  -0.004507   0.000357  -0.000096
    15  N    0.251450  -0.037614   6.935624   0.563910  -0.000183  -0.000103
    16  C   -0.078334  -0.004507   0.563910   4.778848   0.003430  -0.000149
    17  H    0.000033   0.000357  -0.000183   0.003430   0.395850  -0.003318
    18  H    0.003379  -0.000096  -0.000103  -0.000149  -0.003318   0.321196
    19  H   -0.007241   0.000120   0.007638   0.003565   0.000013  -0.000126
    20  H    0.004236  -0.000060   0.000119  -0.000032   0.000005   0.000861
    21  H   -0.000375   0.000010  -0.000032   0.000002  -0.000000   0.000001
    22  H    0.000078  -0.000062   0.000003  -0.000003  -0.000000   0.000001
    23  H   -0.006691  -0.000005   0.007651  -0.000046   0.000000   0.000000
    24  H    0.004678  -0.000048   0.000153   0.000010   0.000000  -0.000000
    25  H   -0.035689  -0.002650  -0.000686  -0.000009   0.000000   0.000003
    26  H   -0.046994  -0.001221   0.004679  -0.000131  -0.000000  -0.000001
    27  H    0.005738  -0.000289  -0.040838   0.400287  -0.000088   0.000003
              19         20         21         22         23         24
     1  O    0.000000   0.000000  -0.000000  -0.000000  -0.000000  -0.000000
     2  N   -0.000001  -0.000000   0.000000   0.000000  -0.000000   0.000000
     3  O    0.000000   0.000000   0.000000  -0.000000   0.000000   0.000000
     4  C   -0.000621  -0.000037   0.000000   0.000000   0.000028   0.000000
     5  C    0.000403   0.000093   0.000001  -0.000004  -0.000001  -0.000000
     6  N    0.000579  -0.001265  -0.000064  -0.000106  -0.000029   0.000006
     7  C   -0.036971  -0.041461   0.004634  -0.004727   0.000459  -0.000132
     8  H    0.004384  -0.002218  -0.000088   0.003536   0.000041  -0.000099
     9  C    0.389966   0.399793  -0.036057  -0.046642  -0.001902   0.004353
    10  C   -0.031266  -0.035808   0.402498   0.397430  -0.039154  -0.038535
    11  C   -0.002347   0.003926  -0.034671  -0.045658   0.399292   0.402391
    12  C    0.000775  -0.000380   0.004224  -0.000935  -0.037569  -0.038784
    13  C   -0.007241   0.004236  -0.000375   0.000078  -0.006691   0.004678
    14  H    0.000120  -0.000060   0.000010  -0.000062  -0.000005  -0.000048
    15  N    0.007638   0.000119  -0.000032   0.000003   0.007651   0.000153
    16  C    0.003565  -0.000032   0.000002  -0.000003  -0.000046   0.000010
    17  H    0.000013   0.000005  -0.000000  -0.000000   0.000000   0.000000
    18  H   -0.000126   0.000861   0.000001   0.000001   0.000000  -0.000000
    19  H    0.499417  -0.024270  -0.002794   0.003882   0.001512  -0.000060
    20  H   -0.024270   0.540144  -0.002549  -0.002998  -0.000049  -0.000082
    21  H   -0.002794  -0.002549   0.522434  -0.027293  -0.002920  -0.002188
    22  H    0.003882  -0.002998  -0.027293   0.570975   0.004166  -0.003722
    23  H    0.001512  -0.000049  -0.002920   0.004166   0.501102  -0.025698
    24  H   -0.000060  -0.000082  -0.002188  -0.003722  -0.025698   0.538692
    25  H   -0.000027   0.000012  -0.000086  -0.000077  -0.002460  -0.002190
    26  H    0.000019  -0.000030  -0.000083   0.002360   0.004056  -0.003215
    27  H    0.000093   0.000000  -0.000000   0.000000  -0.000026  -0.000000
              25         26         27
     1  O    0.000000  -0.000000   0.006030
     2  N   -0.000000  -0.000000  -0.000597
     3  O    0.000000   0.000000   0.000019
     4  C    0.000016   0.000013  -0.059651
     5  C    0.000004  -0.000006   0.002417
     6  N   -0.000102  -0.000057   0.000213
     7  C    0.005151  -0.004023  -0.000406
     8  H   -0.000017   0.001853   0.000013
     9  C   -0.000426   0.000904  -0.000097
    10  C    0.004135  -0.002029   0.000011
    11  C   -0.033741  -0.041747   0.000003
    12  C    0.399131   0.397341  -0.000040
    13  C   -0.035689  -0.046994   0.005738
    14  H   -0.002650  -0.001221  -0.000289
    15  N   -0.000686   0.004679  -0.040838
    16  C   -0.000009  -0.000131   0.400287
    17  H    0.000000  -0.000000  -0.000088
    18  H    0.000003  -0.000001   0.000003
    19  H   -0.000027   0.000019   0.000093
    20  H    0.000012  -0.000030   0.000000
    21  H   -0.000086  -0.000083  -0.000000
    22  H   -0.000077   0.002360   0.000000
    23  H   -0.002460   0.004056  -0.000026
    24  H   -0.002190  -0.003215  -0.000000
    25  H    0.508545  -0.024247  -0.000005
    26  H   -0.024247   0.561984   0.000001
    27  H   -0.000005   0.000001   0.445825
 Mulliken charges:
               1
     1  O   -0.468761
     2  N    0.473863
     3  O   -0.495360
     4  C    0.035633
     5  C    0.183166
     6  N   -0.774684
     7  C    0.070434
     8  H    0.181626
     9  C   -0.300090
    10  C   -0.331561
    11  C   -0.318793
    12  C   -0.307146
    13  C   -0.063740
    14  H    0.193008
    15  N   -0.468826
    16  C    0.092279
    17  H    0.281630
    18  H    0.396631
    19  H    0.193359
    20  H    0.162048
    21  H    0.175397
    22  H    0.149796
    23  H    0.198244
    24  H    0.164471
    25  H    0.185416
    26  H    0.150574
    27  H    0.241384
 Sum of Mulliken charges =  -0.00000
 Mulliken charges with hydrogens summed into heavy atoms:
               1
     1  O   -0.468761
     2  N    0.473863
     3  O   -0.495360
     4  C    0.035633
     5  C    0.464796
     6  N   -0.378053
     7  C    0.252060
     9  C    0.055317
    10  C   -0.006369
    11  C    0.043923
    12  C    0.028845
    13  C    0.129268
    15  N   -0.468826
    16  C    0.333662
 Electronic spatial extent (au):  <R**2>=           2997.5707
 Charge=             -0.0000 electrons
 Dipole moment (field-independent basis, Debye):
    X=              5.3416    Y=              5.0158    Z=              0.5016  Tot=              7.3446
 Quadrupole moment (field-independent basis, Debye-Ang):
   XX=           -105.3353   YY=            -79.4129   ZZ=            -82.3112
   XY=             -3.6302   XZ=              3.2942   YZ=              0.8504
 Traceless Quadrupole moment (field-independent basis, Debye-Ang):
   XX=            -16.3155   YY=              9.6069   ZZ=              6.7086
   XY=             -3.6302   XZ=              3.2942   YZ=              0.8504
 Octapole moment (field-independent basis, Debye-Ang**2):
  XXX=             88.3612  YYY=             40.7768  ZZZ=             -8.9076  XYY=             -4.4332
  XXY=             18.1552  XXZ=            -13.2220  XZZ=             -7.4965  YZZ=             -0.5856
  YYZ=              5.5411  XYZ=              1.3306
 Hexadecapole moment (field-independent basis, Debye-Ang**3):
 XXXX=          -3360.5996 YYYY=           -581.4245 ZZZZ=           -319.0128 XXXY=            -81.1404
 XXXZ=            120.9164 YYYX=            -48.4147 YYYZ=             18.3072 ZZZX=             75.3578
 ZZZY=             10.7772 XXYY=           -618.8120 XXZZ=           -537.7158 YYZZ=           -157.6146
 XXYZ=            -11.1524 YYXZ=             24.0207 ZZXY=             -2.8502
 N-N= 9.330828987667D+02 E-N=-3.412849038722D+03  KE= 6.596292429387D+02
 Unable to Open any file for archive entry.
 1\1\GINC-LOTUS\FOpt\RMP2-FC\6-31G(d)\C9H13N3O2\ALEXEY\01-Jul-2023\0\\#
 MP2/6-31G* SCF=Tight Opt=(ModRedun, MaxCycle=20 ) NoSymm\\MolName:\\0,
 1\O,-3.4701332067,-1.4793357894,-0.2677805057\N,-3.1100125453,-0.37580
 78121,0.1875550773\O,-3.877513456,0.4470952842,0.7228364357\C,-1.70603
 61331,-0.068820482,0.1160111715\C,-1.3275414969,1.2358255289,0.3227350
 177\N,-0.0865273324,1.7516604083,0.1297124122\C,1.213313752,1.04160115
 21,0.2144379202\H,1.791786125,1.5835496612,0.9789036225\C,2.030095947,
 1.0278525994,-1.0688509286\C,3.3951223793,0.4013540178,-0.7564247634\C
 ,3.2592797463,-0.9842667035,-0.1168117784\C,2.3369105843,-0.9652441761
 ,1.1064373726\C,0.9704642935,-0.3705971496,0.7395971874\H,0.3225906539
 ,-0.3098316362,1.6297066674\N,0.3841368292,-1.2528052993,-0.2713694112
 \C,-0.8224937725,-0.952343161,-0.6295307624\H,-2.0913688558,1.95363185
 41,0.6151425782\H,-0.0273823754,2.7475068477,0.3130793519\H,1.49929680
 64,0.4511032654,-1.8319304277\H,2.1508958968,2.0503708834,-1.448025361
 8\H,3.9930067036,0.3378039564,-1.6726453929\H,3.9412420664,1.067625126
 2,-0.0735827754\H,2.8440338382,-1.6828837021,-0.8495229924\H,4.2493176
 364,-1.3602606632,0.1672679669\H,2.1900087245,-1.9822050343,1.48600447
 93\H,2.7880493795,-0.3775652017,1.9180890621\H,-1.2795221884,-1.572023
 7747,-1.4030312231\\Version=ES64L-G16RevC.02\HF=-661.2844167\MP2=-663.
 3222751\RMSD=4.328e-09\RMSF=7.024e-03\Dipole=1.9232312,1.7260285,0.202
 6858\PG=C01 [X(C9H13N3O2)]\\@
 The archive entry for this job was punched.


 REFRAIN FROM ILLUSIONS, INSIST ON WORK AND NOT WORDS,
 PATIENTLY SEEK DIVINE AND SCIENTIFIC TRUTH.
 LAST WORDS OF MARIA MENDELEEVA TO HER SON DMITRI, C. 1850
 Job cpu time:       0 days  1 hours 18 minutes  0.4 seconds.
 Elapsed time:       0 days  0 hours 23 minutes 19.3 seconds.
 File lengths (MBytes):  RWF=     36 Int=      0 D2E=      0 Chk=      7 Scr=      1
 Normal termination of Gaussian 16 at Sat Jul  1 01:34:47 2023.
