 Entering Gaussian System, Link 0=g09
 Initial command:
 /home/ana/programs/g09/l1.exe /home/ana/programs/g09/scratch/Gau-706112.inp -scrdir=/home/ana/programs/g09/scratch/
 Entering Link 1 = /home/ana/programs/g09/l1.exe PID=    706114.
  
 Copyright (c) 1988,1990,1992,1993,1995,1998,2003,2009, Gaussian, Inc.
                  All Rights Reserved.
  
 This is part of the Gaussian(R) 09 program.  It is based on
 the Gaussian(R) 03 system (copyright 2003, Gaussian, Inc.),
 the Gaussian(R) 98 system (copyright 1998, Gaussian, Inc.),
 the Gaussian(R) 94 system (copyright 1995, Gaussian, Inc.),
 the Gaussian 92(TM) system (copyright 1992, Gaussian, Inc.),
 the Gaussian 90(TM) system (copyright 1990, Gaussian, Inc.),
 the Gaussian 88(TM) system (copyright 1988, Gaussian, Inc.),
 the Gaussian 86(TM) system (copyright 1986, Carnegie Mellon
 University), and the Gaussian 82(TM) system (copyright 1983,
 Carnegie Mellon University). Gaussian is a federally registered
 trademark of Gaussian, Inc.
  
 This software contains proprietary and confidential information,
 including trade secrets, belonging to Gaussian, Inc.
  
 This software is provided under written license and may be
 used, copied, transmitted, or stored only in accord with that
 written license.
  
 The following legend is applicable only to US Government
 contracts under FAR:
  
                    RESTRICTED RIGHTS LEGEND
  
 Use, reproduction and disclosure by the US Government is
 subject to restrictions as set forth in subparagraphs (a)
 and (c) of the Commercial Computer Software - Restricted
 Rights clause in FAR 52.227-19.
  
 Gaussian, Inc.
 340 Quinnipiac St., Bldg. 40, Wallingford CT 06492
  
  
 ---------------------------------------------------------------
 Warning -- This program may not be used in any manner that
 competes with the business of Gaussian, Inc. or will provide
 assistance to any competitor of Gaussian, Inc.  The licensee
 of this program is prohibited from giving any competitor of
 Gaussian, Inc. access to this program.  By using this program,
 the user acknowledges that Gaussian, Inc. is engaged in the
 business of creating and licensing software in the field of
 computational chemistry and represents and warrants to the
 licensee that it is not a competitor of Gaussian, Inc. and that
 it will not use this program in any manner prohibited above.
 ---------------------------------------------------------------
  

 Cite this work as:
 Gaussian 09, Revision A.01,
 M. J. Frisch, G. W. Trucks, H. B. Schlegel, G. E. Scuseria, 
 M. A. Robb, J. R. Cheeseman, G. Scalmani, V. Barone, B. Mennucci, 
 G. A. Petersson, H. Nakatsuji, M. Caricato, X. Li, H. P. Hratchian, 
 A. F. Izmaylov, J. Bloino, G. Zheng, J. L. Sonnenberg, M. Hada, 
 M. Ehara, K. Toyota, R. Fukuda, J. Hasegawa, M. Ishida, T. Nakajima, 
 Y. Honda, O. Kitao, H. Nakai, T. Vreven, J. A. Montgomery, Jr., 
 J. E. Peralta, F. Ogliaro, M. Bearpark, J. J. Heyd, E. Brothers, 
 K. N. Kudin, V. N. Staroverov, R. Kobayashi, J. Normand, 
 K. Raghavachari, A. Rendell, J. C. Burant, S. S. Iyengar, J. Tomasi, 
 M. Cossi, N. Rega, J. M. Millam, M. Klene, J. E. Knox, J. B. Cross, 
 V. Bakken, C. Adamo, J. Jaramillo, R. Gomperts, R. E. Stratmann, 
 O. Yazyev, A. J. Austin, R. Cammi, C. Pomelli, J. W. Ochterski, 
 R. L. Martin, K. Morokuma, V. G. Zakrzewski, G. A. Voth, 
 P. Salvador, J. J. Dannenberg, S. Dapprich, A. D. Daniels, 
 O. Farkas, J. B. Foresman, J. V. Ortiz, J. Cioslowski, 
 and D. J. Fox, Gaussian, Inc., Wallingford CT, 2009.
 
 ******************************************
 Gaussian 09:  EM64L-G09RevA.01  8-May-2009
                24-Sep-2021 
 ******************************************
 %NPROC=4
 Will use up to    4 processors via shared memory.
 %NoSave
 ------------------------------
 #HF/6-31G* Opt=Z-matrix NoSymm
 ------------------------------
 1/10=7,18=40,38=1/1,3;
 2/12=2,15=1,17=6,18=5,29=3,40=1/2;
 3/5=1,6=6,7=1,11=9,16=1,25=1,30=1,71=1/1,2,3;
 4//1;
 5/5=2,38=5/2;
 6/7=2,8=2,9=2,10=2,28=1/1;
 7/29=1,30=1/1,2,3,16;
 1/10=7,18=40/3(2);
 2/15=1,29=3/2;
 99//99;
 2/15=1,29=3/2;
 3/5=1,6=6,7=1,11=9,16=1,25=1,30=1,71=1/1,2,3;
 4/5=5,16=3/1;
 5/5=2,38=5/2;
 7/30=1/1,2,3,16;
 1/18=40/3(-5);
 2/15=1,29=3/2;
 6/7=2,8=2,9=2,10=2,19=2,28=1/1;
 99/9=1/99;
 -------------------------------
 water interaction with atom S12
 -------------------------------
 Symbolic Z-matrix:
 Charge =  0 Multiplicity = 1
 9                    -1   -1.9693    2.05368   0.00007 
 6                    -1   -1.22225   0.94423   0.00003 
 6                    -1    0.14003   1.0574   -0.00002 
 6                    -1    0.92795  -0.12364  -0.00008 
 6                    -1    2.41466  -0.01865  -0.00001 
 9                    -1    3.00708  -1.23461  -0.00056 
 9                    -1    2.85829   0.65448  -1.08602 
 9                    -1    2.85827   0.6535    1.08665 
 6                    -1    0.30654  -1.34149  -0.00009 
 7                    -1   -1.05417  -1.38997  -0.00006 
 6                    -1   -1.9305   -0.3121    0. 
 16                   -1   -3.57098  -0.50661   0.00003 
 1                    -1    0.59686   2.0431   -0.00002 
 1                    -1    0.83176  -2.28899  -0.00015 
 1                    -1   -1.52148  -2.29639  -0.00009 
 X                    12   RDUM     11   ADUM     2    DDUM     0
 X                    16   RDUM     12   ADUM     11   DDUM     0
 H1                   12   RX       16   ADUM     17   DH1      0
 X                    18   RDUM     12   ADUM     16   DDUM     0
 OH2                  18   ROH      19   ADUM     12   DOH2     0
 H2                   20   ROH      18   AHOH     16   DH2      0
       Variables:
  RX                    3.0518                   
       Constants:
  RDUM                  1.                       
  ROH                   0.9572                   
  ADUM                 90.                       
  AHOH                104.52                     
  DDUM                  0.                       
  DH1                 180.                       
  DOH2                180.                       
  DH2                 180.                       
 

 GradGradGradGradGradGradGradGradGradGradGradGradGradGradGradGradGradGrad
 Berny optimization.
 Initialization pass.
                       ----------------------------
                       !    Initial Parameters    !
                       ! (Angstroms and Degrees)  !
 ----------------------                            ----------------------
 !      Name          Value   Derivative information (Atomic Units)     !
 ------------------------------------------------------------------------
 !       RX          3.0518   estimate D2E/DX2                          !
 !      RDUM         1.0      Frozen                                    !
 !       ROH         0.9572   Frozen                                    !
 !      ADUM        90.0      Frozen                                    !
 !      AHOH       104.52     Frozen                                    !
 !      DDUM         0.0      Frozen                                    !
 !       DH1       180.0      Frozen                                    !
 !      DOH2       180.0      Frozen                                    !
 !       DH2       180.0      Frozen                                    !
 ------------------------------------------------------------------------
 Trust Radius=3.00D-01 FncErr=1.00D-07 GrdErr=1.00D-07
 Number of steps in this run=  20 maximum allowed number of steps= 100.
 GradGradGradGradGradGradGradGradGradGradGradGradGradGradGradGradGradGrad

 ---------------------------------------------------------------------------------------------------
                            Z-MATRIX (ANGSTROMS AND DEGREES)
   CD    Cent   Atom    N1       Length/X        N2       Alpha/Y        N3        Beta/Z          J
 ---------------------------------------------------------------------------------------------------
      1      1  F       -1  -1.969300          2.053680          0.000070
      2      2  C       -1  -1.222250          0.944230          0.000030
      3      3  C       -1   0.140030          1.057400         -0.000020
      4      4  C       -1   0.927950         -0.123640         -0.000080
      5      5  C       -1   2.414660         -0.018650         -0.000010
      6      6  F       -1   3.007080         -1.234610         -0.000560
      7      7  F       -1   2.858290          0.654480         -1.086020
      8      8  F       -1   2.858270          0.653500          1.086650
      9      9  C       -1   0.306540         -1.341490         -0.000090
     10     10  N       -1  -1.054170         -1.389970         -0.000060
     11     11  C       -1  -1.930500         -0.312100          0.000000
     12     12  S       -1  -3.570980         -0.506610          0.000030
     13     13  H       -1   0.596860          2.043100         -0.000020
     14     14  H       -1   0.831760         -2.288990         -0.000150
     15     15  H       -1  -1.521480         -2.296390         -0.000090
     16         X       12   1.000000(    15)     11   90.000(    34)      2    0.000(    52)      0
     17         X       16   1.000000(    16)     12   90.000(    35)     11    0.000(    53)      0
     18     16  H       12   3.051800(    17)     16   90.000(    36)     17  180.000(    54)      0
     19         X       18   1.000000(    18)     12   90.000(    37)     16    0.000(    55)      0
     20     17  O       18   0.957200(    19)     19   90.000(    38)     12  180.000(    56)      0
     21     18  H       20   0.957200(    20)     18  104.520(    39)     16  180.000(    57)      0
 ---------------------------------------------------------------------------------------------------
                         Z-Matrix orientation:                         
 ---------------------------------------------------------------------
 Center     Atomic      Atomic             Coordinates (Angstroms)
 Number     Number       Type             X           Y           Z
 ---------------------------------------------------------------------
      1          9           0       -1.969300    2.053680    0.000070
      2          6           0       -1.222250    0.944230    0.000030
      3          6           0        0.140030    1.057400   -0.000020
      4          6           0        0.927950   -0.123640   -0.000080
      5          6           0        2.414660   -0.018650   -0.000010
      6          9           0        3.007080   -1.234610   -0.000560
      7          9           0        2.858290    0.654480   -1.086020
      8          9           0        2.858270    0.653500    1.086650
      9          6           0        0.306540   -1.341490   -0.000090
     10          7           0       -1.054170   -1.389970   -0.000060
     11          6           0       -1.930500   -0.312100    0.000000
     12         16           0       -3.570980   -0.506610    0.000030
     13          1           0        0.596860    2.043100   -0.000020
     14          1           0        0.831760   -2.288990   -0.000150
     15          1           0       -1.521480   -2.296390   -0.000090
     16         -1           0       -3.688724    0.486434    0.000069
     17         -1           0       -2.695680    0.604178    0.000051
     18          1           0       -6.601552   -0.865942    0.000085
     19         -1           0       -6.719296    0.127102    0.000124
     20          8           0       -7.552093   -0.978646    0.000103
     21          1           0       -7.681306   -1.927085    0.000071
 ---------------------------------------------------------------------
                    Distance matrix (angstroms):
                    1          2          3          4          5
     1  F    0.000000
     2  C    1.337521   0.000000
     3  C    2.332777   1.366973   0.000000
     4  C    3.624194   2.400772   1.419744   0.000000
     5  C    4.849088   3.762214   2.516312   1.490413   0.000000
     6  F    5.964663   4.757581   3.670597   2.357337   1.352598
     7  F    5.142274   4.232525   2.954772   2.347541   1.352527
     8  F    5.142625   4.232719   2.955134   2.347566   1.352555
     9  C    4.087374   2.749857   2.404662   1.367227   2.488790
    10  N    3.563171   2.340244   2.723184   2.352104   3.730054
    11  C    2.366098   1.442215   2.482463   2.864656   4.355058
    12  S    3.020011   2.760701   4.027123   4.515201   6.005497
    13  H    2.566182   2.125247   1.086415   2.191890   2.748674
    14  H    5.167661   3.830492   3.417136   2.167485   2.767673
    15  H    4.373060   3.254406   3.742796   3.274225   4.547669
    16  X    2.326517   2.508600   3.871093   4.656809   6.124248
    17  X    1.621322   1.512161   2.871700   3.696000   5.148154
    18  H    5.475577   5.675703   7.010575   7.566003   9.055936
    19  X    5.125833   5.557446   6.922124   7.651355   9.135119
    20  O    6.353155   6.615464   7.957025   8.523038  10.012880
    21  H    6.962292   7.068512   8.371407   8.796119  10.274758
                    6          7          8          9         10
     6  F    0.000000
     7  F    2.183809   0.000000
     8  F    2.183834   2.172670   0.000000
     9  C    2.702654   3.416807   3.416477   0.000000
    10  N    4.064221   4.546034   4.545756   1.361573   0.000000
    11  C    5.023019   5.004620   5.004549   2.462517   1.389157
    12  S    6.618222   6.622926   6.622828   3.966382   2.667332
    13  H    4.068482   2.867355   2.868068   3.397019   3.809445
    14  H    2.417382   3.734964   3.734451   1.083334   2.089251
    15  H    4.651369   5.391592   5.391203   2.062399   1.019792
    16  X    6.913450   6.638616   6.638652   4.393568   3.234466
    17  X    5.991879   5.659387   5.659461   3.577562   2.582863
    18  H    9.615702   9.642609   9.642487   6.924440   5.572078
    19  X    9.821234   9.653392   9.653362   7.177683   5.864739
    20  O   10.562275  10.593528  10.593401   7.867005   6.510929
    21  H   10.710795  10.905373  10.905170   8.009283   6.648867
                   11         12         13         14         15
    11  C    0.000000
    12  S    1.651971   0.000000
    13  H    3.454637   4.885889   0.000000
    14  H    3.396789   4.749842   4.338454   0.000000
    15  H    2.026007   2.720986   4.828927   2.353252   0.000000
    16  X    1.931064   1.000000   4.559544   5.304503   3.527188
    17  X    1.193761   1.414214   3.593232   4.562155   3.129224
    18  H    4.703771   3.051800   7.763997   7.568301   5.277623
    19  X    4.808894   3.211461   7.562882   7.928174   5.735033
    20  O    5.660971   4.009000   8.691167   8.485635   6.172904
    21  H    5.973269   4.348854   9.180981   8.520755   6.170887
                   16         17         18         19         20
    16  X    0.000000
    17  X    1.000000   0.000000
    18  H    3.211461   4.173378   0.000000
    19  X    3.051800   4.051800   1.000000   0.000000
    20  O    4.131837   5.107845   0.957200   1.384280   0.000000
    21  H    4.665382   5.591400   1.513901   2.268292   0.957200
                   21
    21  H    0.000000
 Symmetry turned off by external request.
 Stoichiometry    C6H5F4NOS
 Framework group  C1[X(C6H5F4NOS)]
 Deg. of freedom    48
 Full point group                 C1      NOp   1
 Rotational constants (GHZ):      1.8187254      0.2384765      0.2190261
 Standard basis: 6-31G(d) (6D, 7F)
 Integral buffers will be    131072 words long.
 Raffenetti 1 integral format.
 Two-electron integral symmetry is turned off.
   209 basis functions,   408 primitive gaussians,   209 cartesian basis functions
    54 alpha electrons       54 beta electrons
       nuclear repulsion energy       889.1587831852 Hartrees.
 NAtoms=   18 NActive=   18 NUniq=   18 SFac= 7.50D-01 NAtFMM=   80 NAOKFM=F Big=F
 One-electron integrals computed using PRISM.
 NBasis=   209 RedAO= T  NBF=   209
 NBsUse=   209 1.00D-06 NBFU=   209
 Harris functional with IExCor=  205 diagonalized for initial guess.
 ExpMin= 1.17D-01 ExpMax= 2.19D+04 ExpMxC= 3.30D+03 IAcc=1 IRadAn=         1 AccDes= 0.00D+00
 HarFok:  IExCor=  205 AccDes= 0.00D+00 IRadAn=         1 IDoV= 1
 ScaDFX=  1.000000  1.000000  1.000000  1.000000
 FoFCou: FMM=F IPFlag=           0 FMFlag=      100000 FMFlg1=           0
         NFxFlg=           0 DoJE=T BraDBF=F KetDBF=T FulRan=T
         Omega=  0.000000  0.000000  1.000000  0.000000  0.000000 ICntrl=     500 IOpCl=  0
         NMat0=    1 NMatS0=    1 NMatT0=    0 NMatD0=    1 NMtDS0=    0 NMtDT0=    0
         I1Cent=           4 NGrid=           0.
 Symmetry not used in FoFCou.
 Requested convergence on RMS density matrix=1.00D-08 within 128 cycles.
 Requested convergence on MAX density matrix=1.00D-06.
 Requested convergence on             energy=1.00D-06.
 No special actions if energy rises.
 Integral accuracy reduced to 1.0D-05 until final iterations.
 Initial convergence to 1.0D-05 achieved.  Increase integral accuracy.
 SCF Done:  E(RHF) =  -1154.67435474     A.U. after   15 cycles
             Convg  =    0.5484D-08             -V/T =  2.0018

 **********************************************************************

            Population analysis using the SCF density.

 **********************************************************************

 Alpha  occ. eigenvalues --  -91.91121 -26.37069 -26.36117 -26.36114 -26.33789
 Alpha  occ. eigenvalues --  -20.54295 -15.69324 -11.54443 -11.38534 -11.37620
 Alpha  occ. eigenvalues --  -11.36553 -11.31692 -11.30776  -8.92237  -6.60577
 Alpha  occ. eigenvalues --   -6.60296  -6.60177  -1.74304  -1.65310  -1.65038
 Alpha  occ. eigenvalues --   -1.64608  -1.36085  -1.32456  -1.17552  -1.12568
 Alpha  occ. eigenvalues --   -1.03411  -0.97599  -0.93006  -0.88783  -0.85173
 Alpha  occ. eigenvalues --   -0.83940  -0.83536  -0.77394  -0.76244  -0.74230
 Alpha  occ. eigenvalues --   -0.72476  -0.71842  -0.71643  -0.70681  -0.68975
 Alpha  occ. eigenvalues --   -0.67720  -0.67718  -0.66291  -0.64353  -0.63002
 Alpha  occ. eigenvalues --   -0.61155  -0.59777  -0.55483  -0.53344  -0.48084
 Alpha  occ. eigenvalues --   -0.46970  -0.43769  -0.34857  -0.31613
 Alpha virt. eigenvalues --    0.03952   0.08298   0.16759   0.20096   0.24162
 Alpha virt. eigenvalues --    0.25327   0.26132   0.27085   0.29699   0.33343
 Alpha virt. eigenvalues --    0.34304   0.36968   0.39665   0.40423   0.42512
 Alpha virt. eigenvalues --    0.43147   0.47695   0.49111   0.53796   0.55960
 Alpha virt. eigenvalues --    0.56569   0.59690   0.63400   0.65354   0.66479
 Alpha virt. eigenvalues --    0.68299   0.72155   0.72736   0.73357   0.75052
 Alpha virt. eigenvalues --    0.76808   0.77526   0.82709   0.83981   0.87051
 Alpha virt. eigenvalues --    0.88720   0.89662   0.91870   0.95933   0.99210
 Alpha virt. eigenvalues --    1.01869   1.02518   1.04063   1.05483   1.07736
 Alpha virt. eigenvalues --    1.08487   1.09714   1.13123   1.14538   1.15431
 Alpha virt. eigenvalues --    1.17500   1.17817   1.18523   1.20108   1.24070
 Alpha virt. eigenvalues --    1.27916   1.30798   1.31525   1.33112   1.34118
 Alpha virt. eigenvalues --    1.34662   1.38794   1.41221   1.41701   1.42224
 Alpha virt. eigenvalues --    1.46234   1.47068   1.51653   1.58950   1.60466
 Alpha virt. eigenvalues --    1.61551   1.62113   1.63450   1.64035   1.64109
 Alpha virt. eigenvalues --    1.65315   1.66190   1.67136   1.69260   1.70205
 Alpha virt. eigenvalues --    1.72947   1.75638   1.76321   1.80880   1.86181
 Alpha virt. eigenvalues --    1.89559   1.92241   1.93325   1.99935   2.03734
 Alpha virt. eigenvalues --    2.03963   2.05077   2.05782   2.08461   2.09201
 Alpha virt. eigenvalues --    2.09714   2.12199   2.12445   2.17665   2.20321
 Alpha virt. eigenvalues --    2.22294   2.22308   2.24278   2.28306   2.29298
 Alpha virt. eigenvalues --    2.30296   2.32325   2.33285   2.34665   2.35835
 Alpha virt. eigenvalues --    2.37446   2.38865   2.42952   2.44855   2.45126
 Alpha virt. eigenvalues --    2.46826   2.51760   2.60539   2.61463   2.64996
 Alpha virt. eigenvalues --    2.65063   2.68117   2.74911   2.82332   2.84115
 Alpha virt. eigenvalues --    2.84146   2.91085   2.92640   2.92858   2.96501
 Alpha virt. eigenvalues --    3.00015   3.07143   3.09140   3.17025   3.21678
 Alpha virt. eigenvalues --    3.29242   3.37235   3.38187   3.42546   3.44268
 Alpha virt. eigenvalues --    3.48950   3.70745   4.05903   4.35854   4.40151
 Alpha virt. eigenvalues --    4.44860   4.47973   4.59930   4.64184   4.68518
 Alpha virt. eigenvalues --    4.82122   5.01205   5.15266   5.57180   6.01618
          Condensed to atoms (all electrons):
              1          2          3          4          5          6
     1  F    9.157851   0.267742  -0.033503   0.002206  -0.000015   0.000000
     2  C    0.267742   4.564051   0.569868  -0.026697   0.000845  -0.000019
     3  C   -0.033503   0.569868   5.060877   0.357523  -0.011829   0.002194
     4  C    0.002206  -0.026697   0.357523   5.202923   0.414599  -0.045502
     5  C   -0.000015   0.000845  -0.011829   0.414599   3.548069   0.289508
     6  F    0.000000  -0.000019   0.002194  -0.045502   0.289508   9.187674
     7  F    0.000000   0.000293   0.004967  -0.055038   0.285138  -0.030788
     8  F    0.000000   0.000292   0.004961  -0.055045   0.285145  -0.030789
     9  C    0.000133  -0.022750  -0.055283   0.591340  -0.020856   0.005564
    10  N    0.001385  -0.050956  -0.021641  -0.035162   0.001210   0.000241
    11  C   -0.040893   0.389863  -0.079273  -0.001595   0.000077   0.000002
    12  S    0.003984  -0.082537   0.001800  -0.000108   0.000006   0.000000
    13  H   -0.000279  -0.017502   0.368297  -0.029719  -0.000278   0.000035
    14  H    0.000000  -0.000103   0.001798  -0.022255  -0.000137   0.005066
    15  H   -0.000019   0.003675  -0.000544   0.002311  -0.000015   0.000001
    16  H    0.000000   0.000000   0.000000   0.000000   0.000000   0.000000
    17  O    0.000000   0.000000   0.000000   0.000000   0.000000   0.000000
    18  H    0.000000   0.000000   0.000000   0.000000   0.000000   0.000000
              7          8          9         10         11         12
     1  F    0.000000   0.000000   0.000133   0.001385  -0.040893   0.003984
     2  C    0.000293   0.000292  -0.022750  -0.050956   0.389863  -0.082537
     3  C    0.004967   0.004961  -0.055283  -0.021641  -0.079273   0.001800
     4  C   -0.055038  -0.055045   0.591340  -0.035162  -0.001595  -0.000108
     5  C    0.285138   0.285145  -0.020856   0.001210   0.000077   0.000006
     6  F   -0.030788  -0.030789   0.005564   0.000241   0.000002   0.000000
     7  F    9.200386  -0.033965   0.000536  -0.000006  -0.000002   0.000000
     8  F   -0.033965   9.200405   0.000533  -0.000006  -0.000002   0.000000
     9  C    0.000536   0.000533   4.738531   0.264649  -0.039118   0.003556
    10  N   -0.000006  -0.000006   0.264649   7.225263   0.219420  -0.104071
    11  C   -0.000002  -0.000002  -0.039118   0.219420   4.939265   0.445243
    12  S    0.000000   0.000000   0.003556  -0.104071   0.445243  15.961792
    13  H    0.000909   0.000905   0.002426  -0.000263   0.002620  -0.000059
    14  H    0.000084   0.000084   0.379612  -0.032077   0.000977  -0.000131
    15  H    0.000000   0.000000  -0.021335   0.310577  -0.018105   0.013425
    16  H    0.000000   0.000000   0.000000   0.000000  -0.000022   0.003490
    17  O    0.000000   0.000000   0.000000   0.000000   0.000003   0.000538
    18  H    0.000000   0.000000   0.000000   0.000000   0.000000   0.000037
             13         14         15         16         17         18
     1  F   -0.000279   0.000000  -0.000019   0.000000   0.000000   0.000000
     2  C   -0.017502  -0.000103   0.003675   0.000000   0.000000   0.000000
     3  C    0.368297   0.001798  -0.000544   0.000000   0.000000   0.000000
     4  C   -0.029719  -0.022255   0.002311   0.000000   0.000000   0.000000
     5  C   -0.000278  -0.000137  -0.000015   0.000000   0.000000   0.000000
     6  F    0.000035   0.005066   0.000001   0.000000   0.000000   0.000000
     7  F    0.000909   0.000084   0.000000   0.000000   0.000000   0.000000
     8  F    0.000905   0.000084   0.000000   0.000000   0.000000   0.000000
     9  C    0.002426   0.379612  -0.021335   0.000000   0.000000   0.000000
    10  N   -0.000263  -0.032077   0.310577   0.000000   0.000000   0.000000
    11  C    0.002620   0.000977  -0.018105  -0.000022   0.000003   0.000000
    12  S   -0.000059  -0.000131   0.013425   0.003490   0.000538   0.000037
    13  H    0.389623  -0.000061   0.000008   0.000000   0.000000   0.000000
    14  H   -0.000061   0.379597  -0.002100   0.000000   0.000000   0.000000
    15  H    0.000008  -0.002100   0.270149   0.000000   0.000000   0.000000
    16  H    0.000000   0.000000   0.000000   0.297678   0.262807  -0.018371
    17  O    0.000000   0.000000   0.000000   0.262807   8.353082   0.265053
    18  H    0.000000   0.000000   0.000000  -0.018371   0.265053   0.325300
 Mulliken atomic charges:
              1
     1  F   -0.358592
     2  C    0.403935
     3  C   -0.170213
     4  C   -0.299781
     5  C    1.208531
     6  F   -0.383188
     7  F   -0.372515
     8  F   -0.372520
     9  C    0.172462
    10  N   -0.778562
    11  C    0.181541
    12  S   -0.246965
    13  H    0.283338
    14  H    0.289644
    15  H    0.441970
    16  H    0.454417
    17  O   -0.881483
    18  H    0.427981
 Sum of Mulliken atomic charges =   0.00000
 Mulliken charges with hydrogens summed into heavy atoms:
              1
     1  F   -0.358592
     2  C    0.403935
     3  C    0.113125
     4  C   -0.299781
     5  C    1.208531
     6  F   -0.383188
     7  F   -0.372515
     8  F   -0.372520
     9  C    0.462106
    10  N   -0.336592
    11  C    0.181541
    12  S   -0.246965
    17  O    0.000915
 Sum of Mulliken charges with hydrogens summed into heavy atoms =   0.00000
 Electronic spatial extent (au):  <R**2>=           4700.1088
 Charge=              0.0000 electrons
 Dipole moment (field-independent basis, Debye):
    X=              5.6199    Y=             -4.0829    Z=             -0.0005  Tot=              6.9465
 Quadrupole moment (field-independent basis, Debye-Ang):
   XX=           -129.9200   YY=            -66.3547   ZZ=            -82.5227
   XY=             12.4547   XZ=              0.0007   YZ=              0.0004
 Traceless Quadrupole moment (field-independent basis, Debye-Ang):
   XX=            -36.9876   YY=             26.5778   ZZ=             10.4098
   XY=             12.4547   XZ=              0.0007   YZ=              0.0004
 Octapole moment (field-independent basis, Debye-Ang**2):
  XXX=            498.1552  YYY=              0.8581  ZZZ=             -0.0033  XYY=             36.0399
  XXY=            -64.3992  XXZ=             -0.0097  XZZ=             71.4414  YZZ=             11.9432
  YYZ=             -0.0001  XYZ=             -0.0004
 Hexadecapole moment (field-independent basis, Debye-Ang**3):
 XXXX=          -7157.1815 YYYY=           -470.0322 ZZZZ=           -143.4353 XXXY=            350.2064
 XXXZ=              0.0799 YYYX=            -69.5145 YYYZ=             -0.0020 ZZZX=              0.0173
 ZZZY=             -0.0044 XXYY=           -618.5392 XXZZ=           -853.8070 YYZZ=           -120.4075
 XXYZ=             -0.0011 YYXZ=              0.0111 ZZXY=            -72.3286
 N-N= 8.891587831852D+02 E-N=-4.515976449501D+03  KE= 1.152544652143D+03
 Calling FoFJK, ICntrl=      2127 FMM=F ISym2X=0 I1Cent= 0 IOpClX= 0 NMat=1 NMatS=1 NMatT=0.
 -------------------------------------------------------------------
 Center     Atomic                   Forces (Hartrees/Bohr)
 Number     Number              X              Y              Z
 -------------------------------------------------------------------
      1        9           0.000000000    0.000000000    0.000000000
      2        6           0.000000000    0.000000000    0.000000000
      3        6           0.000000000    0.000000000    0.000000000
      4        6           0.000000000    0.000000000    0.000000000
      5        6           0.000000000    0.000000000    0.000000000
      6        9           0.000000000    0.000000000    0.000000000
      7        9           0.000000000    0.000000000    0.000000000
      8        9           0.000000000    0.000000000    0.000000000
      9        6           0.000000000    0.000000000    0.000000000
     10        7           0.000000000    0.000000000    0.000000000
     11        6           0.000000000    0.000000000    0.000000000
     12       16           0.000000000    0.000000000    0.000000000
     13        1           0.000000000    0.000000000    0.000000000
     14        1           0.000000000    0.000000000    0.000000000
     15        1           0.000000000    0.000000000    0.000000000
     16        1          -0.010286840    0.000793004    0.000000264
     17        8           0.009490188   -0.011254868   -0.000000633
     18        1           0.000699967    0.010771530    0.000000382
 -------------------------------------------------------------------
 Cartesian Forces:  Max     0.011254868 RMS     0.002853521
 -----------------------------------------------------------------------------------------------
                       Internal Coordinate Forces (Hartree/Bohr or radian)
  Cent   Atom   N1       Length/X         N2         Alpha/Y        N3         Beta/Z          J
 -----------------------------------------------------------------------------------------------
      1  F 
      2  C 
      3  C 
      4  C 
      5  C 
      6  F 
      7  F 
      8  F 
      9  C 
     10  N 
     11  C 
     12  S 
     13  H 
     14  H 
     15  H 
         X       12   0.000000(     1)     11  -0.000176(     7)      2   0.000000(    13)     0
         X       16   0.000000(     2)     12   0.000000(     8)     11   0.000000(    14)     0
     16  H       12   0.000060(     3)     16  -0.000176(     9)     17   0.000000(    15)     0
         X       18   0.000000(     4)     12   0.001663(    10)     16   0.000000(    16)     0
     17  O       18  -0.010062(     5)     19   0.001663(    11)     12   0.000000(    17)     0
     18  H       20  -0.010767(     6)     18   0.001376(    12)     16   0.000000(    18)     0
 -----------------------------------------------------------------------------------------------
 Internal  Forces:  Max     0.010767426 RMS     0.003532995

 GradGradGradGradGradGradGradGradGradGradGradGradGradGradGradGradGradGrad
 Berny optimization.
 Search for a local minimum.
 Step number   1 out of a maximum of   20
 All quantities printed in internal units (Hartrees-Bohrs-Radians)
 Second derivative matrix not updated -- first step.
 The second derivative matrix:
                          RX       RDUM       ROH      ADUM      AHOH
           RX           0.01302
           RDUM         0.00000   0.00000
           ROH          0.00000   0.00000   1.12160
           ADUM         0.00000   0.00000   0.00000   1.64000
           AHOH         0.00000   0.00000   0.00000   0.00000   0.16000
           DDUM         0.00018   0.00000  -0.00015  -0.00910   0.00048
           DH1         -0.00015   0.00000   0.00012   0.00747  -0.00040
           DOH2         0.00006   0.00000  -0.00005  -0.00287   0.00015
           DH2          0.00003   0.00000  -0.00003  -0.00163   0.00009
                         DDUM       DH1      DOH2       DH2
           DDUM        95.82031
           DH1        -78.69396  64.63387
           DOH2        30.13922 -24.74318   9.74955
           DH2         17.12635 -14.06009   5.39604   3.06625
     Eigenvalues ---    0.013021000.000001000.000001000.000001000.00000
     Eigenvalues --- 1000.000001000.000001000.000001000.00000
 RFO step:  Lambda=-2.72415794D-07 EMin= 1.30177114D-02
 Linear search not attempted -- first point.
 Variable       Old X    -DE/DX   Delta X   Delta X   Delta X     New X
                                 (Linear)    (Quad)   (Total)
    RX        5.76707   0.00006   0.00000   0.00457   0.00457   5.77164
   RDUM       1.88973   0.00000   0.00000   0.00000   0.00000   1.88973
   ROH        1.80885  -0.02083   0.00000   0.00000   0.00000   1.80885
   ADUM       1.57080   0.00297   0.00000   0.00000   0.00000   1.57080
   AHOH       1.82422   0.00138   0.00000   0.00000   0.00000   1.82422
   DDUM       0.00000   0.00000   0.00000   0.00000   0.00000   0.00000
   DH1        3.14159   0.00000   0.00000   0.00000   0.00000   3.14159
   DOH2       3.14159   0.00000   0.00000   0.00000   0.00000   3.14159
   DH2        3.14159   0.00000   0.00000   0.00000   0.00000   3.14159
         Item               Value     Threshold  Converged?
 Maximum Force            0.000060     0.000450     YES
 RMS     Force            0.000060     0.000300     YES
 Maximum Displacement     0.004574     0.001800     NO 
 RMS     Displacement     0.001525     0.001200     NO 
 Predicted change in Energy=-1.362079D-07
 GradGradGradGradGradGradGradGradGradGradGradGradGradGradGradGradGradGrad

 ---------------------------------------------------------------------------------------------------
                            Z-MATRIX (ANGSTROMS AND DEGREES)
   CD    Cent   Atom    N1       Length/X        N2       Alpha/Y        N3        Beta/Z          J
 ---------------------------------------------------------------------------------------------------
      1      1  F       -1  -1.969300          2.053680          0.000070
      2      2  C       -1  -1.222250          0.944230          0.000030
      3      3  C       -1   0.140030          1.057400         -0.000020
      4      4  C       -1   0.927950         -0.123640         -0.000080
      5      5  C       -1   2.414660         -0.018650         -0.000010
      6      6  F       -1   3.007080         -1.234610         -0.000560
      7      7  F       -1   2.858290          0.654480         -1.086020
      8      8  F       -1   2.858270          0.653500          1.086650
      9      9  C       -1   0.306540         -1.341490         -0.000090
     10     10  N       -1  -1.054170         -1.389970         -0.000060
     11     11  C       -1  -1.930500         -0.312100          0.000000
     12     12  S       -1  -3.570980         -0.506610          0.000030
     13     13  H       -1   0.596860          2.043100         -0.000020
     14     14  H       -1   0.831760         -2.288990         -0.000150
     15     15  H       -1  -1.521480         -2.296390         -0.000090
     16         X       12   1.000000(    15)     11   90.000(    34)      2    0.000(    52)      0
     17         X       16   1.000000(    16)     12   90.000(    35)     11    0.000(    53)      0
     18     16  H       12   3.054221(    17)     16   90.000(    36)     17  180.000(    54)      0
     19         X       18   1.000000(    18)     12   90.000(    37)     16    0.000(    55)      0
     20     17  O       18   0.957200(    19)     19   90.000(    38)     12  180.000(    56)      0
     21     18  H       20   0.957200(    20)     18  104.520(    39)     16  180.000(    57)      0
 ---------------------------------------------------------------------------------------------------
                         Z-Matrix orientation:                         
 ---------------------------------------------------------------------
 Center     Atomic      Atomic             Coordinates (Angstroms)
 Number     Number       Type             X           Y           Z
 ---------------------------------------------------------------------
      1          9           0       -1.969300    2.053680    0.000070
      2          6           0       -1.222250    0.944230    0.000030
      3          6           0        0.140030    1.057400   -0.000020
      4          6           0        0.927950   -0.123640   -0.000080
      5          6           0        2.414660   -0.018650   -0.000010
      6          9           0        3.007080   -1.234610   -0.000560
      7          9           0        2.858290    0.654480   -1.086020
      8          9           0        2.858270    0.653500    1.086650
      9          6           0        0.306540   -1.341490   -0.000090
     10          7           0       -1.054170   -1.389970   -0.000060
     11          6           0       -1.930500   -0.312100    0.000000
     12         16           0       -3.570980   -0.506610    0.000030
     13          1           0        0.596860    2.043100   -0.000020
     14          1           0        0.831760   -2.288990   -0.000150
     15          1           0       -1.521480   -2.296390   -0.000090
     16         -1           0       -3.688724    0.486434    0.000069
     17         -1           0       -2.695680    0.604178    0.000051
     18          1           0       -6.603955   -0.866227    0.000085
     19         -1           0       -6.721700    0.126817    0.000125
     20          8           0       -7.554497   -0.978931    0.000103
     21          1           0       -7.683710   -1.927370    0.000071
 ---------------------------------------------------------------------
                    Distance matrix (angstroms):
                    1          2          3          4          5
     1  F    0.000000
     2  C    1.337521   0.000000
     3  C    2.332777   1.366973   0.000000
     4  C    3.624194   2.400772   1.419744   0.000000
     5  C    4.849088   3.762214   2.516312   1.490413   0.000000
     6  F    5.964663   4.757581   3.670597   2.357337   1.352598
     7  F    5.142274   4.232525   2.954772   2.347541   1.352527
     8  F    5.142625   4.232719   2.955134   2.347566   1.352555
     9  C    4.087374   2.749857   2.404662   1.367227   2.488790
    10  N    3.563171   2.340244   2.723184   2.352104   3.730054
    11  C    2.366098   1.442215   2.482463   2.864656   4.355058
    12  S    3.020011   2.760701   4.027123   4.515201   6.005497
    13  H    2.566182   2.125247   1.086415   2.191890   2.748674
    14  H    5.167661   3.830492   3.417136   2.167485   2.767673
    15  H    4.373060   3.254406   3.742796   3.274225   4.547669
    16  X    2.326517   2.508600   3.871093   4.656809   6.124248
    17  X    1.621322   1.512161   2.871700   3.696000   5.148154
    18  H    5.477763   5.678072   7.012965   7.568424   9.058356
    19  X    5.128168   5.559866   6.924545   7.653749   9.137518
    20  O    6.355404   6.617847   7.959422   8.525458  10.015300
    21  H    6.964427   7.070824   8.373754   8.798530  10.277173
                    6          7          8          9         10
     6  F    0.000000
     7  F    2.183809   0.000000
     8  F    2.183834   2.172670   0.000000
     9  C    2.702654   3.416807   3.416477   0.000000
    10  N    4.064221   4.546034   4.545756   1.361573   0.000000
    11  C    5.023019   5.004620   5.004549   2.462517   1.389157
    12  S    6.618222   6.622926   6.622828   3.966382   2.667332
    13  H    4.068482   2.867355   2.868068   3.397019   3.809445
    14  H    2.417382   3.734964   3.734451   1.083334   2.089251
    15  H    4.651369   5.391592   5.391203   2.062399   1.019792
    16  X    6.913450   6.638616   6.638652   4.393568   3.234466
    17  X    5.991879   5.659387   5.659461   3.577562   2.582863
    18  H    9.618093   9.645012   9.644890   6.926819   5.574444
    19  X    9.823576   9.655793   9.655763   7.179978   5.866987
    20  O   10.564671  10.595935  10.595807   7.869393   6.513310
    21  H   10.713212  10.907764  10.907561   8.011701   6.651286
                   11         12         13         14         15
    11  C    0.000000
    12  S    1.651971   0.000000
    13  H    3.454637   4.885889   0.000000
    14  H    3.396789   4.749842   4.338454   0.000000
    15  H    2.026007   2.720986   4.828927   2.353252   0.000000
    16  X    1.931064   1.000000   4.559544   5.304503   3.527188
    17  X    1.193761   1.414214   3.593232   4.562155   3.129224
    18  H    4.706192   3.054221   7.766333   7.570609   5.279860
    19  X    4.811262   3.213762   7.565280   7.930377   5.737091
    20  O    5.663392   4.011421   8.693520   8.487966   6.175192
    21  H    5.975661   4.351219   9.183271   8.523145   6.173269
                   16         17         18         19         20
    16  X    0.000000
    17  X    1.000000   0.000000
    18  H    3.213762   4.175728   0.000000
    19  X    3.054221   4.054221   1.000000   0.000000
    20  O    4.134186   5.110219   0.957200   1.384280   0.000000
    21  H    4.667586   5.593673   1.513901   2.268292   0.957200
                   21
    21  H    0.000000
 Symmetry turned off by external request.
 Stoichiometry    C6H5F4NOS
 Framework group  C1[X(C6H5F4NOS)]
 Deg. of freedom    48
 Full point group                 C1      NOp   1
 Rotational constants (GHZ):      1.8187112      0.2384083      0.2189683
 Standard basis: 6-31G(d) (6D, 7F)
 Integral buffers will be    131072 words long.
 Raffenetti 1 integral format.
 Two-electron integral symmetry is turned off.
   209 basis functions,   408 primitive gaussians,   209 cartesian basis functions
    54 alpha electrons       54 beta electrons
       nuclear repulsion energy       889.1281402989 Hartrees.
 NAtoms=   18 NActive=   18 NUniq=   18 SFac= 7.50D-01 NAtFMM=   80 NAOKFM=F Big=F
 One-electron integrals computed using PRISM.
 NBasis=   209 RedAO= T  NBF=   209
 NBsUse=   209 1.00D-06 NBFU=   209
 Initial guess read from the read-write file.
 B after Tr=     0.000000    0.000000    0.000000
         Rot=    1.000000    0.000000    0.000000    0.000000 Ang=   0.00 deg.
 Requested convergence on RMS density matrix=1.00D-08 within 128 cycles.
 Requested convergence on MAX density matrix=1.00D-06.
 Requested convergence on             energy=1.00D-06.
 No special actions if energy rises.
 SCF Done:  E(RHF) =  -1154.67435500     A.U. after    5 cycles
             Convg  =    0.5595D-08             -V/T =  2.0018
 Calling FoFJK, ICntrl=      2127 FMM=F ISym2X=0 I1Cent= 0 IOpClX= 0 NMat=1 NMatS=1 NMatT=0.
 -------------------------------------------------------------------
 Center     Atomic                   Forces (Hartrees/Bohr)
 Number     Number              X              Y              Z
 -------------------------------------------------------------------
      1        9           0.000000000    0.000000000    0.000000000
      2        6           0.000000000    0.000000000    0.000000000
      3        6           0.000000000    0.000000000    0.000000000
      4        6           0.000000000    0.000000000    0.000000000
      5        6           0.000000000    0.000000000    0.000000000
      6        9           0.000000000    0.000000000    0.000000000
      7        9           0.000000000    0.000000000    0.000000000
      8        9           0.000000000    0.000000000    0.000000000
      9        6           0.000000000    0.000000000    0.000000000
     10        7           0.000000000    0.000000000    0.000000000
     11        6           0.000000000    0.000000000    0.000000000
     12       16           0.000000000    0.000000000    0.000000000
     13        1           0.000000000    0.000000000    0.000000000
     14        1           0.000000000    0.000000000    0.000000000
     15        1           0.000000000    0.000000000    0.000000000
     16        1          -0.010281643    0.000792026    0.000000264
     17        8           0.009490583   -0.011253618   -0.000000633
     18        1           0.000699559    0.010771302    0.000000382
 -------------------------------------------------------------------
 Cartesian Forces:  Max     0.011253618 RMS     0.002853084
 -----------------------------------------------------------------------------------------------
                       Internal Coordinate Forces (Hartree/Bohr or radian)
  Cent   Atom   N1       Length/X         N2         Alpha/Y        N3         Beta/Z          J
 -----------------------------------------------------------------------------------------------
      1  F 
      2  C 
      3  C 
      4  C 
      5  C 
      6  F 
      7  F 
      8  F 
      9  C 
     10  N 
     11  C 
     12  S 
     13  H 
     14  H 
     15  H 
         X       12   0.000000(     1)     11  -0.000177(     7)      2   0.000000(    13)     0
         X       16   0.000000(     2)     12   0.000000(     8)     11   0.000000(    14)     0
     16  H       12   0.000054(     3)     16  -0.000177(     9)     17   0.000000(    15)     0
         X       18   0.000000(     4)     12   0.001660(    10)     16   0.000000(    16)     0
     17  O       18  -0.010062(     5)     19   0.001660(    11)     12   0.000000(    17)     0
     18  H       20  -0.010767(     6)     18   0.001376(    12)     16   0.000000(    18)     0
 -----------------------------------------------------------------------------------------------
 Internal  Forces:  Max     0.010767145 RMS     0.003532847

 GradGradGradGradGradGradGradGradGradGradGradGradGradGradGradGradGradGrad
 Berny optimization.
 Search for a local minimum.
 Step number   2 out of a maximum of   20
 All quantities printed in internal units (Hartrees-Bohrs-Radians)
 Update second derivatives using D2CorN and points    2
 DE= -2.61D-07 DEPred=-1.36D-07 R= 1.91D+00
 Trust test= 1.91D+00 RLast= 4.57D-03 DXMaxT set to 3.00D-01
 The second derivative matrix:
                          RX       RDUM       ROH      ADUM      AHOH
           RX           0.01302
           RDUM         0.00000   0.00000
           ROH          0.00000   0.00000   1.12160
           ADUM         0.00000   0.00000   0.00000   1.64000
           AHOH         0.00000   0.00000   0.00000   0.00000   0.16000
           DDUM         0.00018   0.00000  -0.00015  -0.00910   0.00048
           DH1         -0.00015   0.00000   0.00012   0.00747  -0.00040
           DOH2         0.00006   0.00000  -0.00005  -0.00287   0.00015
           DH2          0.00003   0.00000  -0.00003  -0.00163   0.00009
                         DDUM       DH1      DOH2       DH2
           DDUM        95.82031
           DH1        -78.69396  64.63387
           DOH2        30.13922 -24.74318   9.74955
           DH2         17.12635 -14.06009   5.39604   3.06625
     Eigenvalues ---    0.013021000.000001000.000001000.000001000.00000
     Eigenvalues --- 1000.000001000.000001000.000001000.00000
 RFO step:  Lambda= 0.00000000D+00 EMin= 1.30177114D-02
 Quartic linear search produced a step of  2.00000.
 Variable       Old X    -DE/DX   Delta X   Delta X   Delta X     New X
                                 (Linear)    (Quad)   (Total)
    RX        5.77164   0.00005   0.00915   0.00000   0.00915   5.78079
   RDUM       1.88973   0.00000   0.00000   0.00000   0.00000   1.88973
   ROH        1.80885  -0.02083   0.00000   0.00000   0.00000   1.80885
   ADUM       1.57080   0.00297   0.00000   0.00000   0.00000   1.57080
   AHOH       1.82422   0.00138   0.00000   0.00000   0.00000   1.82422
   DDUM       0.00000   0.00000   0.00000   0.00000   0.00000   0.00000
   DH1        3.14159   0.00000   0.00000   0.00000   0.00000   3.14159
   DOH2       3.14159   0.00000   0.00000   0.00000   0.00000   3.14159
   DH2        3.14159   0.00000   0.00000   0.00000   0.00000   3.14159
         Item               Value     Threshold  Converged?
 Maximum Force            0.000054     0.000450     YES
 RMS     Force            0.000054     0.000300     YES
 Maximum Displacement     0.009149     0.001800     NO 
 RMS     Displacement     0.003050     0.001200     NO 
 Predicted change in Energy=-4.713082D-08
 GradGradGradGradGradGradGradGradGradGradGradGradGradGradGradGradGradGrad

 ---------------------------------------------------------------------------------------------------
                            Z-MATRIX (ANGSTROMS AND DEGREES)
   CD    Cent   Atom    N1       Length/X        N2       Alpha/Y        N3        Beta/Z          J
 ---------------------------------------------------------------------------------------------------
      1      1  F       -1  -1.969300          2.053680          0.000070
      2      2  C       -1  -1.222250          0.944230          0.000030
      3      3  C       -1   0.140030          1.057400         -0.000020
      4      4  C       -1   0.927950         -0.123640         -0.000080
      5      5  C       -1   2.414660         -0.018650         -0.000010
      6      6  F       -1   3.007080         -1.234610         -0.000560
      7      7  F       -1   2.858290          0.654480         -1.086020
      8      8  F       -1   2.858270          0.653500          1.086650
      9      9  C       -1   0.306540         -1.341490         -0.000090
     10     10  N       -1  -1.054170         -1.389970         -0.000060
     11     11  C       -1  -1.930500         -0.312100          0.000000
     12     12  S       -1  -3.570980         -0.506610          0.000030
     13     13  H       -1   0.596860          2.043100         -0.000020
     14     14  H       -1   0.831760         -2.288990         -0.000150
     15     15  H       -1  -1.521480         -2.296390         -0.000090
     16         X       12   1.000000(    15)     11   90.000(    34)      2    0.000(    52)      0
     17         X       16   1.000000(    16)     12   90.000(    35)     11    0.000(    53)      0
     18     16  H       12   3.059062(    17)     16   90.000(    36)     17  180.000(    54)      0
     19         X       18   1.000000(    18)     12   90.000(    37)     16    0.000(    55)      0
     20     17  O       18   0.957200(    19)     19   90.000(    38)     12  180.000(    56)      0
     21     18  H       20   0.957200(    20)     18  104.520(    39)     16  180.000(    57)      0
 ---------------------------------------------------------------------------------------------------
                         Z-Matrix orientation:                         
 ---------------------------------------------------------------------
 Center     Atomic      Atomic             Coordinates (Angstroms)
 Number     Number       Type             X           Y           Z
 ---------------------------------------------------------------------
      1          9           0       -1.969300    2.053680    0.000070
      2          6           0       -1.222250    0.944230    0.000030
      3          6           0        0.140030    1.057400   -0.000020
      4          6           0        0.927950   -0.123640   -0.000080
      5          6           0        2.414660   -0.018650   -0.000010
      6          9           0        3.007080   -1.234610   -0.000560
      7          9           0        2.858290    0.654480   -1.086020
      8          9           0        2.858270    0.653500    1.086650
      9          6           0        0.306540   -1.341490   -0.000090
     10          7           0       -1.054170   -1.389970   -0.000060
     11          6           0       -1.930500   -0.312100    0.000000
     12         16           0       -3.570980   -0.506610    0.000030
     13          1           0        0.596860    2.043100   -0.000020
     14          1           0        0.831760   -2.288990   -0.000150
     15          1           0       -1.521480   -2.296390   -0.000090
     16         -1           0       -3.688724    0.486434    0.000069
     17         -1           0       -2.695680    0.604178    0.000051
     18          1           0       -6.608763   -0.866797    0.000086
     19         -1           0       -6.726507    0.126247    0.000125
     20          8           0       -7.559305   -0.979502    0.000103
     21          1           0       -7.688518   -1.927940    0.000071
 ---------------------------------------------------------------------
                    Distance matrix (angstroms):
                    1          2          3          4          5
     1  F    0.000000
     2  C    1.337521   0.000000
     3  C    2.332777   1.366973   0.000000
     4  C    3.624194   2.400772   1.419744   0.000000
     5  C    4.849088   3.762214   2.516312   1.490413   0.000000
     6  F    5.964663   4.757581   3.670597   2.357337   1.352598
     7  F    5.142274   4.232525   2.954772   2.347541   1.352527
     8  F    5.142625   4.232719   2.955134   2.347566   1.352555
     9  C    4.087374   2.749857   2.404662   1.367227   2.488790
    10  N    3.563171   2.340244   2.723184   2.352104   3.730054
    11  C    2.366098   1.442215   2.482463   2.864656   4.355058
    12  S    3.020011   2.760701   4.027123   4.515201   6.005497
    13  H    2.566182   2.125247   1.086415   2.191890   2.748674
    14  H    5.167661   3.830492   3.417136   2.167485   2.767673
    15  H    4.373060   3.254406   3.742796   3.274225   4.547669
    16  X    2.326517   2.508600   3.871093   4.656809   6.124248
    17  X    1.621322   1.512161   2.871700   3.696000   5.148154
    18  H    5.482135   5.682811   7.017745   7.573264   9.063196
    19  X    5.132837   5.564705   6.929385   7.658535   9.142316
    20  O    6.359901   6.622613   7.964215   8.530299  10.020140
    21  H    6.968698   7.075449   8.378449   8.803352  10.282003
                    6          7          8          9         10
     6  F    0.000000
     7  F    2.183809   0.000000
     8  F    2.183834   2.172670   0.000000
     9  C    2.702654   3.416807   3.416477   0.000000
    10  N    4.064221   4.546034   4.545756   1.361573   0.000000
    11  C    5.023019   5.004620   5.004549   2.462517   1.389157
    12  S    6.618222   6.622926   6.622828   3.966382   2.667332
    13  H    4.068482   2.867355   2.868068   3.397019   3.809445
    14  H    2.417382   3.734964   3.734451   1.083334   2.089251
    15  H    4.651369   5.391592   5.391203   2.062399   1.019792
    16  X    6.913450   6.638616   6.638652   4.393568   3.234466
    17  X    5.991879   5.659387   5.659461   3.577562   2.582863
    18  H    9.622875   9.649819   9.649696   6.931576   5.579177
    19  X    9.828258   9.660594   9.660564   7.184567   5.871484
    20  O   10.569464  10.600747  10.600620   7.874170   6.518072
    21  H   10.718046  10.912545  10.912342   8.016537   6.656124
                   11         12         13         14         15
    11  C    0.000000
    12  S    1.651971   0.000000
    13  H    3.454637   4.885889   0.000000
    14  H    3.396789   4.749842   4.338454   0.000000
    15  H    2.026007   2.720986   4.828927   2.353252   0.000000
    16  X    1.931064   1.000000   4.559544   5.304503   3.527188
    17  X    1.193761   1.414214   3.593232   4.562155   3.129224
    18  H    4.711033   3.059062   7.771004   7.575224   5.284334
    19  X    4.815998   3.218363   7.570075   7.934783   5.741209
    20  O    5.668233   4.016262   8.698227   8.492628   6.179767
    21  H    5.980444   4.355950   9.187853   8.527924   6.178034
                   16         17         18         19         20
    16  X    0.000000
    17  X    1.000000   0.000000
    18  H    3.218363   4.180429   0.000000
    19  X    3.059062   4.059062   1.000000   0.000000
    20  O    4.138884   5.114967   0.957200   1.384280   0.000000
    21  H    4.671996   5.598218   1.513901   2.268292   0.957200
                   21
    21  H    0.000000
 Symmetry turned off by external request.
 Stoichiometry    C6H5F4NOS
 Framework group  C1[X(C6H5F4NOS)]
 Deg. of freedom    48
 Full point group                 C1      NOp   1
 Rotational constants (GHZ):      1.8186828      0.2382720      0.2188529
 Standard basis: 6-31G(d) (6D, 7F)
 Integral buffers will be    131072 words long.
 Raffenetti 1 integral format.
 Two-electron integral symmetry is turned off.
   209 basis functions,   408 primitive gaussians,   209 cartesian basis functions
    54 alpha electrons       54 beta electrons
       nuclear repulsion energy       889.0669384042 Hartrees.
 NAtoms=   18 NActive=   18 NUniq=   18 SFac= 7.50D-01 NAtFMM=   80 NAOKFM=F Big=F
 One-electron integrals computed using PRISM.
 NBasis=   209 RedAO= T  NBF=   209
 NBsUse=   209 1.00D-06 NBFU=   209
 Initial guess read from the read-write file.
 B after Tr=     0.000000    0.000000    0.000000
         Rot=    1.000000    0.000000    0.000000    0.000000 Ang=   0.00 deg.
 Requested convergence on RMS density matrix=1.00D-08 within 128 cycles.
 Requested convergence on MAX density matrix=1.00D-06.
 Requested convergence on             energy=1.00D-06.
 No special actions if energy rises.
 SCF Done:  E(RHF) =  -1154.67435545     A.U. after    6 cycles
             Convg  =    0.7160D-08             -V/T =  2.0018
 Calling FoFJK, ICntrl=      2127 FMM=F ISym2X=0 I1Cent= 0 IOpClX= 0 NMat=1 NMatS=1 NMatT=0.
 -------------------------------------------------------------------
 Center     Atomic                   Forces (Hartrees/Bohr)
 Number     Number              X              Y              Z
 -------------------------------------------------------------------
      1        9           0.000000000    0.000000000    0.000000000
      2        6           0.000000000    0.000000000    0.000000000
      3        6           0.000000000    0.000000000    0.000000000
      4        6           0.000000000    0.000000000    0.000000000
      5        6           0.000000000    0.000000000    0.000000000
      6        9           0.000000000    0.000000000    0.000000000
      7        9           0.000000000    0.000000000    0.000000000
      8        9           0.000000000    0.000000000    0.000000000
      9        6           0.000000000    0.000000000    0.000000000
     10        7           0.000000000    0.000000000    0.000000000
     11        6           0.000000000    0.000000000    0.000000000
     12       16           0.000000000    0.000000000    0.000000000
     13        1           0.000000000    0.000000000    0.000000000
     14        1           0.000000000    0.000000000    0.000000000
     15        1           0.000000000    0.000000000    0.000000000
     16        1          -0.010271232    0.000790034    0.000000263
     17        8           0.009491203   -0.011251118   -0.000000633
     18        1           0.000698731    0.010770866    0.000000382
 -------------------------------------------------------------------
 Cartesian Forces:  Max     0.011251118 RMS     0.002852201
 -----------------------------------------------------------------------------------------------
                       Internal Coordinate Forces (Hartree/Bohr or radian)
  Cent   Atom   N1       Length/X         N2         Alpha/Y        N3         Beta/Z          J
 -----------------------------------------------------------------------------------------------
      1  F 
      2  C 
      3  C 
      4  C 
      5  C 
      6  F 
      7  F 
      8  F 
      9  C 
     10  N 
     11  C 
     12  S 
     13  H 
     14  H 
     15  H 
         X       12   0.000000(     1)     11  -0.000178(     7)      2   0.000000(    13)     0
         X       16   0.000000(     2)     12   0.000000(     8)     11   0.000000(    14)     0
     16  H       12   0.000044(     3)     16  -0.000178(     9)     17   0.000000(    15)     0
         X       18   0.000000(     4)     12   0.001655(    10)     16   0.000000(    16)     0
     17  O       18  -0.010063(     5)     19   0.001655(    11)     12   0.000000(    17)     0
     18  H       20  -0.010767(     6)     18   0.001378(    12)     16   0.000000(    18)     0
 -----------------------------------------------------------------------------------------------
 Internal  Forces:  Max     0.010766601 RMS     0.003532524

 GradGradGradGradGradGradGradGradGradGradGradGradGradGradGradGradGradGrad
 Berny optimization.
 Search for a local minimum.
 Step number   3 out of a maximum of   20
 All quantities printed in internal units (Hartrees-Bohrs-Radians)
 Update second derivatives using D2CorN and points    2    3
 DE= -4.51D-07 DEPred=-4.71D-08 R= 9.57D+00
 Trust test= 9.57D+00 RLast= 9.15D-03 DXMaxT set to 3.00D-01
 The second derivative matrix:
                          RX       RDUM       ROH      ADUM      AHOH
           RX           0.00111
           RDUM         0.00000   0.00000
           ROH         -0.00003   0.00000   1.12160
           ADUM         0.00073   0.00000   0.00000   1.64000
           AHOH        -0.00008   0.00000   0.00000   0.00000   0.16000
           DDUM         0.00009   0.00000  -0.00015  -0.00910   0.00048
           DH1         -0.00007   0.00000   0.00012   0.00747  -0.00040
           DOH2         0.00003   0.00000  -0.00005  -0.00287   0.00015
           DH2          0.00002   0.00000  -0.00003  -0.00163   0.00009
                         DDUM       DH1      DOH2       DH2
           DDUM        95.82031
           DH1        -78.69396  64.63387
           DOH2        30.13922 -24.74318   9.74955
           DH2         17.12635 -14.06009   5.39604   3.06625
     Eigenvalues ---    0.001111000.000001000.000001000.000001000.00000
     Eigenvalues --- 1000.000001000.000001000.000001000.00000
 RFO step:  Lambda= 0.00000000D+00 EMin= 1.10837593D-03
 Quartic linear search produced a step of  2.00000.
 Variable       Old X    -DE/DX   Delta X   Delta X   Delta X     New X
                                 (Linear)    (Quad)   (Total)
    RX        5.78079   0.00004   0.01830   0.00000   0.01830   5.79909
   RDUM       1.88973   0.00000   0.00000   0.00000   0.00000   1.88973
   ROH        1.80885  -0.02083   0.00000   0.00000   0.00000   1.80885
   ADUM       1.57080   0.00295   0.00000   0.00000   0.00000   1.57080
   AHOH       1.82422   0.00138   0.00000   0.00000   0.00000   1.82422
   DDUM       0.00000   0.00000   0.00000   0.00000   0.00000   0.00000
   DH1        3.14159   0.00000   0.00000   0.00000   0.00000   3.14159
   DOH2       3.14159   0.00000   0.00000   0.00000   0.00000   3.14159
   DH2        3.14159   0.00000   0.00000   0.00000   0.00000   3.14159
         Item               Value     Threshold  Converged?
 Maximum Force            0.000044     0.000450     YES
 RMS     Force            0.000044     0.000300     YES
 Maximum Displacement     0.018298     0.001800     NO 
 RMS     Displacement     0.006099     0.001200     NO 
 Predicted change in Energy=-6.242597D-07
 GradGradGradGradGradGradGradGradGradGradGradGradGradGradGradGradGradGrad

 ---------------------------------------------------------------------------------------------------
                            Z-MATRIX (ANGSTROMS AND DEGREES)
   CD    Cent   Atom    N1       Length/X        N2       Alpha/Y        N3        Beta/Z          J
 ---------------------------------------------------------------------------------------------------
      1      1  F       -1  -1.969300          2.053680          0.000070
      2      2  C       -1  -1.222250          0.944230          0.000030
      3      3  C       -1   0.140030          1.057400         -0.000020
      4      4  C       -1   0.927950         -0.123640         -0.000080
      5      5  C       -1   2.414660         -0.018650         -0.000010
      6      6  F       -1   3.007080         -1.234610         -0.000560
      7      7  F       -1   2.858290          0.654480         -1.086020
      8      8  F       -1   2.858270          0.653500          1.086650
      9      9  C       -1   0.306540         -1.341490         -0.000090
     10     10  N       -1  -1.054170         -1.389970         -0.000060
     11     11  C       -1  -1.930500         -0.312100          0.000000
     12     12  S       -1  -3.570980         -0.506610          0.000030
     13     13  H       -1   0.596860          2.043100         -0.000020
     14     14  H       -1   0.831760         -2.288990         -0.000150
     15     15  H       -1  -1.521480         -2.296390         -0.000090
     16         X       12   1.000000(    15)     11   90.000(    34)      2    0.000(    52)      0
     17         X       16   1.000000(    16)     12   90.000(    35)     11    0.000(    53)      0
     18     16  H       12   3.068745(    17)     16   90.000(    36)     17  180.000(    54)      0
     19         X       18   1.000000(    18)     12   90.000(    37)     16    0.000(    55)      0
     20     17  O       18   0.957200(    19)     19   90.000(    38)     12  180.000(    56)      0
     21     18  H       20   0.957200(    20)     18  104.520(    39)     16  180.000(    57)      0
 ---------------------------------------------------------------------------------------------------
                         Z-Matrix orientation:                         
 ---------------------------------------------------------------------
 Center     Atomic      Atomic             Coordinates (Angstroms)
 Number     Number       Type             X           Y           Z
 ---------------------------------------------------------------------
      1          9           0       -1.969300    2.053680    0.000070
      2          6           0       -1.222250    0.944230    0.000030
      3          6           0        0.140030    1.057400   -0.000020
      4          6           0        0.927950   -0.123640   -0.000080
      5          6           0        2.414660   -0.018650   -0.000010
      6          9           0        3.007080   -1.234610   -0.000560
      7          9           0        2.858290    0.654480   -1.086020
      8          9           0        2.858270    0.653500    1.086650
      9          6           0        0.306540   -1.341490   -0.000090
     10          7           0       -1.054170   -1.389970   -0.000060
     11          6           0       -1.930500   -0.312100    0.000000
     12         16           0       -3.570980   -0.506610    0.000030
     13          1           0        0.596860    2.043100   -0.000020
     14          1           0        0.831760   -2.288990   -0.000150
     15          1           0       -1.521480   -2.296390   -0.000090
     16         -1           0       -3.688724    0.486434    0.000069
     17         -1           0       -2.695680    0.604178    0.000051
     18          1           0       -6.618379   -0.867937    0.000086
     19         -1           0       -6.736123    0.125107    0.000125
     20          8           0       -7.568920   -0.980642    0.000103
     21          1           0       -7.698133   -1.929080    0.000071
 ---------------------------------------------------------------------
                    Distance matrix (angstroms):
                    1          2          3          4          5
     1  F    0.000000
     2  C    1.337521   0.000000
     3  C    2.332777   1.366973   0.000000
     4  C    3.624194   2.400772   1.419744   0.000000
     5  C    4.849088   3.762214   2.516312   1.490413   0.000000
     6  F    5.964663   4.757581   3.670597   2.357337   1.352598
     7  F    5.142274   4.232525   2.954772   2.347541   1.352527
     8  F    5.142625   4.232719   2.955134   2.347566   1.352555
     9  C    4.087374   2.749857   2.404662   1.367227   2.488790
    10  N    3.563171   2.340244   2.723184   2.352104   3.730054
    11  C    2.366098   1.442215   2.482463   2.864656   4.355058
    12  S    3.020011   2.760701   4.027123   4.515201   6.005497
    13  H    2.566182   2.125247   1.086415   2.191890   2.748674
    14  H    5.167661   3.830492   3.417136   2.167485   2.767673
    15  H    4.373060   3.254406   3.742796   3.274225   4.547669
    16  X    2.326517   2.508600   3.871093   4.656809   6.124248
    17  X    1.621322   1.512161   2.871700   3.696000   5.148154
    18  H    5.490881   5.692289   7.027305   7.582945   9.072876
    19  X    5.142178   5.574384   6.939067   7.668108   9.151912
    20  O    6.368897   6.632146   7.973803   8.539980  10.029821
    21  H    6.977242   7.084700   8.387840   8.812998  10.291663
                    6          7          8          9         10
     6  F    0.000000
     7  F    2.183809   0.000000
     8  F    2.183834   2.172670   0.000000
     9  C    2.702654   3.416807   3.416477   0.000000
    10  N    4.064221   4.546034   4.545756   1.361573   0.000000
    11  C    5.023019   5.004620   5.004549   2.462517   1.389157
    12  S    6.618222   6.622926   6.622828   3.966382   2.667332
    13  H    4.068482   2.867355   2.868068   3.397019   3.809445
    14  H    2.417382   3.734964   3.734451   1.083334   2.089251
    15  H    4.651369   5.391592   5.391203   2.062399   1.019792
    16  X    6.913450   6.638616   6.638652   4.393568   3.234466
    17  X    5.991879   5.659387   5.659461   3.577562   2.582863
    18  H    9.632440   9.659432   9.659310   6.941091   5.588643
    19  X    9.837623   9.670197   9.670166   7.193748   5.880480
    20  O   10.579049  10.610372  10.610245   7.883723   6.527597
    21  H   10.727715  10.922108  10.921906   8.026210   6.665800
                   11         12         13         14         15
    11  C    0.000000
    12  S    1.651971   0.000000
    13  H    3.454637   4.885889   0.000000
    14  H    3.396789   4.749842   4.338454   0.000000
    15  H    2.026007   2.720986   4.828927   2.353252   0.000000
    16  X    1.931064   1.000000   4.559544   5.304503   3.527188
    17  X    1.193761   1.414214   3.593232   4.562155   3.129224
    18  H    4.720716   3.068745   7.780347   7.584455   5.293284
    19  X    4.825470   3.227568   7.579666   7.943596   5.749448
    20  O    5.677916   4.025945   8.707639   8.501953   6.188920
    21  H    5.990010   4.365411   9.197017   8.537483   6.187565
                   16         17         18         19         20
    16  X    0.000000
    17  X    1.000000   0.000000
    18  H    3.227568   4.189831   0.000000
    19  X    3.068745   4.068745   1.000000   0.000000
    20  O    4.148281   5.124463   0.957200   1.384280   0.000000
    21  H    4.680819   5.607311   1.513901   2.268292   0.957200
                   21
    21  H    0.000000
 Symmetry turned off by external request.
 Stoichiometry    C6H5F4NOS
 Framework group  C1[X(C6H5F4NOS)]
 Deg. of freedom    48
 Full point group                 C1      NOp   1
 Rotational constants (GHZ):      1.8186260      0.2379995      0.2186223
 Standard basis: 6-31G(d) (6D, 7F)
 Integral buffers will be    131072 words long.
 Raffenetti 1 integral format.
 Two-electron integral symmetry is turned off.
   209 basis functions,   408 primitive gaussians,   209 cartesian basis functions
    54 alpha electrons       54 beta electrons
       nuclear repulsion energy       888.9448689224 Hartrees.
 NAtoms=   18 NActive=   18 NUniq=   18 SFac= 7.50D-01 NAtFMM=   80 NAOKFM=F Big=F
 One-electron integrals computed using PRISM.
 NBasis=   209 RedAO= T  NBF=   209
 NBsUse=   209 1.00D-06 NBFU=   209
 Initial guess read from the read-write file.
 B after Tr=     0.000000    0.000000    0.000000
         Rot=    1.000000    0.000000    0.000000    0.000000 Ang=   0.00 deg.
 Requested convergence on RMS density matrix=1.00D-08 within 128 cycles.
 Requested convergence on MAX density matrix=1.00D-06.
 Requested convergence on             energy=1.00D-06.
 No special actions if energy rises.
 SCF Done:  E(RHF) =  -1154.67435608     A.U. after    7 cycles
             Convg  =    0.4986D-08             -V/T =  2.0018
 Calling FoFJK, ICntrl=      2127 FMM=F ISym2X=0 I1Cent= 0 IOpClX= 0 NMat=1 NMatS=1 NMatT=0.
 -------------------------------------------------------------------
 Center     Atomic                   Forces (Hartrees/Bohr)
 Number     Number              X              Y              Z
 -------------------------------------------------------------------
      1        9           0.000000000    0.000000000    0.000000000
      2        6           0.000000000    0.000000000    0.000000000
      3        6           0.000000000    0.000000000    0.000000000
      4        6           0.000000000    0.000000000    0.000000000
      5        6           0.000000000    0.000000000    0.000000000
      6        9           0.000000000    0.000000000    0.000000000
      7        9           0.000000000    0.000000000    0.000000000
      8        9           0.000000000    0.000000000    0.000000000
      9        6           0.000000000    0.000000000    0.000000000
     10        7           0.000000000    0.000000000    0.000000000
     11        6           0.000000000    0.000000000    0.000000000
     12       16           0.000000000    0.000000000    0.000000000
     13        1           0.000000000    0.000000000    0.000000000
     14        1           0.000000000    0.000000000    0.000000000
     15        1           0.000000000    0.000000000    0.000000000
     16        1          -0.010251064    0.000786045    0.000000263
     17        8           0.009492482   -0.011246163   -0.000000633
     18        1           0.000697064    0.010769987    0.000000382
 -------------------------------------------------------------------
 Cartesian Forces:  Max     0.011246163 RMS     0.002850484
 -----------------------------------------------------------------------------------------------
                       Internal Coordinate Forces (Hartree/Bohr or radian)
  Cent   Atom   N1       Length/X         N2         Alpha/Y        N3         Beta/Z          J
 -----------------------------------------------------------------------------------------------
      1  F 
      2  C 
      3  C 
      4  C 
      5  C 
      6  F 
      7  F 
      8  F 
      9  C 
     10  N 
     11  C 
     12  S 
     13  H 
     14  H 
     15  H 
         X       12   0.000000(     1)     11  -0.000181(     7)      2   0.000000(    13)     0
         X       16   0.000000(     2)     12   0.000000(     8)     11   0.000000(    14)     0
     16  H       12   0.000025(     3)     16  -0.000181(     9)     17   0.000000(    15)     0
         X       18   0.000000(     4)     12   0.001645(    10)     16   0.000000(    16)     0
     17  O       18  -0.010063(     5)     19   0.001645(    11)     12   0.000000(    17)     0
     18  H       20  -0.010766(     6)     18   0.001380(    12)     16   0.000000(    18)     0
 -----------------------------------------------------------------------------------------------
 Internal  Forces:  Max     0.010765505 RMS     0.003531891

 GradGradGradGradGradGradGradGradGradGradGradGradGradGradGradGradGradGrad
 Berny optimization.
 Search for a local minimum.
 Step number   4 out of a maximum of   20
 All quantities printed in internal units (Hartrees-Bohrs-Radians)
 Update second derivatives using D2CorN and points    3    4
 DE= -6.29D-07 DEPred=-6.24D-07 R= 1.01D+00
 Trust test= 1.01D+00 RLast= 1.83D-02 DXMaxT set to 3.00D-01
 The second derivative matrix:
                          RX       RDUM       ROH      ADUM      AHOH
           RX           0.00107
           RDUM         0.00000   0.00000
           ROH         -0.00004   0.00000   1.12160
           ADUM         0.00108   0.00000   0.00000   1.64000
           AHOH        -0.00011   0.00000   0.00000   0.00000   0.16000
           DDUM         0.00004   0.00000  -0.00015  -0.00910   0.00048
           DH1         -0.00004   0.00000   0.00012   0.00747  -0.00040
           DOH2         0.00001   0.00000  -0.00005  -0.00287   0.00015
           DH2          0.00001   0.00000  -0.00003  -0.00163   0.00009
                         DDUM       DH1      DOH2       DH2
           DDUM        95.82031
           DH1        -78.69396  64.63387
           DOH2        30.13922 -24.74318   9.74955
           DH2         17.12635 -14.06009   5.39604   3.06625
     Eigenvalues ---    0.001071000.000001000.000001000.000001000.00000
     Eigenvalues --- 1000.000001000.000001000.000001000.00000
 RFO step:  Lambda= 0.00000000D+00 EMin= 1.07401265D-03
 Quartic linear search produced a step of  1.31421.
 Variable       Old X    -DE/DX   Delta X   Delta X   Delta X     New X
                                 (Linear)    (Quad)   (Total)
    RX        5.79909   0.00002   0.02405   0.00000   0.02405   5.82313
   RDUM       1.88973   0.00000   0.00000   0.00000   0.00000   1.88973
   ROH        1.80885  -0.02083   0.00000   0.00000   0.00000   1.80885
   ADUM       1.57080   0.00293   0.00000   0.00000   0.00000   1.57080
   AHOH       1.82422   0.00138   0.00000   0.00000   0.00000   1.82422
   DDUM       0.00000   0.00000   0.00000   0.00000   0.00000   0.00000
   DH1        3.14159   0.00000   0.00000   0.00000   0.00000   3.14159
   DOH2       3.14159   0.00000   0.00000   0.00000   0.00000   3.14159
   DH2        3.14159   0.00000   0.00000   0.00000   0.00000   3.14159
         Item               Value     Threshold  Converged?
 Maximum Force            0.000025     0.000450     YES
 RMS     Force            0.000025     0.000300     YES
 Maximum Displacement     0.024047     0.001800     NO 
 RMS     Displacement     0.008016     0.001200     NO 
 Predicted change in Energy=-2.811460D-07
 GradGradGradGradGradGradGradGradGradGradGradGradGradGradGradGradGradGrad

 ---------------------------------------------------------------------------------------------------
                            Z-MATRIX (ANGSTROMS AND DEGREES)
   CD    Cent   Atom    N1       Length/X        N2       Alpha/Y        N3        Beta/Z          J
 ---------------------------------------------------------------------------------------------------
      1      1  F       -1  -1.969300          2.053680          0.000070
      2      2  C       -1  -1.222250          0.944230          0.000030
      3      3  C       -1   0.140030          1.057400         -0.000020
      4      4  C       -1   0.927950         -0.123640         -0.000080
      5      5  C       -1   2.414660         -0.018650         -0.000010
      6      6  F       -1   3.007080         -1.234610         -0.000560
      7      7  F       -1   2.858290          0.654480         -1.086020
      8      8  F       -1   2.858270          0.653500          1.086650
      9      9  C       -1   0.306540         -1.341490         -0.000090
     10     10  N       -1  -1.054170         -1.389970         -0.000060
     11     11  C       -1  -1.930500         -0.312100          0.000000
     12     12  S       -1  -3.570980         -0.506610          0.000030
     13     13  H       -1   0.596860          2.043100         -0.000020
     14     14  H       -1   0.831760         -2.288990         -0.000150
     15     15  H       -1  -1.521480         -2.296390         -0.000090
     16         X       12   1.000000(    15)     11   90.000(    34)      2    0.000(    52)      0
     17         X       16   1.000000(    16)     12   90.000(    35)     11    0.000(    53)      0
     18     16  H       12   3.081470(    17)     16   90.000(    36)     17  180.000(    54)      0
     19         X       18   1.000000(    18)     12   90.000(    37)     16    0.000(    55)      0
     20     17  O       18   0.957200(    19)     19   90.000(    38)     12  180.000(    56)      0
     21     18  H       20   0.957200(    20)     18  104.520(    39)     16  180.000(    57)      0
 ---------------------------------------------------------------------------------------------------
                         Z-Matrix orientation:                         
 ---------------------------------------------------------------------
 Center     Atomic      Atomic             Coordinates (Angstroms)
 Number     Number       Type             X           Y           Z
 ---------------------------------------------------------------------
      1          9           0       -1.969300    2.053680    0.000070
      2          6           0       -1.222250    0.944230    0.000030
      3          6           0        0.140030    1.057400   -0.000020
      4          6           0        0.927950   -0.123640   -0.000080
      5          6           0        2.414660   -0.018650   -0.000010
      6          9           0        3.007080   -1.234610   -0.000560
[...]
 !       DH1       180.0      -DE/DX =    0.0                           !
 !      DOH2       180.0      -DE/DX =    0.0                           !
 !       DH2       180.0      -DE/DX =    0.0                           !
 ------------------------------------------------------------------------
 GradGradGradGradGradGradGradGradGradGradGradGradGradGradGradGradGradGrad

 ---------------------------------------------------------------------------------------------------
                            Z-MATRIX (ANGSTROMS AND DEGREES)
   CD    Cent   Atom    N1       Length/X        N2       Alpha/Y        N3        Beta/Z          J
 ---------------------------------------------------------------------------------------------------
      1      1  F       -1  -1.969300          2.053680          0.000070
      2      2  C       -1  -1.222250          0.944230          0.000030
      3      3  C       -1   0.140030          1.057400         -0.000020
      4      4  C       -1   0.927950         -0.123640         -0.000080
      5      5  C       -1   2.414660         -0.018650         -0.000010
      6      6  F       -1   3.007080         -1.234610         -0.000560
      7      7  F       -1   2.858290          0.654480         -1.086020
      8      8  F       -1   2.858270          0.653500          1.086650
      9      9  C       -1   0.306540         -1.341490         -0.000090
     10     10  N       -1  -1.054170         -1.389970         -0.000060
     11     11  C       -1  -1.930500         -0.312100          0.000000
     12     12  S       -1  -3.570980         -0.506610          0.000030
     13     13  H       -1   0.596860          2.043100         -0.000020
     14     14  H       -1   0.831760         -2.288990         -0.000150
     15     15  H       -1  -1.521480         -2.296390         -0.000090
     16         X       12   1.000000(    15)     11   90.000(    34)      2    0.000(    52)      0
     17         X       16   1.000000(    16)     12   90.000(    35)     11    0.000(    53)      0
     18     16  H       12   3.081470(    17)     16   90.000(    36)     17  180.000(    54)      0
     19         X       18   1.000000(    18)     12   90.000(    37)     16    0.000(    55)      0
     20     17  O       18   0.957200(    19)     19   90.000(    38)     12  180.000(    56)      0
     21     18  H       20   0.957200(    20)     18  104.520(    39)     16  180.000(    57)      0
 ---------------------------------------------------------------------------------------------------
                         Z-Matrix orientation:                         
 ---------------------------------------------------------------------
 Center     Atomic      Atomic             Coordinates (Angstroms)
 Number     Number       Type             X           Y           Z
 ---------------------------------------------------------------------
      1          9           0       -1.969300    2.053680    0.000070
      2          6           0       -1.222250    0.944230    0.000030
      3          6           0        0.140030    1.057400   -0.000020
      4          6           0        0.927950   -0.123640   -0.000080
      5          6           0        2.414660   -0.018650   -0.000010
      6          9           0        3.007080   -1.234610   -0.000560
      7          9           0        2.858290    0.654480   -1.086020
      8          9           0        2.858270    0.653500    1.086650
      9          6           0        0.306540   -1.341490   -0.000090
     10          7           0       -1.054170   -1.389970   -0.000060
     11          6           0       -1.930500   -0.312100    0.000000
     12         16           0       -3.570980   -0.506610    0.000030
     13          1           0        0.596860    2.043100   -0.000020
     14          1           0        0.831760   -2.288990   -0.000150
     15          1           0       -1.521480   -2.296390   -0.000090
     16         -1           0       -3.688724    0.486434    0.000069
     17         -1           0       -2.695680    0.604178    0.000051
     18          1           0       -6.631015   -0.869435    0.000086
     19         -1           0       -6.748759    0.123609    0.000125
     20          8           0       -7.581557   -0.982140    0.000103
     21          1           0       -7.710770   -1.930579    0.000072
 ---------------------------------------------------------------------
                    Distance matrix (angstroms):
                    1          2          3          4          5
     1  F    0.000000
     2  C    1.337521   0.000000
     3  C    2.332777   1.366973   0.000000
     4  C    3.624194   2.400772   1.419744   0.000000
     5  C    4.849088   3.762214   2.516312   1.490413   0.000000
     6  F    5.964663   4.757581   3.670597   2.357337   1.352598
     7  F    5.142274   4.232525   2.954772   2.347541   1.352527
     8  F    5.142625   4.232719   2.955134   2.347566   1.352555
     9  C    4.087374   2.749857   2.404662   1.367227   2.488790
    10  N    3.563171   2.340244   2.723184   2.352104   3.730054
    11  C    2.366098   1.442215   2.482463   2.864656   4.355058
    12  S    3.020011   2.760701   4.027123   4.515201   6.005497
    13  H    2.566182   2.125247   1.086415   2.191890   2.748674
    14  H    5.167661   3.830492   3.417136   2.167485   2.767673
    15  H    4.373060   3.254406   3.742796   3.274225   4.547669
    16  X    2.326517   2.508600   3.871093   4.656809   6.124248
    17  X    1.621322   1.512161   2.871700   3.696000   5.148154
    18  H    5.502381   5.704746   7.039868   7.595668   9.085597
    19  X    5.154455   5.587104   6.951790   7.680690   9.164524
    20  O    6.380723   6.644673   7.986403   8.552703  10.042543
    21  H    6.988476   7.096859   8.400183   8.825673  10.304358
                    6          7          8          9         10
     6  F    0.000000
     7  F    2.183809   0.000000
     8  F    2.183834   2.172670   0.000000
     9  C    2.702654   3.416807   3.416477   0.000000
    10  N    4.064221   4.546034   4.545756   1.361573   0.000000
    11  C    5.023019   5.004620   5.004549   2.462517   1.389157
    12  S    6.618222   6.622926   6.622828   3.966382   2.667332
    13  H    4.068482   2.867355   2.868068   3.397019   3.809445
    14  H    2.417382   3.734964   3.734451   1.083334   2.089251
    15  H    4.651369   5.391592   5.391203   2.062399   1.019792
    16  X    6.913450   6.638616   6.638652   4.393568   3.234466
    17  X    5.991879   5.659387   5.659461   3.577562   2.582863
    18  H    9.645011   9.672066   9.671943   6.953597   5.601086
    19  X    9.849932   9.682816   9.682786   7.205815   5.892306
    20  O   10.591646  10.623022  10.622895   7.896278   6.540115
    21  H   10.740423  10.934676  10.934474   8.038923   6.678516
                   11         12         13         14         15
    11  C    0.000000
    12  S    1.651971   0.000000
    13  H    3.454637   4.885889   0.000000
    14  H    3.396789   4.749842   4.338454   0.000000
    15  H    2.026007   2.720986   4.828927   2.353252   0.000000
    16  X    1.931064   1.000000   4.559544   5.304503   3.527188
    17  X    1.193761   1.414214   3.593232   4.562155   3.129224
    18  H    4.733441   3.081470   7.792627   7.596588   5.305050
    19  X    4.837920   3.239669   7.592271   7.955181   5.760282
    20  O    5.690641   4.038670   8.720010   8.514209   6.200950
    21  H    6.002582   4.377847   9.209063   8.550045   6.200091
                   16         17         18         19         20
    16  X    0.000000
    17  X    1.000000   0.000000
    18  H    3.239669   4.202190   0.000000
    19  X    3.081470   4.081470   1.000000   0.000000
    20  O    4.160632   5.136944   0.957200   1.384280   0.000000
    21  H    4.692419   5.619263   1.513901   2.268292   0.957200
                   21
    21  H    0.000000
 Symmetry turned off by external request.
 Stoichiometry    C6H5F4NOS
 Framework group  C1[X(C6H5F4NOS)]
 Deg. of freedom    48
 Full point group                 C1      NOp   1
 Rotational constants (GHZ):      1.8185515      0.2376419      0.2183194

 **********************************************************************

            Population analysis using the SCF density.

 **********************************************************************

 Alpha  occ. eigenvalues --  -91.91111 -26.37065 -26.36112 -26.36110 -26.33783
 Alpha  occ. eigenvalues --  -20.54319 -15.69314 -11.54438 -11.38521 -11.37612
 Alpha  occ. eigenvalues --  -11.36545 -11.31683 -11.30768  -8.92226  -6.60566
 Alpha  occ. eigenvalues --   -6.60285  -6.60165  -1.74299  -1.65305  -1.65032
 Alpha  occ. eigenvalues --   -1.64604  -1.36075  -1.32479  -1.17544  -1.12559
 Alpha  occ. eigenvalues --   -1.03403  -0.97591  -0.92998  -0.88773  -0.85166
 Alpha  occ. eigenvalues --   -0.83935  -0.83531  -0.77386  -0.76237  -0.74222
 Alpha  occ. eigenvalues --   -0.72472  -0.71837  -0.71637  -0.70673  -0.68996
 Alpha  occ. eigenvalues --   -0.67716  -0.67714  -0.66286  -0.64346  -0.62993
 Alpha  occ. eigenvalues --   -0.61147  -0.59768  -0.55497  -0.53336  -0.48107
 Alpha  occ. eigenvalues --   -0.46962  -0.43760  -0.34844  -0.31602
 Alpha virt. eigenvalues --    0.03961   0.08306   0.16763   0.20061   0.24168
 Alpha virt. eigenvalues --    0.25329   0.26140   0.27039   0.29705   0.33352
 Alpha virt. eigenvalues --    0.34271   0.36905   0.39634   0.40428   0.42512
 Alpha virt. eigenvalues --    0.43138   0.47611   0.49112   0.53802   0.55971
 Alpha virt. eigenvalues --    0.56550   0.59695   0.63376   0.65224   0.66485
 Alpha virt. eigenvalues --    0.68260   0.72126   0.72743   0.73362   0.75059
 Alpha virt. eigenvalues --    0.76815   0.77530   0.82708   0.83990   0.87059
 Alpha virt. eigenvalues --    0.88728   0.89667   0.91877   0.95904   0.99221
 Alpha virt. eigenvalues --    1.01874   1.02492   1.04022   1.05473   1.07713
 Alpha virt. eigenvalues --    1.08500   1.09686   1.13110   1.14553   1.15428
 Alpha virt. eigenvalues --    1.17449   1.17784   1.18494   1.20060   1.24075
 Alpha virt. eigenvalues --    1.27924   1.30808   1.31529   1.33117   1.34093
 Alpha virt. eigenvalues --    1.34661   1.38800   1.41238   1.41709   1.42206
 Alpha virt. eigenvalues --    1.46239   1.47049   1.51659   1.58689   1.60471
 Alpha virt. eigenvalues --    1.61556   1.61790   1.63456   1.64041   1.64115
 Alpha virt. eigenvalues --    1.65319   1.66197   1.67143   1.69267   1.70196
 Alpha virt. eigenvalues --    1.72865   1.75648   1.76314   1.80881   1.86186
 Alpha virt. eigenvalues --    1.89565   1.92247   1.93323   1.99940   2.03709
 Alpha virt. eigenvalues --    2.03969   2.05054   2.05785   2.08439   2.09205
 Alpha virt. eigenvalues --    2.09720   2.12203   2.12451   2.17669   2.20308
 Alpha virt. eigenvalues --    2.22297   2.22314   2.24284   2.28310   2.29305
 Alpha virt. eigenvalues --    2.30299   2.32331   2.33292   2.34671   2.35840
 Alpha virt. eigenvalues --    2.37453   2.38867   2.42957   2.44861   2.45135
 Alpha virt. eigenvalues --    2.46832   2.51768   2.60546   2.61471   2.64909
 Alpha virt. eigenvalues --    2.65070   2.68122   2.74917   2.82340   2.84122
 Alpha virt. eigenvalues --    2.84152   2.91086   2.92638   2.92866   2.96471
 Alpha virt. eigenvalues --    3.00022   3.07148   3.09147   3.17028   3.21686
 Alpha virt. eigenvalues --    3.29248   3.37240   3.38192   3.42551   3.44273
 Alpha virt. eigenvalues --    3.48957   3.70752   4.05576   4.35856   4.40093
 Alpha virt. eigenvalues --    4.44857   4.47974   4.59924   4.64174   4.68522
 Alpha virt. eigenvalues --    4.82094   5.01206   5.15271   5.57186   6.01623
          Condensed to atoms (all electrons):
              1          2          3          4          5          6
     1  F    9.157905   0.267742  -0.033507   0.002206  -0.000015   0.000000
     2  C    0.267742   4.564297   0.569851  -0.026691   0.000845  -0.000019
     3  C   -0.033507   0.569851   5.060959   0.357488  -0.011833   0.002194
     4  C    0.002206  -0.026691   0.357488   5.202945   0.414621  -0.045502
     5  C   -0.000015   0.000845  -0.011833   0.414621   3.548092   0.289502
     6  F    0.000000  -0.000019   0.002194  -0.045502   0.289502   9.187691
     7  F    0.000000   0.000293   0.004968  -0.055041   0.285130  -0.030788
     8  F    0.000000   0.000292   0.004962  -0.055048   0.285138  -0.030789
     9  C    0.000133  -0.022759  -0.055281   0.591355  -0.020856   0.005563
    10  N    0.001385  -0.050992  -0.021634  -0.035173   0.001210   0.000241
    11  C   -0.040888   0.389594  -0.079268  -0.001590   0.000077   0.000002
    12  S    0.003961  -0.082560   0.001799  -0.000107   0.000006   0.000000
    13  H   -0.000279  -0.017504   0.368302  -0.029722  -0.000278   0.000035
    14  H    0.000000  -0.000103   0.001799  -0.022259  -0.000137   0.005066
    15  H   -0.000019   0.003680  -0.000545   0.002312  -0.000015   0.000001
    16  H    0.000000   0.000000   0.000000   0.000000   0.000000   0.000000
    17  O    0.000000   0.000000   0.000000   0.000000   0.000000   0.000000
    18  H    0.000000   0.000000   0.000000   0.000000   0.000000   0.000000
              7          8          9         10         11         12
     1  F    0.000000   0.000000   0.000133   0.001385  -0.040888   0.003961
     2  C    0.000293   0.000292  -0.022759  -0.050992   0.389594  -0.082560
     3  C    0.004968   0.004962  -0.055281  -0.021634  -0.079268   0.001799
     4  C   -0.055041  -0.055048   0.591355  -0.035173  -0.001590  -0.000107
     5  C    0.285130   0.285138  -0.020856   0.001210   0.000077   0.000006
     6  F   -0.030788  -0.030789   0.005563   0.000241   0.000002   0.000000
     7  F    9.200408  -0.033965   0.000536  -0.000006  -0.000002   0.000000
     8  F   -0.033965   9.200427   0.000532  -0.000006  -0.000002   0.000000
     9  C    0.000536   0.000532   4.738522   0.264647  -0.039104   0.003556
    10  N   -0.000006  -0.000006   0.264647   7.225454   0.219316  -0.104103
    11  C   -0.000002  -0.000002  -0.039104   0.219316   4.938952   0.445549
    12  S    0.000000   0.000000   0.003556  -0.104103   0.445549  15.961921
    13  H    0.000909   0.000905   0.002426  -0.000263   0.002620  -0.000059
    14  H    0.000084   0.000084   0.379619  -0.032079   0.000976  -0.000131
    15  H    0.000000   0.000000  -0.021342   0.310570  -0.018112   0.013431
    16  H    0.000000   0.000000   0.000000   0.000000  -0.000020   0.003263
    17  O    0.000000   0.000000   0.000000   0.000000   0.000003   0.000499
    18  H    0.000000   0.000000   0.000000   0.000000   0.000000   0.000034
             13         14         15         16         17         18
     1  F   -0.000279   0.000000  -0.000019   0.000000   0.000000   0.000000
     2  C   -0.017504  -0.000103   0.003680   0.000000   0.000000   0.000000
     3  C    0.368302   0.001799  -0.000545   0.000000   0.000000   0.000000
     4  C   -0.029722  -0.022259   0.002312   0.000000   0.000000   0.000000
     5  C   -0.000278  -0.000137  -0.000015   0.000000   0.000000   0.000000
     6  F    0.000035   0.005066   0.000001   0.000000   0.000000   0.000000
     7  F    0.000909   0.000084   0.000000   0.000000   0.000000   0.000000
     8  F    0.000905   0.000084   0.000000   0.000000   0.000000   0.000000
     9  C    0.002426   0.379619  -0.021342   0.000000   0.000000   0.000000
    10  N   -0.000263  -0.032079   0.310570   0.000000   0.000000   0.000000
    11  C    0.002620   0.000976  -0.018112  -0.000020   0.000003   0.000000
    12  S   -0.000059  -0.000131   0.013431   0.003263   0.000499   0.000034
    13  H    0.389669  -0.000061   0.000008   0.000000   0.000000   0.000000
    14  H   -0.000061   0.379635  -0.002101   0.000000   0.000000   0.000000
    15  H    0.000008  -0.002101   0.270183   0.000000   0.000000   0.000000
    16  H    0.000000   0.000000   0.000000   0.298598   0.263049  -0.018387
    17  O    0.000000   0.000000   0.000000   0.263049   8.352174   0.265044
    18  H    0.000000   0.000000   0.000000  -0.018387   0.265044   0.325217
 Mulliken atomic charges:
              1
     1  F   -0.358626
     2  C    0.404033
     3  C   -0.170255
     4  C   -0.299793
     5  C    1.208511
     6  F   -0.383198
     7  F   -0.372527
     8  F   -0.372531
     9  C    0.172454
    10  N   -0.778567
    11  C    0.181896
    12  S   -0.247059
    13  H    0.283291
    14  H    0.289607
    15  H    0.441947
    16  H    0.453496
    17  O   -0.880769
    18  H    0.428093
 Sum of Mulliken atomic charges =   0.00000
 Mulliken charges with hydrogens summed into heavy atoms:
              1
     1  F   -0.358626
     2  C    0.404033
     3  C    0.113036
     4  C   -0.299793
     5  C    1.208511
     6  F   -0.383198
     7  F   -0.372527
     8  F   -0.372531
     9  C    0.462061
    10  N   -0.336621
    11  C    0.181896
    12  S   -0.247059
    17  O    0.000819
 Sum of Mulliken charges with hydrogens summed into heavy atoms =   0.00000
 Electronic spatial extent (au):  <R**2>=           4716.1493
 Charge=              0.0000 electrons
 Dipole moment (field-independent basis, Debye):
    X=              5.6105    Y=             -4.0851    Z=             -0.0005  Tot=              6.9401
 Quadrupole moment (field-independent basis, Debye-Ang):
   XX=           -129.9617   YY=            -66.3456   ZZ=            -82.5234
   XY=             12.5068   XZ=              0.0007   YZ=              0.0004
 Traceless Quadrupole moment (field-independent basis, Debye-Ang):
   XX=            -37.0181   YY=             26.5980   ZZ=             10.4202
   XY=             12.5068   XZ=              0.0007   YZ=              0.0004
 Octapole moment (field-independent basis, Debye-Ang**2):
  XXX=            500.3412  YYY=              0.8709  ZZZ=             -0.0033  XYY=             35.9997
  XXY=            -65.0144  XXZ=             -0.0097  XZZ=             71.6502  YZZ=             11.9674
  YYZ=             -0.0001  XYZ=             -0.0004
 Hexadecapole moment (field-independent basis, Debye-Ang**3):
 XXXX=          -7199.8291 YYYY=           -470.1720 ZZZZ=           -143.4367 XXXY=            355.6038
 XXXZ=              0.0808 YYYX=            -69.8797 YYYZ=             -0.0019 ZZZX=              0.0174
 ZZZY=             -0.0044 XXYY=           -618.7071 XXZZ=           -856.9947 YYZZ=           -120.4606
 XXYZ=             -0.0011 YYXZ=              0.0111 ZZXY=            -72.7334
 N-N= 8.887851184215D+02 E-N=-4.515234132492D+03  KE= 1.152544345119D+03
 1\1\GINC-B1\FOpt\RHF\6-31G(d)\C6H5F4N1O1S1\ANA\24-Sep-2021\1\\#HF/6-31
 G* Opt=Z-matrix NoSymm\\water interaction with atom S12\\0,1\F,-1,-1.9
 693,2.05368,0.00007\C,-1,-1.22225,0.94423,0.00003\C,-1,0.14003,1.0574,
 -0.00002\C,-1,0.92795,-0.12364,-0.00008\C,-1,2.41466,-0.01865,-0.00001
 \F,-1,3.00708,-1.23461,-0.00056\F,-1,2.85829,0.65448,-1.08602\F,-1,2.8
 5827,0.6535,1.08665\C,-1,0.30654,-1.34149,-0.00009\N,-1,-1.05417,-1.38
 997,-0.00006\C,-1,-1.9305,-0.3121,0.\S,-1,-3.57098,-0.50661,0.00003\H,
 -1,0.59686,2.0431,-0.00002\H,-1,0.83176,-2.28899,-0.00015\H,-1,-1.5214
 8,-2.29639,-0.00009\X,12,RDUM,11,ADUM,2,DDUM,0\X,16,RDUM,12,ADUM,11,DD
 UM,0\H,12,RX,16,ADUM,17,DH1,0\X,18,RDUM,12,ADUM,16,DDUM,0\O,18,ROH,19,
 ADUM,12,DOH2,0\H,20,ROH,18,AHOH,16,DH2,0\\RX=3.08147009\RDUM=1.\ROH=0.
 9572\ADUM=90.\AHOH=104.52\DDUM=0.\DH1=180.\DOH2=180.\DH2=180.\\Version
 =EM64L-G09RevA.01\HF=-1154.6743564\RMSD=8.175e-09\RMSF=2.848e-03\Dipol
 e=2.207348,-1.6071857,-0.0001999\Quadrupole=-27.5220802,19.7749387,7.7
 471414,9.2985338,0.0005044,0.0002646\PG=C01 [X(C6H5F4N1O1S1)]\\@


 IT IS BY LOGIC THAT WE PROVE, BUT BY INTUITION THAT WE DISCOVER.
     -- J.H.POINCARE (1854-1912)
 Job cpu time:  0 days  0 hours  3 minutes 45.8 seconds.
 File lengths (MBytes):  RWF=     33 Int=      0 D2E=      0 Chk=      3 Scr=      1
 Normal termination of Gaussian 09 at Fri Sep 24 08:22:40 2021.
