 Entering Gaussian System, Link 0=g09
 Initial command:
 /home/ana/programs/g09/l1.exe /home/ana/programs/g09/scratch/Gau-705833.inp -scrdir=/home/ana/programs/g09/scratch/
 Entering Link 1 = /home/ana/programs/g09/l1.exe PID=    705835.
  
 Copyright (c) 1988,1990,1992,1993,1995,1998,2003,2009, Gaussian, Inc.
                  All Rights Reserved.
  
 This is part of the Gaussian(R) 09 program.  It is based on
 the Gaussian(R) 03 system (copyright 2003, Gaussian, Inc.),
 the Gaussian(R) 98 system (copyright 1998, Gaussian, Inc.),
 the Gaussian(R) 94 system (copyright 1995, Gaussian, Inc.),
 the Gaussian 92(TM) system (copyright 1992, Gaussian, Inc.),
 the Gaussian 90(TM) system (copyright 1990, Gaussian, Inc.),
 the Gaussian 88(TM) system (copyright 1988, Gaussian, Inc.),
 the Gaussian 86(TM) system (copyright 1986, Carnegie Mellon
 University), and the Gaussian 82(TM) system (copyright 1983,
 Carnegie Mellon University). Gaussian is a federally registered
 trademark of Gaussian, Inc.
  
 This software contains proprietary and confidential information,
 including trade secrets, belonging to Gaussian, Inc.
  
 This software is provided under written license and may be
 used, copied, transmitted, or stored only in accord with that
 written license.
  
 The following legend is applicable only to US Government
 contracts under FAR:
  
                    RESTRICTED RIGHTS LEGEND
  
 Use, reproduction and disclosure by the US Government is
 subject to restrictions as set forth in subparagraphs (a)
 and (c) of the Commercial Computer Software - Restricted
 Rights clause in FAR 52.227-19.
  
 Gaussian, Inc.
 340 Quinnipiac St., Bldg. 40, Wallingford CT 06492
  
  
 ---------------------------------------------------------------
 Warning -- This program may not be used in any manner that
 competes with the business of Gaussian, Inc. or will provide
 assistance to any competitor of Gaussian, Inc.  The licensee
 of this program is prohibited from giving any competitor of
 Gaussian, Inc. access to this program.  By using this program,
 the user acknowledges that Gaussian, Inc. is engaged in the
 business of creating and licensing software in the field of
 computational chemistry and represents and warrants to the
 licensee that it is not a competitor of Gaussian, Inc. and that
 it will not use this program in any manner prohibited above.
 ---------------------------------------------------------------
  

 Cite this work as:
 Gaussian 09, Revision A.01,
 M. J. Frisch, G. W. Trucks, H. B. Schlegel, G. E. Scuseria, 
 M. A. Robb, J. R. Cheeseman, G. Scalmani, V. Barone, B. Mennucci, 
 G. A. Petersson, H. Nakatsuji, M. Caricato, X. Li, H. P. Hratchian, 
 A. F. Izmaylov, J. Bloino, G. Zheng, J. L. Sonnenberg, M. Hada, 
 M. Ehara, K. Toyota, R. Fukuda, J. Hasegawa, M. Ishida, T. Nakajima, 
 Y. Honda, O. Kitao, H. Nakai, T. Vreven, J. A. Montgomery, Jr., 
 J. E. Peralta, F. Ogliaro, M. Bearpark, J. J. Heyd, E. Brothers, 
 K. N. Kudin, V. N. Staroverov, R. Kobayashi, J. Normand, 
 K. Raghavachari, A. Rendell, J. C. Burant, S. S. Iyengar, J. Tomasi, 
 M. Cossi, N. Rega, J. M. Millam, M. Klene, J. E. Knox, J. B. Cross, 
 V. Bakken, C. Adamo, J. Jaramillo, R. Gomperts, R. E. Stratmann, 
 O. Yazyev, A. J. Austin, R. Cammi, C. Pomelli, J. W. Ochterski, 
 R. L. Martin, K. Morokuma, V. G. Zakrzewski, G. A. Voth, 
 P. Salvador, J. J. Dannenberg, S. Dapprich, A. D. Daniels, 
 O. Farkas, J. B. Foresman, J. V. Ortiz, J. Cioslowski, 
 and D. J. Fox, Gaussian, Inc., Wallingford CT, 2009.
 
 ******************************************
 Gaussian 09:  EM64L-G09RevA.01  8-May-2009
                24-Sep-2021 
 ******************************************
 %NPROC=4
 Will use up to    4 processors via shared memory.
 %NoSave
 ------------------------------
 #HF/6-31G* Opt=Z-matrix NoSymm
 ------------------------------
 1/10=7,18=40,38=1/1,3;
 2/12=2,15=1,17=6,18=5,29=3,40=1/2;
 3/5=1,6=6,7=1,11=9,16=1,25=1,30=1,71=1/1,2,3;
 4//1;
 5/5=2,38=5/2;
 6/7=2,8=2,9=2,10=2,28=1/1;
 7/29=1,30=1/1,2,3,16;
 1/10=7,18=40/3(2);
 2/15=1,29=3/2;
 99//99;
 2/15=1,29=3/2;
 3/5=1,6=6,7=1,11=9,16=1,25=1,30=1,71=1/1,2,3;
 4/5=5,16=3/1;
 5/5=2,38=5/2;
 7/30=1/1,2,3,16;
 1/18=40/3(-5);
 2/15=1,29=3/2;
 6/7=2,8=2,9=2,10=2,19=2,28=1/1;
 99/9=1/99;
 -------------------------------
 water interaction with atom S12
 -------------------------------
 Symbolic Z-matrix:
 Charge =  0 Multiplicity = 1
 9                    -1   -1.9693    2.05368   0.00007 
 6                    -1   -1.22225   0.94423   0.00003 
 6                    -1    0.14003   1.0574   -0.00002 
 6                    -1    0.92795  -0.12364  -0.00008 
 6                    -1    2.41466  -0.01865  -0.00001 
 9                    -1    3.00708  -1.23461  -0.00056 
 9                    -1    2.85829   0.65448  -1.08602 
 9                    -1    2.85827   0.6535    1.08665 
 6                    -1    0.30654  -1.34149  -0.00009 
 7                    -1   -1.05417  -1.38997  -0.00006 
 6                    -1   -1.9305   -0.3121    0. 
 16                   -1   -3.57098  -0.50661   0.00003 
 1                    -1    0.59686   2.0431   -0.00002 
 1                    -1    0.83176  -2.28899  -0.00015 
 1                    -1   -1.52148  -2.29639  -0.00009 
 X                    12   RDUM     11   ADUM     2    DDUM     0
 X                    16   RDUM     12   ADUM     11   DDUM     0
 H1                   12   RX       16   ADUM     17   DH1      0
 X                    18   RDUM     12   ADUM     16   DDUM     0
 OH2                  18   ROH      19   ADUM     12   DOH2     0
 H2                   20   ROH      18   AHOH     16   DH2      0
       Variables:
  RX                    3.0064                   
       Constants:
  RDUM                  1.                       
  ROH                   0.9572                   
  ADUM                 90.                       
  AHOH                104.52                     
  DDUM                  0.                       
  DH1                 180.                       
  DOH2                180.                       
  DH2                  90.                       
 

 GradGradGradGradGradGradGradGradGradGradGradGradGradGradGradGradGradGrad
 Berny optimization.
 Initialization pass.
                       ----------------------------
                       !    Initial Parameters    !
                       ! (Angstroms and Degrees)  !
 ----------------------                            ----------------------
 !      Name          Value   Derivative information (Atomic Units)     !
 ------------------------------------------------------------------------
 !       RX          3.0064   estimate D2E/DX2                          !
 !      RDUM         1.0      Frozen                                    !
 !       ROH         0.9572   Frozen                                    !
 !      ADUM        90.0      Frozen                                    !
 !      AHOH       104.52     Frozen                                    !
 !      DDUM         0.0      Frozen                                    !
 !       DH1       180.0      Frozen                                    !
 !      DOH2       180.0      Frozen                                    !
 !       DH2        90.0      Frozen                                    !
 ------------------------------------------------------------------------
 Trust Radius=3.00D-01 FncErr=1.00D-07 GrdErr=1.00D-07
 Number of steps in this run=  20 maximum allowed number of steps= 100.
 GradGradGradGradGradGradGradGradGradGradGradGradGradGradGradGradGradGrad

 ---------------------------------------------------------------------------------------------------
                            Z-MATRIX (ANGSTROMS AND DEGREES)
   CD    Cent   Atom    N1       Length/X        N2       Alpha/Y        N3        Beta/Z          J
 ---------------------------------------------------------------------------------------------------
      1      1  F       -1  -1.969300          2.053680          0.000070
      2      2  C       -1  -1.222250          0.944230          0.000030
      3      3  C       -1   0.140030          1.057400         -0.000020
      4      4  C       -1   0.927950         -0.123640         -0.000080
      5      5  C       -1   2.414660         -0.018650         -0.000010
      6      6  F       -1   3.007080         -1.234610         -0.000560
      7      7  F       -1   2.858290          0.654480         -1.086020
      8      8  F       -1   2.858270          0.653500          1.086650
      9      9  C       -1   0.306540         -1.341490         -0.000090
     10     10  N       -1  -1.054170         -1.389970         -0.000060
     11     11  C       -1  -1.930500         -0.312100          0.000000
     12     12  S       -1  -3.570980         -0.506610          0.000030
     13     13  H       -1   0.596860          2.043100         -0.000020
     14     14  H       -1   0.831760         -2.288990         -0.000150
     15     15  H       -1  -1.521480         -2.296390         -0.000090
     16         X       12   1.000000(    15)     11   90.000(    34)      2    0.000(    52)      0
     17         X       16   1.000000(    16)     12   90.000(    35)     11    0.000(    53)      0
     18     16  H       12   3.006400(    17)     16   90.000(    36)     17  180.000(    54)      0
     19         X       18   1.000000(    18)     12   90.000(    37)     16    0.000(    55)      0
     20     17  O       18   0.957200(    19)     19   90.000(    38)     12  180.000(    56)      0
     21     18  H       20   0.957200(    20)     18  104.520(    39)     16   90.000(    57)      0
 ---------------------------------------------------------------------------------------------------
                         Z-Matrix orientation:                         
 ---------------------------------------------------------------------
 Center     Atomic      Atomic             Coordinates (Angstroms)
 Number     Number       Type             X           Y           Z
 ---------------------------------------------------------------------
      1          9           0       -1.969300    2.053680    0.000070
      2          6           0       -1.222250    0.944230    0.000030
      3          6           0        0.140030    1.057400   -0.000020
      4          6           0        0.927950   -0.123640   -0.000080
      5          6           0        2.414660   -0.018650   -0.000010
      6          9           0        3.007080   -1.234610   -0.000560
      7          9           0        2.858290    0.654480   -1.086020
      8          9           0        2.858270    0.653500    1.086650
      9          6           0        0.306540   -1.341490   -0.000090
     10          7           0       -1.054170   -1.389970   -0.000060
     11          6           0       -1.930500   -0.312100    0.000000
     12         16           0       -3.570980   -0.506610    0.000030
     13          1           0        0.596860    2.043100   -0.000020
     14          1           0        0.831760   -2.288990   -0.000150
     15          1           0       -1.521480   -2.296390   -0.000090
     16         -1           0       -3.688724    0.486434    0.000069
     17         -1           0       -2.695680    0.604178    0.000051
     18          1           0       -6.556467   -0.860596    0.000085
     19         -1           0       -6.674212    0.132448    0.000124
     20          8           0       -7.507009   -0.973301    0.000102
     21          1           0       -7.745348   -1.001524   -0.926521
 ---------------------------------------------------------------------
                    Distance matrix (angstroms):
                    1          2          3          4          5
     1  F    0.000000
     2  C    1.337521   0.000000
     3  C    2.332777   1.366973   0.000000
     4  C    3.624194   2.400772   1.419744   0.000000
     5  C    4.849088   3.762214   2.516312   1.490413   0.000000
     6  F    5.964663   4.757581   3.670597   2.357337   1.352598
     7  F    5.142274   4.232525   2.954772   2.347541   1.352527
     8  F    5.142625   4.232719   2.955134   2.347566   1.352555
     9  C    4.087374   2.749857   2.404662   1.367227   2.488790
    10  N    3.563171   2.340244   2.723184   2.352104   3.730054
    11  C    2.366098   1.442215   2.482463   2.864656   4.355058
    12  S    3.020011   2.760701   4.027123   4.515201   6.005497
    13  H    2.566182   2.125247   1.086415   2.191890   2.748674
    14  H    5.167661   3.830492   3.417136   2.167485   2.767673
    15  H    4.373060   3.254406   3.742796   3.274225   4.547669
    16  X    2.326517   2.508600   3.871093   4.656809   6.124248
    17  X    1.621322   1.512161   2.871700   3.696000   5.148154
    18  H    5.434621   5.631276   6.965758   7.520612   9.010549
    19  X    5.082059   5.512066   6.876731   7.606474   9.090127
    20  O    6.311009   6.570778   7.912076   8.477645   9.967491
    21  H    6.599664   6.869881   8.202241   8.766702  10.249401
                    6          7          8          9         10
     6  F    0.000000
     7  F    2.183809   0.000000
     8  F    2.183834   2.172670   0.000000
     9  C    2.702654   3.416807   3.416477   0.000000
    10  N    4.064221   4.546034   4.545756   1.361573   0.000000
    11  C    5.023019   5.004620   5.004549   2.462517   1.389157
    12  S    6.618222   6.622926   6.622828   3.966382   2.667332
    13  H    4.068482   2.867355   2.868068   3.397019   3.809445
    14  H    2.417382   3.734964   3.734451   1.083334   2.089251
    15  H    4.651369   5.391592   5.391203   2.062399   1.019792
    16  X    6.913450   6.638616   6.638652   4.393568   3.234466
    17  X    5.991879   5.659387   5.659461   3.577562   2.582863
    18  H    9.570858   9.597538   9.597416   6.879835   5.527704
    19  X    9.777334   9.608372   9.608342   7.134661   5.822596
    20  O   10.517336  10.548401  10.548274   7.822219   6.466278
    21  H   10.794741  10.733356  10.919188   8.112136   6.766172
                   11         12         13         14         15
    11  C    0.000000
    12  S    1.651971   0.000000
    13  H    3.454637   4.885889   0.000000
    14  H    3.396789   4.749842   4.338454   0.000000
    15  H    2.026007   2.720986   4.828927   2.353252   0.000000
    16  X    1.931064   1.000000   4.559544   5.304503   3.527188
    17  X    1.193761   1.414214   3.593232   4.562155   3.129224
    18  H    4.658371   3.006400   7.720204   7.525039   5.235705
    19  X    4.764496   3.168350   7.517917   7.886886   5.696481
    20  O    5.615571   3.963600   8.647044   8.441926   6.130018
    21  H    5.928423   4.304507   8.928638   8.722529   6.424289
                   16         17         18         19         20
    16  X    0.000000
    17  X    1.000000   0.000000
    18  H    3.168350   4.129315   0.000000
    19  X    3.006400   4.006400   1.000000   0.000000
    20  O    4.087802   5.063331   0.957200   1.384280   0.000000
    21  H    4.419138   5.379215   1.513901   1.814358   0.957200
                   21
    21  H    0.000000
 Symmetry turned off by external request.
 Stoichiometry    C6H5F4NOS
 Framework group  C1[X(C6H5F4NOS)]
 Deg. of freedom    48
 Full point group                 C1      NOp   1
 Rotational constants (GHZ):      1.8249290      0.2395804      0.2202080
 Standard basis: 6-31G(d) (6D, 7F)
 Integral buffers will be    131072 words long.
 Raffenetti 1 integral format.
 Two-electron integral symmetry is turned off.
   209 basis functions,   408 primitive gaussians,   209 cartesian basis functions
    54 alpha electrons       54 beta electrons
       nuclear repulsion energy       889.7594325010 Hartrees.
 NAtoms=   18 NActive=   18 NUniq=   18 SFac= 7.50D-01 NAtFMM=   80 NAOKFM=F Big=F
 One-electron integrals computed using PRISM.
 NBasis=   209 RedAO= T  NBF=   209
 NBsUse=   209 1.00D-06 NBFU=   209
 Harris functional with IExCor=  205 diagonalized for initial guess.
 ExpMin= 1.17D-01 ExpMax= 2.19D+04 ExpMxC= 3.30D+03 IAcc=1 IRadAn=         1 AccDes= 0.00D+00
 HarFok:  IExCor=  205 AccDes= 0.00D+00 IRadAn=         1 IDoV= 1
 ScaDFX=  1.000000  1.000000  1.000000  1.000000
 FoFCou: FMM=F IPFlag=           0 FMFlag=      100000 FMFlg1=           0
         NFxFlg=           0 DoJE=T BraDBF=F KetDBF=T FulRan=T
         Omega=  0.000000  0.000000  1.000000  0.000000  0.000000 ICntrl=     500 IOpCl=  0
         NMat0=    1 NMatS0=    1 NMatT0=    0 NMatD0=    1 NMtDS0=    0 NMtDT0=    0
         I1Cent=           4 NGrid=           0.
 Symmetry not used in FoFCou.
 Requested convergence on RMS density matrix=1.00D-08 within 128 cycles.
 Requested convergence on MAX density matrix=1.00D-06.
 Requested convergence on             energy=1.00D-06.
 No special actions if energy rises.
 Integral accuracy reduced to 1.0D-05 until final iterations.
 Initial convergence to 1.0D-05 achieved.  Increase integral accuracy.
 SCF Done:  E(RHF) =  -1154.67471446     A.U. after   15 cycles
             Convg  =    0.5532D-08             -V/T =  2.0018

 **********************************************************************

            Population analysis using the SCF density.

 **********************************************************************

 Alpha  occ. eigenvalues --  -91.91118 -26.37069 -26.36131 -26.36117 -26.33849
 Alpha  occ. eigenvalues --  -20.54231 -15.69322 -11.54450 -11.38550 -11.37642
 Alpha  occ. eigenvalues --  -11.36558 -11.31722 -11.30783  -8.92237  -6.60578
 Alpha  occ. eigenvalues --   -6.60297  -6.60177  -1.74309  -1.65312  -1.65102
 Alpha  occ. eigenvalues --   -1.64617  -1.36082  -1.32394  -1.17564  -1.12583
 Alpha  occ. eigenvalues --   -1.03423  -0.97606  -0.93019  -0.88794  -0.85189
 Alpha  occ. eigenvalues --   -0.83946  -0.83542  -0.77411  -0.76264  -0.74252
 Alpha  occ. eigenvalues --   -0.72485  -0.71850  -0.71703  -0.70699  -0.68924
 Alpha  occ. eigenvalues --   -0.67728  -0.67722  -0.66297  -0.64392  -0.63002
 Alpha  occ. eigenvalues --   -0.61169  -0.59793  -0.55450  -0.53347  -0.48027
 Alpha  occ. eigenvalues --   -0.46981  -0.43788  -0.34853  -0.31636
 Alpha virt. eigenvalues --    0.03934   0.08285   0.16823   0.20191   0.24156
 Alpha virt. eigenvalues --    0.25337   0.26106   0.27283   0.29683   0.33315
 Alpha virt. eigenvalues --    0.34304   0.37165   0.39693   0.40415   0.42521
 Alpha virt. eigenvalues --    0.43138   0.47814   0.49171   0.53803   0.55912
 Alpha virt. eigenvalues --    0.56565   0.59732   0.63356   0.65587   0.66472
 Alpha virt. eigenvalues --    0.68379   0.72219   0.72715   0.73351   0.75036
 Alpha virt. eigenvalues --    0.76799   0.77512   0.82706   0.83961   0.87028
 Alpha virt. eigenvalues --    0.88711   0.89648   0.91861   0.95974   0.99213
 Alpha virt. eigenvalues --    1.01871   1.02547   1.04215   1.05519   1.07640
 Alpha virt. eigenvalues --    1.08478   1.09788   1.13162   1.14547   1.15389
 Alpha virt. eigenvalues --    1.17554   1.17950   1.18556   1.20249   1.24082
 Alpha virt. eigenvalues --    1.27903   1.30775   1.31514   1.33104   1.34163
 Alpha virt. eigenvalues --    1.34657   1.38783   1.41189   1.41689   1.42297
 Alpha virt. eigenvalues --    1.46228   1.47070   1.51604   1.59224   1.60458
 Alpha virt. eigenvalues --    1.61548   1.62746   1.63436   1.64025   1.64095
 Alpha virt. eigenvalues --    1.65309   1.66180   1.67122   1.69208   1.70208
 Alpha virt. eigenvalues --    1.73068   1.75626   1.76328   1.80869   1.86169
 Alpha virt. eigenvalues --    1.89551   1.92234   1.93325   1.99926   2.03779
 Alpha virt. eigenvalues --    2.03949   2.05125   2.05776   2.08514   2.09183
 Alpha virt. eigenvalues --    2.09658   2.12190   2.12436   2.17619   2.20323
 Alpha virt. eigenvalues --    2.22282   2.22290   2.24260   2.28302   2.29287
 Alpha virt. eigenvalues --    2.30287   2.32314   2.33272   2.34659   2.35825
 Alpha virt. eigenvalues --    2.37434   2.38865   2.42907   2.44846   2.45118
 Alpha virt. eigenvalues --    2.46815   2.51751   2.60524   2.61446   2.65027
 Alpha virt. eigenvalues --    2.65163   2.68111   2.74896   2.82320   2.84105
 Alpha virt. eigenvalues --    2.84108   2.91085   2.92640   2.92845   2.96561
 Alpha virt. eigenvalues --    3.00005   3.07137   3.09128   3.17016   3.21673
 Alpha virt. eigenvalues --    3.29227   3.37227   3.38182   3.42499   3.44260
 Alpha virt. eigenvalues --    3.48926   3.70734   4.06454   4.35868   4.40260
 Alpha virt. eigenvalues --    4.44860   4.47967   4.59940   4.64202   4.68509
 Alpha virt. eigenvalues --    4.82161   5.01199   5.15262   5.57136   6.01603
          Condensed to atoms (all electrons):
              1          2          3          4          5          6
     1  F    9.158853   0.267485  -0.033508   0.002208  -0.000015   0.000000
     2  C    0.267485   4.567860   0.568763  -0.026475   0.000850  -0.000019
     3  C   -0.033508   0.568763   5.060990   0.357517  -0.011841   0.002196
     4  C    0.002208  -0.026475   0.357517   5.203480   0.414534  -0.045489
     5  C   -0.000015   0.000850  -0.011841   0.414534   3.548000   0.289582
     6  F    0.000000  -0.000019   0.002196  -0.045489   0.289582   9.187480
     7  F    0.000000   0.000293   0.004970  -0.055045   0.285060  -0.030788
     8  F    0.000000   0.000292   0.004963  -0.055054   0.285197  -0.030792
     9  C    0.000132  -0.022852  -0.055203   0.591060  -0.020838   0.005557
    10  N    0.001382  -0.051276  -0.021548  -0.035244   0.001212   0.000241
    11  C   -0.040992   0.388500  -0.078704  -0.001658   0.000077   0.000002
    12  S    0.003969  -0.082444   0.001839  -0.000106   0.000006   0.000000
    13  H   -0.000279  -0.017561   0.368316  -0.029668  -0.000278   0.000035
    14  H    0.000000  -0.000104   0.001799  -0.022323  -0.000135   0.005062
    15  H   -0.000018   0.003676  -0.000549   0.002315  -0.000015   0.000001
    16  H    0.000000   0.000001   0.000000   0.000000   0.000000   0.000000
    17  O    0.000000   0.000000   0.000000   0.000000   0.000000   0.000000
    18  H    0.000000   0.000000   0.000000   0.000000   0.000000   0.000000
              7          8          9         10         11         12
     1  F    0.000000   0.000000   0.000132   0.001382  -0.040992   0.003969
     2  C    0.000293   0.000292  -0.022852  -0.051276   0.388500  -0.082444
     3  C    0.004970   0.004963  -0.055203  -0.021548  -0.078704   0.001839
     4  C   -0.055045  -0.055054   0.591060  -0.035244  -0.001658  -0.000106
     5  C    0.285060   0.285197  -0.020838   0.001212   0.000077   0.000006
     6  F   -0.030788  -0.030792   0.005557   0.000241   0.000002   0.000000
     7  F    9.200629  -0.033964   0.000537  -0.000006  -0.000002   0.000000
     8  F   -0.033964   9.200289   0.000534  -0.000006  -0.000002   0.000000
     9  C    0.000537   0.000534   4.737874   0.265394  -0.039289   0.003524
    10  N   -0.000006  -0.000006   0.265394   7.223205   0.221080  -0.103999
    11  C   -0.000002  -0.000002  -0.039289   0.221080   4.939095   0.445404
    12  S    0.000000   0.000000   0.003524  -0.103999   0.445404  15.961396
    13  H    0.000910   0.000906   0.002425  -0.000263   0.002615  -0.000058
    14  H    0.000084   0.000084   0.379582  -0.032001   0.000981  -0.000131
    15  H    0.000000   0.000000  -0.021312   0.310435  -0.017973   0.013195
    16  H    0.000000   0.000000   0.000000   0.000000  -0.000025   0.003866
    17  O    0.000000   0.000000   0.000000   0.000000   0.000004   0.000610
    18  H    0.000000   0.000000   0.000000   0.000000   0.000000   0.000042
             13         14         15         16         17         18
     1  F   -0.000279   0.000000  -0.000018   0.000000   0.000000   0.000000
     2  C   -0.017561  -0.000104   0.003676   0.000001   0.000000   0.000000
     3  C    0.368316   0.001799  -0.000549   0.000000   0.000000   0.000000
     4  C   -0.029668  -0.022323   0.002315   0.000000   0.000000   0.000000
     5  C   -0.000278  -0.000135  -0.000015   0.000000   0.000000   0.000000
     6  F    0.000035   0.005062   0.000001   0.000000   0.000000   0.000000
     7  F    0.000910   0.000084   0.000000   0.000000   0.000000   0.000000
     8  F    0.000906   0.000084   0.000000   0.000000   0.000000   0.000000
     9  C    0.002425   0.379582  -0.021312   0.000000   0.000000   0.000000
    10  N   -0.000263  -0.032001   0.310435   0.000000   0.000000   0.000000
    11  C    0.002615   0.000981  -0.017973  -0.000025   0.000004   0.000000
    12  S   -0.000058  -0.000131   0.013195   0.003866   0.000610   0.000042
    13  H    0.389809  -0.000061   0.000008   0.000000   0.000000   0.000000
    14  H   -0.000061   0.379076  -0.002086   0.000000   0.000000   0.000000
    15  H    0.000008  -0.002086   0.268940   0.000001   0.000000   0.000000
    16  H    0.000000   0.000000   0.000001   0.296197   0.262492  -0.018375
    17  O    0.000000   0.000000   0.000000   0.262492   8.355362   0.265402
    18  H    0.000000   0.000000   0.000000  -0.018375   0.265402   0.323800
 Mulliken atomic charges:
              1
     1  F   -0.359219
     2  C    0.403012
     3  C   -0.169997
     4  C   -0.300052
     5  C    1.208604
     6  F   -0.383068
     7  F   -0.372679
     8  F   -0.372449
     9  C    0.172875
    10  N   -0.778605
    11  C    0.180887
    12  S   -0.247113
    13  H    0.283144
    14  H    0.290172
    15  H    0.443382
    16  H    0.455844
    17  O   -0.883869
    18  H    0.429131
 Sum of Mulliken atomic charges =   0.00000
 Mulliken charges with hydrogens summed into heavy atoms:
              1
     1  F   -0.359219
     2  C    0.403012
     3  C    0.113147
     4  C   -0.300052
     5  C    1.208604
     6  F   -0.383068
     7  F   -0.372679
     8  F   -0.372449
     9  C    0.463047
    10  N   -0.335223
    11  C    0.180887
    12  S   -0.247113
    17  O    0.001106
 Sum of Mulliken charges with hydrogens summed into heavy atoms =   0.00000
 Electronic spatial extent (au):  <R**2>=           4675.3415
 Charge=              0.0000 electrons
 Dipole moment (field-independent basis, Debye):
    X=              5.4400    Y=             -2.4048    Z=             -1.7103  Tot=              6.1888
 Quadrupole moment (field-independent basis, Debye-Ang):
   XX=           -126.6897   YY=            -72.0574   ZZ=            -80.2713
   XY=             -0.6672   XZ=             13.6611   YZ=              1.7642
 Traceless Quadrupole moment (field-independent basis, Debye-Ang):
   XX=            -33.6836   YY=             20.9488   ZZ=             12.7348
   XY=             -0.6672   XZ=             13.6611   YZ=              1.7642
 Octapole moment (field-independent basis, Debye-Ang**2):
  XXX=            457.5820  YYY=             13.0300  ZZZ=             -0.4341  XYY=             79.8620
  XXY=             35.6315  XXZ=           -107.4281  XZZ=             53.8523  YZZ=              9.2677
  YYZ=             -1.3945  XYZ=            -13.9227
 Hexadecapole moment (field-independent basis, Debye-Ang**3):
 XXXX=          -6707.1742 YYYY=           -492.0915 ZZZZ=           -143.1924 XXXY=           -405.8504
 XXXZ=            839.8906 YYYX=           -163.7469 YYYZ=              0.7115 ZZZX=              3.8557
 ZZZY=              0.4889 XXYY=           -952.0222 XXZZ=           -716.6491 YYZZ=           -117.3443
 XXYZ=            109.1925 YYXZ=             11.2761 ZZXY=            -51.6783
 N-N= 8.897594325010D+02 E-N=-4.517172147990D+03  KE= 1.152545618011D+03
 Calling FoFJK, ICntrl=      2127 FMM=F ISym2X=0 I1Cent= 0 IOpClX= 0 NMat=1 NMatS=1 NMatT=0.
 -------------------------------------------------------------------
 Center     Atomic                   Forces (Hartrees/Bohr)
 Number     Number              X              Y              Z
 -------------------------------------------------------------------
      1        9           0.000000000    0.000000000    0.000000000
      2        6           0.000000000    0.000000000    0.000000000
      3        6           0.000000000    0.000000000    0.000000000
      4        6           0.000000000    0.000000000    0.000000000
      5        6           0.000000000    0.000000000    0.000000000
      6        9           0.000000000    0.000000000    0.000000000
      7        9           0.000000000    0.000000000    0.000000000
      8        9           0.000000000    0.000000000    0.000000000
      9        6           0.000000000    0.000000000    0.000000000
     10        7           0.000000000    0.000000000    0.000000000
     11        6           0.000000000    0.000000000    0.000000000
     12       16           0.000000000    0.000000000    0.000000000
     13        1           0.000000000    0.000000000    0.000000000
     14        1           0.000000000    0.000000000    0.000000000
     15        1           0.000000000    0.000000000    0.000000000
     16        1          -0.010217709   -0.000765685    0.001632785
     17        8           0.008073954    0.000392693   -0.011939859
     18        1           0.002025277    0.000464980    0.010546096
 -------------------------------------------------------------------
 Cartesian Forces:  Max     0.011939859 RMS     0.002825463
 -----------------------------------------------------------------------------------------------
                       Internal Coordinate Forces (Hartree/Bohr or radian)
  Cent   Atom   N1       Length/X         N2         Alpha/Y        N3         Beta/Z          J
 -----------------------------------------------------------------------------------------------
      1  F 
      2  C 
      3  C 
      4  C 
      5  C 
      6  F 
      7  F 
      8  F 
      9  C 
     10  N 
     11  C 
     12  S 
     13  H 
     14  H 
     15  H 
         X       12   0.000000(     1)     11  -0.000089(     7)      2  -0.000392(    13)     0
         X       16   0.000000(     2)     12   0.000000(     8)     11   0.000003(    14)     0
     16  H       12   0.000107(     3)     16  -0.000089(     9)     17  -0.000003(    15)     0
         X       18   0.000000(     4)     12   0.000509(    10)     16   0.000000(    16)     0
     17  O       18  -0.010130(     5)     19   0.000509(    11)     12   0.000178(    17)     0
     18  H       20  -0.010727(     6)     18   0.001166(    12)     16  -0.000392(    18)     0
 -----------------------------------------------------------------------------------------------
 Internal  Forces:  Max     0.010727203 RMS     0.003495489

 GradGradGradGradGradGradGradGradGradGradGradGradGradGradGradGradGradGrad
 Berny optimization.
 Search for a local minimum.
 Step number   1 out of a maximum of   20
 All quantities printed in internal units (Hartrees-Bohrs-Radians)
 Second derivative matrix not updated -- first step.
 The second derivative matrix:
                          RX       RDUM       ROH      ADUM      AHOH
           RX           0.01370
           RDUM         0.00000   0.00000
           ROH          0.00000   0.00000   1.12160
           ADUM         0.00000   0.00000   0.00000   1.64000
           AHOH         0.00000   0.00000   0.00000   0.00000   0.16000
           DDUM         0.00000   0.00000   0.00000   0.00000   0.00000
           DH1          0.00000   0.00000   0.00000   0.00000   0.00000
           DOH2         0.00000   0.00000   0.00000   0.00000   0.00000
           DH2          0.00000   0.00000   0.00000   0.00000   0.00000
                         DDUM       DH1      DOH2       DH2
           DDUM         0.16225
           DH1         -0.16225   0.16225
           DOH2         0.00000   0.00000   0.25351
           DH2          0.00000   0.00000   0.00000   0.00000
     Eigenvalues ---    0.013701000.000001000.000001000.000001000.00000
     Eigenvalues --- 1000.000001000.000001000.000001000.00000
 RFO step:  Lambda=-8.33205496D-07 EMin= 1.36964395D-02
 Linear search not attempted -- first point.
 Variable       Old X    -DE/DX   Delta X   Delta X   Delta X     New X
                                 (Linear)    (Quad)   (Total)
    RX        5.68127   0.00011   0.00000   0.00780   0.00780   5.68907
   RDUM       1.88973   0.00000   0.00000   0.00000   0.00000   1.88973
   ROH        1.80885  -0.02086   0.00000   0.00000   0.00000   1.80885
   ADUM       1.57080   0.00084   0.00000   0.00000   0.00000   1.57080
   AHOH       1.82422   0.00117   0.00000   0.00000   0.00000   1.82422
   DDUM       0.00000  -0.00039   0.00000   0.00000   0.00000   0.00000
   DH1        3.14159   0.00000   0.00000   0.00000   0.00000   3.14159
   DOH2       3.14159   0.00018   0.00000   0.00000   0.00000   3.14159
   DH2        1.57080  -0.00039   0.00000   0.00000   0.00000   1.57080
         Item               Value     Threshold  Converged?
 Maximum Force            0.000107     0.000450     YES
 RMS     Force            0.000107     0.000300     YES
 Maximum Displacement     0.007799     0.001800     NO 
 RMS     Displacement     0.002600     0.001200     NO 
 Predicted change in Energy=-4.166027D-07
 GradGradGradGradGradGradGradGradGradGradGradGradGradGradGradGradGradGrad

 ---------------------------------------------------------------------------------------------------
                            Z-MATRIX (ANGSTROMS AND DEGREES)
   CD    Cent   Atom    N1       Length/X        N2       Alpha/Y        N3        Beta/Z          J
 ---------------------------------------------------------------------------------------------------
      1      1  F       -1  -1.969300          2.053680          0.000070
      2      2  C       -1  -1.222250          0.944230          0.000030
      3      3  C       -1   0.140030          1.057400         -0.000020
      4      4  C       -1   0.927950         -0.123640         -0.000080
      5      5  C       -1   2.414660         -0.018650         -0.000010
      6      6  F       -1   3.007080         -1.234610         -0.000560
      7      7  F       -1   2.858290          0.654480         -1.086020
      8      8  F       -1   2.858270          0.653500          1.086650
      9      9  C       -1   0.306540         -1.341490         -0.000090
     10     10  N       -1  -1.054170         -1.389970         -0.000060
     11     11  C       -1  -1.930500         -0.312100          0.000000
     12     12  S       -1  -3.570980         -0.506610          0.000030
     13     13  H       -1   0.596860          2.043100         -0.000020
     14     14  H       -1   0.831760         -2.288990         -0.000150
     15     15  H       -1  -1.521480         -2.296390         -0.000090
     16         X       12   1.000000(    15)     11   90.000(    34)      2    0.000(    52)      0
     17         X       16   1.000000(    16)     12   90.000(    35)     11    0.000(    53)      0
     18     16  H       12   3.010527(    17)     16   90.000(    36)     17  180.000(    54)      0
     19         X       18   1.000000(    18)     12   90.000(    37)     16    0.000(    55)      0
     20     17  O       18   0.957200(    19)     19   90.000(    38)     12  180.000(    56)      0
     21     18  H       20   0.957200(    20)     18  104.520(    39)     16   90.000(    57)      0
 ---------------------------------------------------------------------------------------------------
                         Z-Matrix orientation:                         
 ---------------------------------------------------------------------
 Center     Atomic      Atomic             Coordinates (Angstroms)
 Number     Number       Type             X           Y           Z
 ---------------------------------------------------------------------
      1          9           0       -1.969300    2.053680    0.000070
      2          6           0       -1.222250    0.944230    0.000030
      3          6           0        0.140030    1.057400   -0.000020
      4          6           0        0.927950   -0.123640   -0.000080
      5          6           0        2.414660   -0.018650   -0.000010
      6          9           0        3.007080   -1.234610   -0.000560
      7          9           0        2.858290    0.654480   -1.086020
      8          9           0        2.858270    0.653500    1.086650
      9          6           0        0.306540   -1.341490   -0.000090
     10          7           0       -1.054170   -1.389970   -0.000060
     11          6           0       -1.930500   -0.312100    0.000000
     12         16           0       -3.570980   -0.506610    0.000030
     13          1           0        0.596860    2.043100   -0.000020
     14          1           0        0.831760   -2.288990   -0.000150
     15          1           0       -1.521480   -2.296390   -0.000090
     16         -1           0       -3.688724    0.486434    0.000069
     17         -1           0       -2.695680    0.604178    0.000051
     18          1           0       -6.560566   -0.861082    0.000085
     19         -1           0       -6.678310    0.131962    0.000124
     20          8           0       -7.511107   -0.973787    0.000102
     21          1           0       -7.749446   -1.002010   -0.926521
 ---------------------------------------------------------------------
                    Distance matrix (angstroms):
                    1          2          3          4          5
     1  F    0.000000
     2  C    1.337521   0.000000
     3  C    2.332777   1.366973   0.000000
     4  C    3.624194   2.400772   1.419744   0.000000
     5  C    4.849088   3.762214   2.516312   1.490413   0.000000
     6  F    5.964663   4.757581   3.670597   2.357337   1.352598
     7  F    5.142274   4.232525   2.954772   2.347541   1.352527
     8  F    5.142625   4.232719   2.955134   2.347566   1.352555
     9  C    4.087374   2.749857   2.404662   1.367227   2.488790
    10  N    3.563171   2.340244   2.723184   2.352104   3.730054
    11  C    2.366098   1.442215   2.482463   2.864656   4.355058
    12  S    3.020011   2.760701   4.027123   4.515201   6.005497
    13  H    2.566182   2.125247   1.086415   2.191890   2.748674
    14  H    5.167661   3.830492   3.417136   2.167485   2.767673
    15  H    4.373060   3.254406   3.742796   3.274225   4.547669
    16  X    2.326517   2.508600   3.871093   4.656809   6.124248
    17  X    1.621322   1.512161   2.871700   3.696000   5.148154
    18  H    5.438342   5.635314   6.969832   7.524738   9.014675
    19  X    5.086037   5.516192   6.880857   7.610553   9.094217
    20  O    6.314838   6.574840   7.916162   8.481771   9.971617
    21  H    6.603477   6.873910   8.206303   8.770806  10.253510
                    6          7          8          9         10
     6  F    0.000000
     7  F    2.183809   0.000000
     8  F    2.183834   2.172670   0.000000
     9  C    2.702654   3.416807   3.416477   0.000000
    10  N    4.064221   4.546034   4.545756   1.361573   0.000000
    11  C    5.023019   5.004620   5.004549   2.462517   1.389157
    12  S    6.618222   6.622926   6.622828   3.966382   2.667332
    13  H    4.068482   2.867355   2.868068   3.397019   3.809445
    14  H    2.417382   3.734964   3.734451   1.083334   2.089251
    15  H    4.651369   5.391592   5.391203   2.062399   1.019792
    16  X    6.913450   6.638616   6.638652   4.393568   3.234466
    17  X    5.991879   5.659387   5.659461   3.577562   2.582863
    18  H    9.574934   9.601635   9.601513   6.883889   5.531737
    19  X    9.781324   9.612464   9.612435   7.138571   5.826425
    20  O   10.521421  10.552503  10.552376   7.826290   6.470336
    21  H   10.798813  10.737480  10.923242   8.116184   6.770197
                   11         12         13         14         15
    11  C    0.000000
    12  S    1.651971   0.000000
    13  H    3.454637   4.885889   0.000000
    14  H    3.396789   4.749842   4.338454   0.000000
    15  H    2.026007   2.720986   4.828927   2.353252   0.000000
    16  X    1.931064   1.000000   4.559544   5.304503   3.527188
    17  X    1.193761   1.414214   3.593232   4.562155   3.129224
    18  H    4.662498   3.010527   7.724184   7.528971   5.239513
    19  X    4.768531   3.172266   7.522004   7.890637   5.699981
    20  O    5.619698   3.967727   8.651054   8.445898   6.133915
    21  H    5.932500   4.308538   8.932633   8.726487   6.428161
                   16         17         18         19         20
    16  X    0.000000
    17  X    1.000000   0.000000
    18  H    3.172266   4.133319   0.000000
    19  X    3.010527   4.010527   1.000000   0.000000
    20  O    4.091804   5.067377   0.957200   1.384280   0.000000
    21  H    4.423064   5.383208   1.513901   1.814358   0.957200
                   21
    21  H    0.000000
 Symmetry turned off by external request.
 Stoichiometry    C6H5F4NOS
 Framework group  C1[X(C6H5F4NOS)]
 Deg. of freedom    48
 Full point group                 C1      NOp   1
 Rotational constants (GHZ):      1.8249039      0.2394637      0.2201091
 Standard basis: 6-31G(d) (6D, 7F)
 Integral buffers will be    131072 words long.
 Raffenetti 1 integral format.
 Two-electron integral symmetry is turned off.
   209 basis functions,   408 primitive gaussians,   209 cartesian basis functions
    54 alpha electrons       54 beta electrons
       nuclear repulsion energy       889.7062644843 Hartrees.
 NAtoms=   18 NActive=   18 NUniq=   18 SFac= 7.50D-01 NAtFMM=   80 NAOKFM=F Big=F
 One-electron integrals computed using PRISM.
 NBasis=   209 RedAO= T  NBF=   209
 NBsUse=   209 1.00D-06 NBFU=   209
 Initial guess read from the read-write file.
 B after Tr=     0.000000    0.000000    0.000000
         Rot=    1.000000    0.000000    0.000000    0.000000 Ang=   0.00 deg.
 Requested convergence on RMS density matrix=1.00D-08 within 128 cycles.
 Requested convergence on MAX density matrix=1.00D-06.
 Requested convergence on             energy=1.00D-06.
 No special actions if energy rises.
 SCF Done:  E(RHF) =  -1154.67471525     A.U. after    6 cycles
             Convg  =    0.6890D-08             -V/T =  2.0018
 Calling FoFJK, ICntrl=      2127 FMM=F ISym2X=0 I1Cent= 0 IOpClX= 0 NMat=1 NMatS=1 NMatT=0.
 -------------------------------------------------------------------
 Center     Atomic                   Forces (Hartrees/Bohr)
 Number     Number              X              Y              Z
 -------------------------------------------------------------------
      1        9           0.000000000    0.000000000    0.000000000
      2        6           0.000000000    0.000000000    0.000000000
      3        6           0.000000000    0.000000000    0.000000000
      4        6           0.000000000    0.000000000    0.000000000
      5        6           0.000000000    0.000000000    0.000000000
      6        9           0.000000000    0.000000000    0.000000000
      7        9           0.000000000    0.000000000    0.000000000
      8        9           0.000000000    0.000000000    0.000000000
      9        6           0.000000000    0.000000000    0.000000000
     10        7           0.000000000    0.000000000    0.000000000
     11        6           0.000000000    0.000000000    0.000000000
     12       16           0.000000000    0.000000000    0.000000000
     13        1           0.000000000    0.000000000    0.000000000
     14        1           0.000000000    0.000000000    0.000000000
     15        1           0.000000000    0.000000000    0.000000000
     16        1          -0.010207366   -0.000765198    0.001630640
     17        8           0.008074918    0.000393752   -0.011938355
     18        1           0.002024503    0.000464524    0.010545854
 -------------------------------------------------------------------
 Cartesian Forces:  Max     0.011938355 RMS     0.002824653
 -----------------------------------------------------------------------------------------------
                       Internal Coordinate Forces (Hartree/Bohr or radian)
  Cent   Atom   N1       Length/X         N2         Alpha/Y        N3         Beta/Z          J
 -----------------------------------------------------------------------------------------------
      1  F 
      2  C 
      3  C 
      4  C 
      5  C 
      6  F 
      7  F 
      8  F 
      9  C 
     10  N 
     11  C 
     12  S 
     13  H 
     14  H 
     15  H 
         X       12   0.000000(     1)     11  -0.000090(     7)      2  -0.000391(    13)     0
         X       16   0.000000(     2)     12   0.000000(     8)     11   0.000003(    14)     0
     16  H       12   0.000096(     3)     16  -0.000090(     9)     17  -0.000003(    15)     0
         X       18   0.000000(     4)     12   0.000508(    10)     16   0.000000(    16)     0
     17  O       18  -0.010130(     5)     19   0.000508(    11)     12   0.000174(    17)     0
     18  H       20  -0.010727(     6)     18   0.001167(    12)     16  -0.000391(    18)     0
 -----------------------------------------------------------------------------------------------
 Internal  Forces:  Max     0.010726763 RMS     0.003495434

 GradGradGradGradGradGradGradGradGradGradGradGradGradGradGradGradGradGrad
 Berny optimization.
 Search for a local minimum.
 Step number   2 out of a maximum of   20
 All quantities printed in internal units (Hartrees-Bohrs-Radians)
 Update second derivatives using D2CorN and points    1    2
 DE= -7.92D-07 DEPred=-4.17D-07 R= 1.90D+00
 Trust test= 1.90D+00 RLast= 7.80D-03 DXMaxT set to 3.00D-01
 The second derivative matrix:
                          RX       RDUM       ROH      ADUM      AHOH
           RX           0.00136
           RDUM         0.00000   0.00000
           ROH         -0.00001   0.00000   1.12160
           ADUM         0.00022   0.00000   0.00000   1.64000
           AHOH        -0.00009   0.00000   0.00000   0.00000   0.16000
           DDUM        -0.00007   0.00000   0.00000   0.00000   0.00000
           DH1          0.00003   0.00000   0.00000   0.00000   0.00000
           DOH2         0.00021   0.00000   0.00000   0.00000   0.00000
           DH2         -0.00004   0.00000   0.00000   0.00000   0.00000
                         DDUM       DH1      DOH2       DH2
           DDUM         0.16225
           DH1         -0.16225   0.16225
           DOH2         0.00000   0.00000   0.25351
           DH2          0.00000   0.00000   0.00000   0.00000
     Eigenvalues ---    0.001361000.000001000.000001000.000001000.00000
     Eigenvalues --- 1000.000001000.000001000.000001000.00000
 RFO step:  Lambda= 0.00000000D+00 EMin= 1.35750983D-03
 Quartic linear search produced a step of  2.00000.
 Variable       Old X    -DE/DX   Delta X   Delta X   Delta X     New X
                                 (Linear)    (Quad)   (Total)
    RX        5.68907   0.00010   0.01560   0.00000   0.01560   5.70467
   RDUM       1.88973   0.00000   0.00000   0.00000   0.00000   1.88973
   ROH        1.80885  -0.02086   0.00000   0.00000   0.00000   1.80885
   ADUM       1.57080   0.00084   0.00000   0.00000   0.00000   1.57080
   AHOH       1.82422   0.00117   0.00000   0.00000   0.00000   1.82422
   DDUM       0.00000  -0.00039   0.00000   0.00000   0.00000   0.00000
   DH1        3.14159   0.00000   0.00000   0.00000   0.00000   3.14159
   DOH2       3.14159   0.00017   0.00000   0.00000   0.00000   3.14159
   DH2        1.57080  -0.00039   0.00000   0.00000   0.00000   1.57080
         Item               Value     Threshold  Converged?
 Maximum Force            0.000096     0.000450     YES
 RMS     Force            0.000096     0.000300     YES
 Maximum Displacement     0.015598     0.001800     NO 
 RMS     Displacement     0.005199     0.001200     NO 
 Predicted change in Energy=-1.336020D-06
 GradGradGradGradGradGradGradGradGradGradGradGradGradGradGradGradGradGrad

 ---------------------------------------------------------------------------------------------------
                            Z-MATRIX (ANGSTROMS AND DEGREES)
   CD    Cent   Atom    N1       Length/X        N2       Alpha/Y        N3        Beta/Z          J
 ---------------------------------------------------------------------------------------------------
      1      1  F       -1  -1.969300          2.053680          0.000070
      2      2  C       -1  -1.222250          0.944230          0.000030
      3      3  C       -1   0.140030          1.057400         -0.000020
      4      4  C       -1   0.927950         -0.123640         -0.000080
      5      5  C       -1   2.414660         -0.018650         -0.000010
      6      6  F       -1   3.007080         -1.234610         -0.000560
      7      7  F       -1   2.858290          0.654480         -1.086020
      8      8  F       -1   2.858270          0.653500          1.086650
      9      9  C       -1   0.306540         -1.341490         -0.000090
     10     10  N       -1  -1.054170         -1.389970         -0.000060
     11     11  C       -1  -1.930500         -0.312100          0.000000
     12     12  S       -1  -3.570980         -0.506610          0.000030
     13     13  H       -1   0.596860          2.043100         -0.000020
     14     14  H       -1   0.831760         -2.288990         -0.000150
     15     15  H       -1  -1.521480         -2.296390         -0.000090
     16         X       12   1.000000(    15)     11   90.000(    34)      2    0.000(    52)      0
     17         X       16   1.000000(    16)     12   90.000(    35)     11    0.000(    53)      0
     18     16  H       12   3.018781(    17)     16   90.000(    36)     17  180.000(    54)      0
     19         X       18   1.000000(    18)     12   90.000(    37)     16    0.000(    55)      0
     20     17  O       18   0.957200(    19)     19   90.000(    38)     12  180.000(    56)      0
     21     18  H       20   0.957200(    20)     18  104.520(    39)     16   90.000(    57)      0
 ---------------------------------------------------------------------------------------------------
                         Z-Matrix orientation:                         
 ---------------------------------------------------------------------
 Center     Atomic      Atomic             Coordinates (Angstroms)
 Number     Number       Type             X           Y           Z
 ---------------------------------------------------------------------
      1          9           0       -1.969300    2.053680    0.000070
      2          6           0       -1.222250    0.944230    0.000030
      3          6           0        0.140030    1.057400   -0.000020
      4          6           0        0.927950   -0.123640   -0.000080
      5          6           0        2.414660   -0.018650   -0.000010
      6          9           0        3.007080   -1.234610   -0.000560
      7          9           0        2.858290    0.654480   -1.086020
      8          9           0        2.858270    0.653500    1.086650
      9          6           0        0.306540   -1.341490   -0.000090
     10          7           0       -1.054170   -1.389970   -0.000060
     11          6           0       -1.930500   -0.312100    0.000000
     12         16           0       -3.570980   -0.506610    0.000030
     13          1           0        0.596860    2.043100   -0.000020
     14          1           0        0.831760   -2.288990   -0.000150
     15          1           0       -1.521480   -2.296390   -0.000090
     16         -1           0       -3.688724    0.486434    0.000069
     17         -1           0       -2.695680    0.604178    0.000051
     18          1           0       -6.568763   -0.862054    0.000085
     19         -1           0       -6.686507    0.130990    0.000124
     20          8           0       -7.519304   -0.974759    0.000102
     21          1           0       -7.757643   -1.002982   -0.926521
 ---------------------------------------------------------------------
                    Distance matrix (angstroms):
                    1          2          3          4          5
     1  F    0.000000
     2  C    1.337521   0.000000
     3  C    2.332777   1.366973   0.000000
     4  C    3.624194   2.400772   1.419744   0.000000
     5  C    4.849088   3.762214   2.516312   1.490413   0.000000
     6  F    5.964663   4.757581   3.670597   2.357337   1.352598
     7  F    5.142274   4.232525   2.954772   2.347541   1.352527
     8  F    5.142625   4.232719   2.955134   2.347566   1.352555
     9  C    4.087374   2.749857   2.404662   1.367227   2.488790
    10  N    3.563171   2.340244   2.723184   2.352104   3.730054
    11  C    2.366098   1.442215   2.482463   2.864656   4.355058
    12  S    3.020011   2.760701   4.027123   4.515201   6.005497
    13  H    2.566182   2.125247   1.086415   2.191890   2.748674
    14  H    5.167661   3.830492   3.417136   2.167485   2.767673
    15  H    4.373060   3.254406   3.742796   3.274225   4.547669
    16  X    2.326517   2.508600   3.871093   4.656809   6.124248
    17  X    1.621322   1.512161   2.871700   3.696000   5.148154
    18  H    5.445784   5.643391   6.977980   7.532991   9.022927
    19  X    5.093994   5.524442   6.889110   7.618713   9.102397
    20  O    6.322499   6.582964   7.924334   8.490024   9.979869
    21  H    6.611102   6.881969   8.214427   8.779013  10.261729
                    6          7          8          9         10
     6  F    0.000000
     7  F    2.183809   0.000000
     8  F    2.183834   2.172670   0.000000
     9  C    2.702654   3.416807   3.416477   0.000000
    10  N    4.064221   4.546034   4.545756   1.361573   0.000000
    11  C    5.023019   5.004620   5.004549   2.462517   1.389157
    12  S    6.618222   6.622926   6.622828   3.966382   2.667332
    13  H    4.068482   2.867355   2.868068   3.397019   3.809445
    14  H    2.417382   3.734964   3.734451   1.083334   2.089251
    15  H    4.651369   5.391592   5.391203   2.062399   1.019792
    16  X    6.913450   6.638616   6.638652   4.393568   3.234466
    17  X    5.991879   5.659387   5.659461   3.577562   2.582863
    18  H    9.583087   9.609829   9.609707   6.891999   5.539804
    19  X    9.789305   9.620649   9.620619   7.146391   5.834084
    20  O   10.529591  10.560708  10.560580   7.834432   6.478454
    21  H   10.806957  10.745727  10.931349   8.124279   6.778248
                   11         12         13         14         15
    11  C    0.000000
    12  S    1.651971   0.000000
    13  H    3.454637   4.885889   0.000000
    14  H    3.396789   4.749842   4.338454   0.000000
    15  H    2.026007   2.720986   4.828927   2.353252   0.000000
    16  X    1.931064   1.000000   4.559544   5.304503   3.527188
    17  X    1.193761   1.414214   3.593232   4.562155   3.129224
    18  H    4.670753   3.018781   7.732145   7.536835   5.247131
    19  X    4.776602   3.180101   7.530179   7.898141   5.706985
    20  O    5.627953   3.975981   8.659076   8.453844   6.141710
    21  H    5.940653   4.316599   8.940623   8.734405   6.435908
                   16         17         18         19         20
    16  X    0.000000
    17  X    1.000000   0.000000
    18  H    3.180101   4.141329   0.000000
    19  X    3.018781   4.018781   1.000000   0.000000
    20  O    4.099808   5.075469   0.957200   1.384280   0.000000
    21  H    4.430917   5.391193   1.513901   1.814358   0.957200
                   21
    21  H    0.000000
 Symmetry turned off by external request.
 Stoichiometry    C6H5F4NOS
 Framework group  C1[X(C6H5F4NOS)]
 Deg. of freedom    48
 Full point group                 C1      NOp   1
 Rotational constants (GHZ):      1.8248537      0.2392307      0.2199114
 Standard basis: 6-31G(d) (6D, 7F)
 Integral buffers will be    131072 words long.
 Raffenetti 1 integral format.
 Two-electron integral symmetry is turned off.
   209 basis functions,   408 primitive gaussians,   209 cartesian basis functions
    54 alpha electrons       54 beta electrons
       nuclear repulsion energy       889.6001792904 Hartrees.
 NAtoms=   18 NActive=   18 NUniq=   18 SFac= 7.50D-01 NAtFMM=   80 NAOKFM=F Big=F
 One-electron integrals computed using PRISM.
 NBasis=   209 RedAO= T  NBF=   209
 NBsUse=   209 1.00D-06 NBFU=   209
 Initial guess read from the read-write file.
 B after Tr=     0.000000    0.000000    0.000000
         Rot=    1.000000    0.000000    0.000000    0.000000 Ang=   0.00 deg.
 Requested convergence on RMS density matrix=1.00D-08 within 128 cycles.
 Requested convergence on MAX density matrix=1.00D-06.
 Requested convergence on             energy=1.00D-06.
 No special actions if energy rises.
 SCF Done:  E(RHF) =  -1154.67471659     A.U. after    7 cycles
             Convg  =    0.5258D-08             -V/T =  2.0018
 Calling FoFJK, ICntrl=      2127 FMM=F ISym2X=0 I1Cent= 0 IOpClX= 0 NMat=1 NMatS=1 NMatT=0.
 -------------------------------------------------------------------
 Center     Atomic                   Forces (Hartrees/Bohr)
 Number     Number              X              Y              Z
 -------------------------------------------------------------------
      1        9           0.000000000    0.000000000    0.000000000
      2        6           0.000000000    0.000000000    0.000000000
      3        6           0.000000000    0.000000000    0.000000000
      4        6           0.000000000    0.000000000    0.000000000
      5        6           0.000000000    0.000000000    0.000000000
      6        9           0.000000000    0.000000000    0.000000000
      7        9           0.000000000    0.000000000    0.000000000
      8        9           0.000000000    0.000000000    0.000000000
      9        6           0.000000000    0.000000000    0.000000000
     10        7           0.000000000    0.000000000    0.000000000
     11        6           0.000000000    0.000000000    0.000000000
     12       16           0.000000000    0.000000000    0.000000000
     13        1           0.000000000    0.000000000    0.000000000
     14        1           0.000000000    0.000000000    0.000000000
     15        1           0.000000000    0.000000000    0.000000000
     16        1          -0.010187129   -0.000764268    0.001626366
     17        8           0.008076775    0.000395848   -0.011935355
     18        1           0.002022930    0.000463614    0.010545372
 -------------------------------------------------------------------
 Cartesian Forces:  Max     0.011935355 RMS     0.002823061
 -----------------------------------------------------------------------------------------------
                       Internal Coordinate Forces (Hartree/Bohr or radian)
  Cent   Atom   N1       Length/X         N2         Alpha/Y        N3         Beta/Z          J
 -----------------------------------------------------------------------------------------------
      1  F 
      2  C 
      3  C 
      4  C 
      5  C 
      6  F 
      7  F 
      8  F 
      9  C 
     10  N 
     11  C 
     12  S 
     13  H 
     14  H 
     15  H 
         X       12   0.000000(     1)     11  -0.000092(     7)      2  -0.000390(    13)     0
         X       16   0.000000(     2)     12   0.000000(     8)     11   0.000004(    14)     0
     16  H       12   0.000076(     3)     16  -0.000092(     9)     17  -0.000004(    15)     0
         X       18   0.000000(     4)     12   0.000506(    10)     16   0.000000(    16)     0
     17  O       18  -0.010131(     5)     19   0.000506(    11)     12   0.000168(    17)     0
     18  H       20  -0.010726(     6)     18   0.001170(    12)     16  -0.000390(    18)     0
 -----------------------------------------------------------------------------------------------
 Internal  Forces:  Max     0.010725877 RMS     0.003495316

 GradGradGradGradGradGradGradGradGradGradGradGradGradGradGradGradGradGrad
 Berny optimization.
 Search for a local minimum.
 Step number   3 out of a maximum of   20
 All quantities printed in internal units (Hartrees-Bohrs-Radians)
 Update second derivatives using D2CorN and points    2    3
 DE= -1.34D-06 DEPred=-1.34D-06 R= 1.00D+00
 SS=  1.41D+00  RLast= 1.56D-02 DXNew= 5.0454D-01 4.6795D-02
 Trust test= 1.00D+00 RLast= 1.56D-02 DXMaxT set to 3.00D-01
 The second derivative matrix:
                          RX       RDUM       ROH      ADUM      AHOH
           RX           0.00132
           RDUM         0.00000   0.00000
           ROH         -0.00002   0.00000   1.12160
           ADUM         0.00032   0.00000   0.00000   1.64000
           AHOH        -0.00013   0.00000   0.00000   0.00000   0.16000
           DDUM        -0.00011   0.00000   0.00000   0.00000   0.00000
           DH1          0.00005   0.00000   0.00000   0.00000   0.00000
           DOH2         0.00032   0.00000   0.00000   0.00000   0.00000
           DH2         -0.00006   0.00000   0.00000   0.00000   0.00000
                         DDUM       DH1      DOH2       DH2
           DDUM         0.16225
           DH1         -0.16225   0.16225
           DOH2         0.00000   0.00000   0.25351
           DH2          0.00000   0.00000   0.00000   0.00000
     Eigenvalues ---    0.001321000.000001000.000001000.000001000.00000
     Eigenvalues --- 1000.000001000.000001000.000001000.00000
 RFO step:  Lambda= 0.00000000D+00 EMin= 1.32248136D-03
 Quartic linear search produced a step of  2.00000.
 Variable       Old X    -DE/DX   Delta X   Delta X   Delta X     New X
                                 (Linear)    (Quad)   (Total)
    RX        5.70467   0.00008   0.03120   0.00000   0.03120   5.73587
   RDUM       1.88973   0.00000   0.00000   0.00000   0.00000   1.88973
   ROH        1.80885  -0.02086   0.00000   0.00000   0.00000   1.80885
   ADUM       1.57080   0.00083   0.00000   0.00000   0.00000   1.57080
   AHOH       1.82422   0.00117   0.00000   0.00000   0.00000   1.82422
   DDUM       0.00000  -0.00039   0.00000   0.00000   0.00000   0.00000
   DH1        3.14159   0.00000   0.00000   0.00000   0.00000   3.14159
   DOH2       3.14159   0.00017   0.00000   0.00000   0.00000   3.14159
   DH2        1.57080  -0.00039   0.00000   0.00000   0.00000   1.57080
         Item               Value     Threshold  Converged?
 Maximum Force            0.000076     0.000450     YES
 RMS     Force            0.000076     0.000300     YES
 Maximum Displacement     0.031196     0.001800     NO 
 RMS     Displacement     0.010399     0.001200     NO 
 Predicted change in Energy=-1.715263D-06
 GradGradGradGradGradGradGradGradGradGradGradGradGradGradGradGradGradGrad

 ---------------------------------------------------------------------------------------------------
                            Z-MATRIX (ANGSTROMS AND DEGREES)
   CD    Cent   Atom    N1       Length/X        N2       Alpha/Y        N3        Beta/Z          J
 ---------------------------------------------------------------------------------------------------
      1      1  F       -1  -1.969300          2.053680          0.000070
      2      2  C       -1  -1.222250          0.944230          0.000030
      3      3  C       -1   0.140030          1.057400         -0.000020
      4      4  C       -1   0.927950         -0.123640         -0.000080
      5      5  C       -1   2.414660         -0.018650         -0.000010
      6      6  F       -1   3.007080         -1.234610         -0.000560
      7      7  F       -1   2.858290          0.654480         -1.086020
      8      8  F       -1   2.858270          0.653500          1.086650
      9      9  C       -1   0.306540         -1.341490         -0.000090
     10     10  N       -1  -1.054170         -1.389970         -0.000060
     11     11  C       -1  -1.930500         -0.312100          0.000000
     12     12  S       -1  -3.570980         -0.506610          0.000030
     13     13  H       -1   0.596860          2.043100         -0.000020
     14     14  H       -1   0.831760         -2.288990         -0.000150
     15     15  H       -1  -1.521480         -2.296390         -0.000090
     16         X       12   1.000000(    15)     11   90.000(    34)      2    0.000(    52)      0
     17         X       16   1.000000(    16)     12   90.000(    35)     11    0.000(    53)      0
     18     16  H       12   3.035290(    17)     16   90.000(    36)     17  180.000(    54)      0
     19         X       18   1.000000(    18)     12   90.000(    37)     16    0.000(    55)      0
     20     17  O       18   0.957200(    19)     19   90.000(    38)     12  180.000(    56)      0
     21     18  H       20   0.957200(    20)     18  104.520(    39)     16   90.000(    57)      0
 ---------------------------------------------------------------------------------------------------
                         Z-Matrix orientation:                         
 ---------------------------------------------------------------------
 Center     Atomic      Atomic             Coordinates (Angstroms)
 Number     Number       Type             X           Y           Z
 ---------------------------------------------------------------------
      1          9           0       -1.969300    2.053680    0.000070
      2          6           0       -1.222250    0.944230    0.000030
      3          6           0        0.140030    1.057400   -0.000020
      4          6           0        0.927950   -0.123640   -0.000080
      5          6           0        2.414660   -0.018650   -0.000010
      6          9           0        3.007080   -1.234610   -0.000560
      7          9           0        2.858290    0.654480   -1.086020
      8          9           0        2.858270    0.653500    1.086650
      9          6           0        0.306540   -1.341490   -0.000090
     10          7           0       -1.054170   -1.389970   -0.000060
     11          6           0       -1.930500   -0.312100    0.000000
     12         16           0       -3.570980   -0.506610    0.000030
     13          1           0        0.596860    2.043100   -0.000020
     14          1           0        0.831760   -2.288990   -0.000150
     15          1           0       -1.521480   -2.296390   -0.000090
     16         -1           0       -3.688724    0.486434    0.000069
     17         -1           0       -2.695680    0.604178    0.000051
     18          1           0       -6.585156   -0.863998    0.000085
     19         -1           0       -6.702900    0.129046    0.000124
     20          8           0       -7.535698   -0.976702    0.000103
     21          1           0       -7.774037   -1.004926   -0.926520
 ---------------------------------------------------------------------
                    Distance matrix (angstroms):
                    1          2          3          4          5
     1  F    0.000000
     2  C    1.337521   0.000000
     3  C    2.332777   1.366973   0.000000
     4  C    3.624194   2.400772   1.419744   0.000000
     5  C    4.849088   3.762214   2.516312   1.490413   0.000000
     6  F    5.964663   4.757581   3.670597   2.357337   1.352598
     7  F    5.142274   4.232525   2.954772   2.347541   1.352527
     8  F    5.142625   4.232719   2.955134   2.347566   1.352555
     9  C    4.087374   2.749857   2.404662   1.367227   2.488790
    10  N    3.563171   2.340244   2.723184   2.352104   3.730054
    11  C    2.366098   1.442215   2.482463   2.864656   4.355058
    12  S    3.020011   2.760701   4.027123   4.515201   6.005497
    13  H    2.566182   2.125247   1.086415   2.191890   2.748674
    14  H    5.167661   3.830492   3.417136   2.167485   2.767673
    15  H    4.373060   3.254406   3.742796   3.274225   4.547669
    16  X    2.326517   2.508600   3.871093   4.656809   6.124248
    17  X    1.621322   1.512161   2.871700   3.696000   5.148154
    18  H    5.460675   5.659545   6.994276   7.549496   9.039431
    19  X    5.109911   5.540943   6.905616   7.635033   9.118757
    20  O    6.337823   6.599213   7.940678   8.506530   9.996374
    21  H    6.626357   6.898088   8.230677   8.795427  10.278166
                    6          7          8          9         10
     6  F    0.000000
     7  F    2.183809   0.000000
     8  F    2.183834   2.172670   0.000000
     9  C    2.702654   3.416807   3.416477   0.000000
    10  N    4.064221   4.546034   4.545756   1.361573   0.000000
    11  C    5.023019   5.004620   5.004549   2.462517   1.389157
    12  S    6.618222   6.622926   6.622828   3.966382   2.667332
    13  H    4.068482   2.867355   2.868068   3.397019   3.809445
    14  H    2.417382   3.734964   3.734451   1.083334   2.089251
    15  H    4.651369   5.391592   5.391203   2.062399   1.019792
    16  X    6.913450   6.638616   6.638652   4.393568   3.234466
    17  X    5.991879   5.659387   5.659461   3.577562   2.582863
    18  H    9.599393   9.626218   9.626096   6.908218   5.555939
    19  X    9.805268   9.637020   9.636990   7.162034   5.849407
    20  O   10.545932  10.577117  10.576990   7.850718   6.494690
    21  H   10.823245  10.762223  10.947565   8.140471   6.794350
                   11         12         13         14         15
    11  C    0.000000
    12  S    1.651971   0.000000
    13  H    3.454637   4.885889   0.000000
    14  H    3.396789   4.749842   4.338454   0.000000
    15  H    2.026007   2.720986   4.828927   2.353252   0.000000
    16  X    1.931064   1.000000   4.559544   5.304503   3.527188
    17  X    1.193761   1.414214   3.593232   4.562155   3.129224
    18  H    4.687261   3.035290   7.748069   7.552566   5.262373
    19  X    4.792746   3.195776   7.546529   7.913154   5.721002
    20  O    5.644461   3.992490   8.675120   8.469737   6.157304
    21  H    5.956960   4.332724   8.956605   8.750241   6.451404
                   16         17         18         19         20
    16  X    0.000000
    17  X    1.000000   0.000000
    18  H    3.195776   4.157351   0.000000
    19  X    3.035290   4.035290   1.000000   0.000000
    20  O    4.115820   5.091655   0.957200   1.384280   0.000000
    21  H    4.446628   5.407167   1.513901   1.814358   0.957200
                   21
    21  H    0.000000
 Symmetry turned off by external request.
 Stoichiometry    C6H5F4NOS
 Framework group  C1[X(C6H5F4NOS)]
 Deg. of freedom    48
 Full point group                 C1      NOp   1
 Rotational constants (GHZ):      1.8247536      0.2387652      0.2195165
 Standard basis: 6-31G(d) (6D, 7F)
 Integral buffers will be    131072 words long.
 Raffenetti 1 integral format.
 Two-electron integral symmetry is turned off.
   209 basis functions,   408 primitive gaussians,   209 cartesian basis functions
    54 alpha electrons       54 beta electrons
       nuclear repulsion energy       889.3890060568 Hartrees.
 NAtoms=   18 NActive=   18 NUniq=   18 SFac= 7.50D-01 NAtFMM=   80 NAOKFM=F Big=F
 One-electron integrals computed using PRISM.
 NBasis=   209 RedAO= T  NBF=   209
 NBsUse=   209 1.00D-06 NBFU=   209
 Initial guess read from the read-write file.
 B after Tr=     0.000000    0.000000    0.000000
         Rot=    1.000000    0.000000    0.000000    0.000000 Ang=   0.00 deg.
 Harris functional with IExCor=  205 diagonalized for initial guess.
 ExpMin= 1.17D-01 ExpMax= 2.19D+04 ExpMxC= 3.30D+03 IAcc=1 IRadAn=         1 AccDes= 0.00D+00
 HarFok:  IExCor=  205 AccDes= 0.00D+00 IRadAn=         1 IDoV= 1
 ScaDFX=  1.000000  1.000000  1.000000  1.000000
 FoFCou: FMM=F IPFlag=           0 FMFlag=      100000 FMFlg1=           0
         NFxFlg=           0 DoJE=T BraDBF=F KetDBF=T FulRan=T
         Omega=  0.000000  0.000000  1.000000  0.000000  0.000000 ICntrl=     500 IOpCl=  0
         NMat0=    1 NMatS0=    1 NMatT0=    0 NMatD0=    1 NMtDS0=    0 NMtDT0=    0
         I1Cent=           4 NGrid=           0.
 Symmetry not used in FoFCou.
 Requested convergence on RMS density matrix=1.00D-08 within 128 cycles.
 Requested convergence on MAX density matrix=1.00D-06.
 Requested convergence on             energy=1.00D-06.
 No special actions if energy rises.
 Integral accuracy reduced to 1.0D-05 until final iterations.
 Initial convergence to 1.0D-05 achieved.  Increase integral accuracy.
 SCF Done:  E(RHF) =  -1154.67471833     A.U. after    8 cycles
             Convg  =    0.6868D-08             -V/T =  2.0018
 Calling FoFJK, ICntrl=      2127 FMM=F ISym2X=0 I1Cent= 0 IOpClX= 0 NMat=1 NMatS=1 NMatT=0.
 -------------------------------------------------------------------
 Center     Atomic                   Forces (Hartrees/Bohr)
 Number     Number              X              Y              Z
 -------------------------------------------------------------------
      1        9           0.000000000    0.000000000    0.000000000
      2        6           0.000000000    0.000000000    0.000000000
      3        6           0.000000000    0.000000000    0.000000000
      4        6           0.000000000    0.000000000    0.000000000
      5        6           0.000000000    0.000000000    0.000000000
      6        9           0.000000000    0.000000000    0.000000000
      7        9           0.000000000    0.000000000    0.000000000
      8        9           0.000000000    0.000000000    0.000000000
      9        6           0.000000000    0.000000000    0.000000000
     10        7           0.000000000    0.000000000    0.000000000
     11        6           0.000000000    0.000000000    0.000000000
     12       16           0.000000000    0.000000000    0.000000000
     13        1           0.000000000    0.000000000    0.000000000
     14        1           0.000000000    0.000000000    0.000000000
     15        1           0.000000000    0.000000000    0.000000000
     16        1          -0.010148521   -0.000762619    0.001617948
     17        8           0.008080289    0.000399996   -0.011929444
     18        1           0.002019764    0.000461799    0.010544412
 -------------------------------------------------------------------
 Cartesian Forces:  Max     0.011929444 RMS     0.002820007
 -----------------------------------------------------------------------------------------------
                       Internal Coordinate Forces (Hartree/Bohr or radian)
  Cent   Atom   N1       Length/X         N2         Alpha/Y        N3         Beta/Z          J
 -----------------------------------------------------------------------------------------------
      1  F 
      2  C 
      3  C 
      4  C 
      5  C 
      6  F 
      7  F 
      8  F 
      9  C 
     10  N 
     11  C 
     12  S 
     13  H 
     14  H 
     15  H 
         X       12   0.000000(     1)     11  -0.000095(     7)      2  -0.000387(    13)     0
         X       16   0.000000(     2)     12   0.000000(     8)     11   0.000006(    14)     0
     16  H       12   0.000036(     3)     16  -0.000095(     9)     17  -0.000006(    15)     0
         X       18   0.000000(     4)     12   0.000503(    10)     16   0.000000(    16)     0
     17  O       18  -0.010131(     5)     19   0.000503(    11)     12   0.000154(    17)     0
     18  H       20  -0.010724(     6)     18   0.001175(    12)     16  -0.000387(    18)     0
 -----------------------------------------------------------------------------------------------
 Internal  Forces:  Max     0.010724107 RMS     0.003495069

 GradGradGradGradGradGradGradGradGradGradGradGradGradGradGradGradGradGrad
 Berny optimization.
 Search for a local minimum.
 Step number   4 out of a maximum of   20
 All quantities printed in internal units (Hartrees-Bohrs-Radians)
 Update second derivatives using D2CorN and points    3    4
 DE= -1.74D-06 DEPred=-1.72D-06 R= 1.01D+00
 SS=  1.41D+00  RLast= 3.12D-02 DXNew= 5.0454D-01 9.3589D-02
 Trust test= 1.01D+00 RLast= 3.12D-02 DXMaxT set to 3.00D-01
 The second derivative matrix:
                          RX       RDUM       ROH      ADUM      AHOH
           RX           0.00126
           RDUM         0.00000   0.00000
           ROH         -0.00003   0.00000   1.12160
           ADUM         0.00037   0.00000   0.00000   1.64000
           AHOH        -0.00015   0.00000   0.00000   0.00000   0.16000
           DDUM        -0.00012   0.00000   0.00000   0.00000   0.00000
           DH1          0.00005   0.00000   0.00000   0.00000   0.00000
           DOH2         0.00037   0.00000   0.00000   0.00000   0.00000
           DH2         -0.00007   0.00000   0.00000   0.00000   0.00000
                         DDUM       DH1      DOH2       DH2
           DDUM         0.16225
           DH1         -0.16225   0.16225
           DOH2         0.00000   0.00000   0.25351
           DH2          0.00000   0.00000   0.00000   0.00000
     Eigenvalues ---    0.001261000.000001000.000001000.000001000.00000
     Eigenvalues --- 1000.000001000.000001000.000001000.00000
 RFO step:  Lambda= 0.00000000D+00 EMin= 1.25504655D-03
 Quartic linear search produced a step of  0.99992.
 Variable       Old X    -DE/DX   Delta X   Delta X   Delta X     New X
                                 (Linear)    (Quad)   (Total)
    RX        5.73587   0.00004   0.03119   0.00000   0.03119   5.76706
   RDUM       1.88973   0.00000   0.00000   0.00000   0.00000   1.88973
   ROH        1.80885  -0.02086   0.00000   0.00000   0.00000   1.80885
   ADUM       1.57080   0.00082   0.00000   0.00000   0.00000   1.57080
   AHOH       1.82422   0.00117   0.00000   0.00000   0.00000   1.82422
   DDUM       0.00000  -0.00038   0.00000   0.00000   0.00000   0.00000
   DH1        3.14159  -0.00001   0.00000   0.00000   0.00000   3.14159
   DOH2       3.14159   0.00015   0.00000   0.00000   0.00000   3.14159
   DH2        1.57080  -0.00039   0.00000   0.00000   0.00000   1.57080
         Item               Value     Threshold  Converged?
 Maximum Force            0.000036     0.000450     YES
 RMS     Force            0.000036     0.000300     YES
 Maximum Displacement     0.031194     0.001800     NO 
 RMS     Displacement     0.010398     0.001200     NO 
 Predicted change in Energy=-5.266459D-07
 GradGradGradGradGradGradGradGradGradGradGradGradGradGradGradGradGradGrad

 ---------------------------------------------------------------------------------------------------
                            Z-MATRIX (ANGSTROMS AND DEGREES)
   CD    Cent   Atom    N1       Length/X        N2       Alpha/Y        N3        Beta/Z          J
 ---------------------------------------------------------------------------------------------------
      1      1  F       -1  -1.969300          2.053680          0.000070
      2      2  C       -1  -1.222250          0.944230          0.000030
      3      3  C       -1   0.140030          1.057400         -0.000020
      4      4  C       -1   0.927950         -0.123640         -0.000080
      5      5  C       -1   2.414660         -0.018650         -0.000010
      6      6  F       -1   3.007080         -1.234610         -0.000560
      7      7  F       -1   2.858290          0.654480         -1.086020
      8      8  F       -1   2.858270          0.653500          1.086650
      9      9  C       -1   0.306540         -1.341490         -0.000090
     10     10  N       -1  -1.054170         -1.389970         -0.000060
     11     11  C       -1  -1.930500         -0.312100          0.000000
     12     12  S       -1  -3.570980         -0.506610          0.000030
     13     13  H       -1   0.596860          2.043100         -0.000020
     14     14  H       -1   0.831760         -2.288990         -0.000150
     15     15  H       -1  -1.521480         -2.296390         -0.000090
     16         X       12   1.000000(    15)     11   90.000(    34)      2    0.000(    52)      0
     17         X       16   1.000000(    16)     12   90.000(    35)     11    0.000(    53)      0
     18     16  H       12   3.051797(    17)     16   90.000(    36)     17  180.000(    54)      0
     19         X       18   1.000000(    18)     12   90.000(    37)     16    0.000(    55)      0
     20     17  O       18   0.957200(    19)     19   90.000(    38)     12  180.000(    56)      0
[...]
 !       DH2        90.0      -DE/DX =   -0.0004                        !
 ------------------------------------------------------------------------
 GradGradGradGradGradGradGradGradGradGradGradGradGradGradGradGradGradGrad

 ---------------------------------------------------------------------------------------------------
                            Z-MATRIX (ANGSTROMS AND DEGREES)
   CD    Cent   Atom    N1       Length/X        N2       Alpha/Y        N3        Beta/Z          J
 ---------------------------------------------------------------------------------------------------
      1      1  F       -1  -1.969300          2.053680          0.000070
      2      2  C       -1  -1.222250          0.944230          0.000030
      3      3  C       -1   0.140030          1.057400         -0.000020
      4      4  C       -1   0.927950         -0.123640         -0.000080
      5      5  C       -1   2.414660         -0.018650         -0.000010
      6      6  F       -1   3.007080         -1.234610         -0.000560
      7      7  F       -1   2.858290          0.654480         -1.086020
      8      8  F       -1   2.858270          0.653500          1.086650
      9      9  C       -1   0.306540         -1.341490         -0.000090
     10     10  N       -1  -1.054170         -1.389970         -0.000060
     11     11  C       -1  -1.930500         -0.312100          0.000000
     12     12  S       -1  -3.570980         -0.506610          0.000030
     13     13  H       -1   0.596860          2.043100         -0.000020
     14     14  H       -1   0.831760         -2.288990         -0.000150
     15     15  H       -1  -1.521480         -2.296390         -0.000090
     16         X       12   1.000000(    15)     11   90.000(    34)      2    0.000(    52)      0
     17         X       16   1.000000(    16)     12   90.000(    35)     11    0.000(    53)      0
     18     16  H       12   3.051797(    17)     16   90.000(    36)     17  180.000(    54)      0
     19         X       18   1.000000(    18)     12   90.000(    37)     16    0.000(    55)      0
     20     17  O       18   0.957200(    19)     19   90.000(    38)     12  180.000(    56)      0
     21     18  H       20   0.957200(    20)     18  104.520(    39)     16   90.000(    57)      0
 ---------------------------------------------------------------------------------------------------
                         Z-Matrix orientation:                         
 ---------------------------------------------------------------------
 Center     Atomic      Atomic             Coordinates (Angstroms)
 Number     Number       Type             X           Y           Z
 ---------------------------------------------------------------------
      1          9           0       -1.969300    2.053680    0.000070
      2          6           0       -1.222250    0.944230    0.000030
      3          6           0        0.140030    1.057400   -0.000020
      4          6           0        0.927950   -0.123640   -0.000080
      5          6           0        2.414660   -0.018650   -0.000010
      6          9           0        3.007080   -1.234610   -0.000560
      7          9           0        2.858290    0.654480   -1.086020
      8          9           0        2.858270    0.653500    1.086650
      9          6           0        0.306540   -1.341490   -0.000090
     10          7           0       -1.054170   -1.389970   -0.000060
     11          6           0       -1.930500   -0.312100    0.000000
     12         16           0       -3.570980   -0.506610    0.000030
     13          1           0        0.596860    2.043100   -0.000020
     14          1           0        0.831760   -2.288990   -0.000150
     15          1           0       -1.521480   -2.296390   -0.000090
     16         -1           0       -3.688724    0.486434    0.000069
     17         -1           0       -2.695680    0.604178    0.000051
     18          1           0       -6.601549   -0.865941    0.000085
     19         -1           0       -6.719293    0.127103    0.000124
     20          8           0       -7.552090   -0.978646    0.000103
     21          1           0       -7.790429   -1.006869   -0.926520
 ---------------------------------------------------------------------
                    Distance matrix (angstroms):
                    1          2          3          4          5
     1  F    0.000000
     2  C    1.337521   0.000000
     3  C    2.332777   1.366973   0.000000
     4  C    3.624194   2.400772   1.419744   0.000000
     5  C    4.849088   3.762214   2.516312   1.490413   0.000000
     6  F    5.964663   4.757581   3.670597   2.357337   1.352598
     7  F    5.142274   4.232525   2.954772   2.347541   1.352527
     8  F    5.142625   4.232719   2.955134   2.347566   1.352555
     9  C    4.087374   2.749857   2.404662   1.367227   2.488790
    10  N    3.563171   2.340244   2.723184   2.352104   3.730054
    11  C    2.366098   1.442215   2.482463   2.864656   4.355058
    12  S    3.020011   2.760701   4.027123   4.515201   6.005497
    13  H    2.566182   2.125247   1.086415   2.191890   2.748674
    14  H    5.167661   3.830492   3.417136   2.167485   2.767673
    15  H    4.373060   3.254406   3.742796   3.274225   4.547669
    16  X    2.326517   2.508600   3.871093   4.656809   6.124248
    17  X    1.621322   1.512161   2.871700   3.696000   5.148154
    18  H    5.475574   5.675700   7.010572   7.566000   9.055933
    19  X    5.125830   5.557443   6.922121   7.651352   9.135116
    20  O    6.353153   6.615461   7.957022   8.523035  10.012877
    21  H    6.641617   6.914207   8.246926   8.811840  10.294603
                    6          7          8          9         10
     6  F    0.000000
     7  F    2.183809   0.000000
     8  F    2.183834   2.172670   0.000000
     9  C    2.702654   3.416807   3.416477   0.000000
    10  N    4.064221   4.546034   4.545756   1.361573   0.000000
    11  C    5.023019   5.004620   5.004549   2.462517   1.389157
    12  S    6.618222   6.622926   6.622828   3.966382   2.667332
    13  H    4.068482   2.867355   2.868068   3.397019   3.809445
    14  H    2.417382   3.734964   3.734451   1.083334   2.089251
    15  H    4.651369   5.391592   5.391203   2.062399   1.019792
    16  X    6.913450   6.638616   6.638652   4.393568   3.234466
    17  X    5.991879   5.659387   5.659461   3.577562   2.582863
    18  H    9.615699   9.642606   9.642484   6.924438   5.572075
    19  X    9.821232   9.653389   9.653359   7.177680   5.864736
    20  O   10.562272  10.593525  10.593398   7.867002   6.510926
    21  H   10.839533  10.778717  10.963780   8.156663   6.810454
                   11         12         13         14         15
    11  C    0.000000
    12  S    1.651971   0.000000
    13  H    3.454637   4.885889   0.000000
    14  H    3.396789   4.749842   4.338454   0.000000
    15  H    2.026007   2.720986   4.828927   2.353252   0.000000
    16  X    1.931064   1.000000   4.559544   5.304503   3.527188
    17  X    1.193761   1.414214   3.593232   4.562155   3.129224
    18  H    4.703768   3.051797   7.763994   7.568299   5.277621
    19  X    4.808891   3.211458   7.562879   7.928171   5.735030
    20  O    5.660968   4.008997   8.691164   8.485632   6.172901
    21  H    5.973267   4.348851   8.972588   8.766079   6.466905
                   16         17         18         19         20
    16  X    0.000000
    17  X    1.000000   0.000000
    18  H    3.211458   4.173375   0.000000
    19  X    3.051797   4.051797   1.000000   0.000000
    20  O    4.131835   5.107842   0.957200   1.384280   0.000000
    21  H    4.462343   5.423142   1.513901   1.814358   0.957200
                   21
    21  H    0.000000
 Symmetry turned off by external request.
 Stoichiometry    C6H5F4NOS
 Framework group  C1[X(C6H5F4NOS)]
 Deg. of freedom    48
 Full point group                 C1      NOp   1
 Rotational constants (GHZ):      1.8246538      0.2383005      0.2191222

 **********************************************************************

            Population analysis using the SCF density.

 **********************************************************************

 Alpha  occ. eigenvalues --  -91.91103 -26.37062 -26.36123 -26.36109 -26.33839
 Alpha  occ. eigenvalues --  -20.54269 -15.69306 -11.54441 -11.38530 -11.37629
 Alpha  occ. eigenvalues --  -11.36547 -11.31709 -11.30771  -8.92220  -6.60561
 Alpha  occ. eigenvalues --   -6.60280  -6.60160  -1.74302  -1.65305  -1.65092
 Alpha  occ. eigenvalues --   -1.64610  -1.36068  -1.32430  -1.17552  -1.12569
 Alpha  occ. eigenvalues --   -1.03410  -0.97594  -0.93007  -0.88778  -0.85179
 Alpha  occ. eigenvalues --   -0.83938  -0.83535  -0.77399  -0.76253  -0.74240
 Alpha  occ. eigenvalues --   -0.72478  -0.71842  -0.71693  -0.70686  -0.68956
 Alpha  occ. eigenvalues --   -0.67720  -0.67715  -0.66290  -0.64382  -0.62989
 Alpha  occ. eigenvalues --   -0.61158  -0.59780  -0.55471  -0.53338  -0.48063
 Alpha  occ. eigenvalues --   -0.46970  -0.43774  -0.34833  -0.31619
 Alpha virt. eigenvalues --    0.03949   0.08298   0.16827   0.20130   0.24165
 Alpha virt. eigenvalues --    0.25342   0.26119   0.27207   0.29692   0.33329
 Alpha virt. eigenvalues --    0.34259   0.37066   0.39642   0.40424   0.42521
 Alpha virt. eigenvalues --    0.43126   0.47682   0.49165   0.53813   0.55931
 Alpha virt. eigenvalues --    0.56539   0.59740   0.63327   0.65389   0.66482
 Alpha virt. eigenvalues --    0.68310   0.72171   0.72726   0.73358   0.75047
 Alpha virt. eigenvalues --    0.76809   0.77518   0.82707   0.83977   0.87041
 Alpha virt. eigenvalues --    0.88723   0.89657   0.91871   0.95928   0.99229
 Alpha virt. eigenvalues --    1.01879   1.02511   1.04143   1.05501   1.07612
 Alpha virt. eigenvalues --    1.08497   1.09742   1.13139   1.14565   1.15387
 Alpha virt. eigenvalues --    1.17511   1.17860   1.18513   1.20171   1.24088
 Alpha virt. eigenvalues --    1.27916   1.30794   1.31521   1.33113   1.34127
 Alpha virt. eigenvalues --    1.34653   1.38796   1.41221   1.41702   1.42265
 Alpha virt. eigenvalues --    1.46237   1.47043   1.51615   1.58927   1.60465
 Alpha virt. eigenvalues --    1.61555   1.62146   1.63444   1.64034   1.64103
 Alpha virt. eigenvalues --    1.65313   1.66191   1.67134   1.69219   1.70196
 Alpha virt. eigenvalues --    1.72925   1.75641   1.76317   1.80870   1.86176
 Alpha virt. eigenvalues --    1.89560   1.92243   1.93322   1.99934   2.03742
 Alpha virt. eigenvalues --    2.03958   2.05088   2.05780   2.08478   2.09190
 Alpha virt. eigenvalues --    2.09667   2.12197   2.12445   2.17626   2.20304
 Alpha virt. eigenvalues --    2.22288   2.22300   2.24270   2.28309   2.29298
 Alpha virt. eigenvalues --    2.30291   2.32325   2.33284   2.34667   2.35833
 Alpha virt. eigenvalues --    2.37445   2.38867   2.42916   2.44856   2.45132
 Alpha virt. eigenvalues --    2.46825   2.51764   2.60534   2.61459   2.64980
 Alpha virt. eigenvalues --    2.65082   2.68118   2.74906   2.82333   2.84117
 Alpha virt. eigenvalues --    2.84119   2.91087   2.92638   2.92858   2.96513
 Alpha virt. eigenvalues --    3.00016   3.07145   3.09140   3.17022   3.21685
 Alpha virt. eigenvalues --    3.29237   3.37235   3.38190   3.42507   3.44268
 Alpha virt. eigenvalues --    3.48937   3.70745   4.05936   4.35870   4.40162
 Alpha virt. eigenvalues --    4.44855   4.47968   4.59929   4.64185   4.68516
 Alpha virt. eigenvalues --    4.82115   5.01200   5.15269   5.57145   6.01611
          Condensed to atoms (all electrons):
              1          2          3          4          5          6
     1  F    9.158922   0.267489  -0.033513   0.002208  -0.000015   0.000000
     2  C    0.267489   4.568091   0.568773  -0.026475   0.000849  -0.000019
     3  C   -0.033513   0.568773   5.061101   0.357467  -0.011847   0.002196
     4  C    0.002208  -0.026475   0.357467   5.203502   0.414570  -0.045489
     5  C   -0.000015   0.000849  -0.011847   0.414570   3.548036   0.289572
     6  F    0.000000  -0.000019   0.002196  -0.045489   0.289572   9.187508
     7  F    0.000000   0.000293   0.004970  -0.055050   0.285049  -0.030787
     8  F    0.000000   0.000292   0.004964  -0.055059   0.285185  -0.030791
     9  C    0.000132  -0.022862  -0.055202   0.591089  -0.020840   0.005556
    10  N    0.001382  -0.051309  -0.021540  -0.035258   0.001212   0.000241
    11  C   -0.040980   0.388153  -0.078712  -0.001647   0.000077   0.000002
    12  S    0.003934  -0.082469   0.001836  -0.000105   0.000006   0.000000
    13  H   -0.000279  -0.017563   0.368324  -0.029674  -0.000278   0.000035
    14  H    0.000000  -0.000104   0.001799  -0.022327  -0.000136   0.005062
    15  H   -0.000018   0.003682  -0.000550   0.002316  -0.000015   0.000001
    16  H    0.000000   0.000000   0.000000   0.000000   0.000000   0.000000
    17  O    0.000000   0.000000   0.000000   0.000000   0.000000   0.000000
    18  H    0.000000   0.000000   0.000000   0.000000   0.000000   0.000000
              7          8          9         10         11         12
     1  F    0.000000   0.000000   0.000132   0.001382  -0.040980   0.003934
     2  C    0.000293   0.000292  -0.022862  -0.051309   0.388153  -0.082469
     3  C    0.004970   0.004964  -0.055202  -0.021540  -0.078712   0.001836
     4  C   -0.055050  -0.055059   0.591089  -0.035258  -0.001647  -0.000105
     5  C    0.285049   0.285185  -0.020840   0.001212   0.000077   0.000006
     6  F   -0.030787  -0.030791   0.005556   0.000241   0.000002   0.000000
     7  F    9.200660  -0.033964   0.000537  -0.000006  -0.000002   0.000000
     8  F   -0.033964   9.200324   0.000534  -0.000006  -0.000002   0.000000
     9  C    0.000537   0.000534   4.737868   0.265372  -0.039262   0.003525
    10  N   -0.000006  -0.000006   0.265372   7.223522   0.220891  -0.104048
    11  C   -0.000002  -0.000002  -0.039262   0.220891   4.938543   0.445889
    12  S    0.000000   0.000000   0.003525  -0.104048   0.445889  15.961582
    13  H    0.000910   0.000906   0.002425  -0.000263   0.002615  -0.000058
    14  H    0.000084   0.000084   0.379592  -0.032005   0.000980  -0.000131
    15  H    0.000000   0.000000  -0.021322   0.310433  -0.017991   0.013211
    16  H    0.000000   0.000000   0.000000   0.000000  -0.000022   0.003490
    17  O    0.000000   0.000000   0.000000   0.000000   0.000003   0.000545
    18  H    0.000000   0.000000   0.000000   0.000000   0.000000   0.000036
             13         14         15         16         17         18
     1  F   -0.000279   0.000000  -0.000018   0.000000   0.000000   0.000000
     2  C   -0.017563  -0.000104   0.003682   0.000000   0.000000   0.000000
     3  C    0.368324   0.001799  -0.000550   0.000000   0.000000   0.000000
     4  C   -0.029674  -0.022327   0.002316   0.000000   0.000000   0.000000
     5  C   -0.000278  -0.000136  -0.000015   0.000000   0.000000   0.000000
     6  F    0.000035   0.005062   0.000001   0.000000   0.000000   0.000000
     7  F    0.000910   0.000084   0.000000   0.000000   0.000000   0.000000
     8  F    0.000906   0.000084   0.000000   0.000000   0.000000   0.000000
     9  C    0.002425   0.379592  -0.021322   0.000000   0.000000   0.000000
    10  N   -0.000263  -0.032005   0.310433   0.000000   0.000000   0.000000
    11  C    0.002615   0.000980  -0.017991  -0.000022   0.000003   0.000000
    12  S   -0.000058  -0.000131   0.013211   0.003490   0.000545   0.000036
    13  H    0.389881  -0.000061   0.000008   0.000000   0.000000   0.000000
    14  H   -0.000061   0.379141  -0.002087   0.000000   0.000000   0.000000
    15  H    0.000008  -0.002087   0.269015   0.000001   0.000000   0.000000
    16  H    0.000000   0.000000   0.000001   0.297691   0.262888  -0.018397
    17  O    0.000000   0.000000   0.000000   0.262888   8.353881   0.265379
    18  H    0.000000   0.000000   0.000000  -0.018397   0.265379   0.323693
 Mulliken atomic charges:
              1
     1  F   -0.359264
     2  C    0.403177
     3  C   -0.170067
     4  C   -0.300068
     5  C    1.208571
     6  F   -0.383085
     7  F   -0.372695
     8  F   -0.372468
     9  C    0.172858
    10  N   -0.778617
    11  C    0.181463
    12  S   -0.247242
    13  H    0.283071
    14  H    0.290108
    15  H    0.443318
    16  H    0.454348
    17  O   -0.882697
    18  H    0.429289
 Sum of Mulliken atomic charges =   0.00000
 Mulliken charges with hydrogens summed into heavy atoms:
              1
     1  F   -0.359264
     2  C    0.403177
     3  C    0.113005
     4  C   -0.300068
     5  C    1.208571
     6  F   -0.383085
     7  F   -0.372695
     8  F   -0.372468
     9  C    0.462965
    10  N   -0.335299
    11  C    0.181463
    12  S   -0.247242
    17  O    0.000940
 Sum of Mulliken charges with hydrogens summed into heavy atoms =   0.00000
 Electronic spatial extent (au):  <R**2>=           4699.7609
 Charge=              0.0000 electrons
 Dipole moment (field-independent basis, Debye):
    X=              5.4247    Y=             -2.4066    Z=             -1.7116  Tot=              6.1765
 Quadrupole moment (field-independent basis, Debye-Ang):
   XX=           -126.7303   YY=            -72.0647   ZZ=            -80.2718
   XY=             -0.6698   XZ=             13.7452   YZ=              1.7743
 Traceless Quadrupole moment (field-independent basis, Debye-Ang):
   XX=            -33.7080   YY=             20.9576   ZZ=             12.7504
   XY=             -0.6698   XZ=             13.7452   YZ=              1.7743
 Octapole moment (field-independent basis, Debye-Ang**2):
  XXX=            460.4452  YYY=             13.1501  ZZZ=             -0.4363  XYY=             80.2142
  XXY=             35.8968  XXZ=           -108.7023  XZZ=             54.0663  YZZ=              9.2929
  YYZ=             -1.4149  XYZ=            -14.0806
 Hexadecapole moment (field-independent basis, Debye-Ang**3):
 XXXX=          -6764.8678 YYYY=           -492.5897 ZZZZ=           -143.1927 XXXY=           -411.1922
 XXXZ=            854.7449 YYYX=           -165.6106 YYYZ=              0.7360 ZZZX=              3.8883
 ZZZY=              0.4929 XXYY=           -957.4122 XXZZ=           -719.9125 YYZZ=           -117.3978
 XXYZ=            111.0630 YYXZ=             11.4971 ZZXY=            -52.0833
 N-N= 8.891791668430D+02 E-N=-4.516019293998D+03  KE= 1.152545042710D+03
 1\1\GINC-B1\FOpt\RHF\6-31G(d)\C6H5F4N1O1S1\ANA\24-Sep-2021\1\\#HF/6-31
 G* Opt=Z-matrix NoSymm\\water interaction with atom S12\\0,1\F,-1,-1.9
 693,2.05368,0.00007\C,-1,-1.22225,0.94423,0.00003\C,-1,0.14003,1.0574,
 -0.00002\C,-1,0.92795,-0.12364,-0.00008\C,-1,2.41466,-0.01865,-0.00001
 \F,-1,3.00708,-1.23461,-0.00056\F,-1,2.85829,0.65448,-1.08602\F,-1,2.8
 5827,0.6535,1.08665\C,-1,0.30654,-1.34149,-0.00009\N,-1,-1.05417,-1.38
 997,-0.00006\C,-1,-1.9305,-0.3121,0.\S,-1,-3.57098,-0.50661,0.00003\H,
 -1,0.59686,2.0431,-0.00002\H,-1,0.83176,-2.28899,-0.00015\H,-1,-1.5214
 8,-2.29639,-0.00009\X,12,RDUM,11,ADUM,2,DDUM,0\X,16,RDUM,12,ADUM,11,DD
 UM,0\H,12,RX,16,ADUM,17,DH1,0\X,18,RDUM,12,ADUM,16,DDUM,0\O,18,ROH,19,
 ADUM,12,DOH2,0\H,20,ROH,18,AHOH,16,DH2,0\\RX=3.05179703\RDUM=1.\ROH=0.
 9572\ADUM=90.\AHOH=104.52\DDUM=0.\DH1=180.\DOH2=180.\DH2=90.\\Version=
 EM64L-G09RevA.01\HF=-1154.6747189\RMSD=6.785e-09\RMSF=2.817e-03\Dipole
 =2.1342538,-0.9468222,-0.6733772\Quadrupole=-25.0611,15.5814649,9.4796
 351,-0.4979585,10.2191903,1.3191153\PG=C01 [X(C6H5F4N1O1S1)]\\@


 IT IS IMPOSSIBLE TO MEDITATE ON TIME AND THE MYSTERY 
 OF NATURE WITHOUT AN OVERWHELMING EMOTION AT THE
 LIMITATIONS OF HUMAN INTELLIGENCE.

                                         -- ALFRED NORTH WHITEHEAD
 Job cpu time:  0 days  0 hours  4 minutes  7.4 seconds.
 File lengths (MBytes):  RWF=     33 Int=      0 D2E=      0 Chk=      3 Scr=      1
 Normal termination of Gaussian 09 at Fri Sep 24 08:21:43 2021.
