 Entering Gaussian System, Link 0=g09
 Initial command:
 /home/ana/programs/g09/l1.exe /home/ana/programs/g09/scratch/Gau-705356.inp -scrdir=/home/ana/programs/g09/scratch/
 Entering Link 1 = /home/ana/programs/g09/l1.exe PID=    705358.
  
 Copyright (c) 1988,1990,1992,1993,1995,1998,2003,2009, Gaussian, Inc.
                  All Rights Reserved.
  
 This is part of the Gaussian(R) 09 program.  It is based on
 the Gaussian(R) 03 system (copyright 2003, Gaussian, Inc.),
 the Gaussian(R) 98 system (copyright 1998, Gaussian, Inc.),
 the Gaussian(R) 94 system (copyright 1995, Gaussian, Inc.),
 the Gaussian 92(TM) system (copyright 1992, Gaussian, Inc.),
 the Gaussian 90(TM) system (copyright 1990, Gaussian, Inc.),
 the Gaussian 88(TM) system (copyright 1988, Gaussian, Inc.),
 the Gaussian 86(TM) system (copyright 1986, Carnegie Mellon
 University), and the Gaussian 82(TM) system (copyright 1983,
 Carnegie Mellon University). Gaussian is a federally registered
 trademark of Gaussian, Inc.
  
 This software contains proprietary and confidential information,
 including trade secrets, belonging to Gaussian, Inc.
  
 This software is provided under written license and may be
 used, copied, transmitted, or stored only in accord with that
 written license.
  
 The following legend is applicable only to US Government
 contracts under FAR:
  
                    RESTRICTED RIGHTS LEGEND
  
 Use, reproduction and disclosure by the US Government is
 subject to restrictions as set forth in subparagraphs (a)
 and (c) of the Commercial Computer Software - Restricted
 Rights clause in FAR 52.227-19.
  
 Gaussian, Inc.
 340 Quinnipiac St., Bldg. 40, Wallingford CT 06492
  
  
 ---------------------------------------------------------------
 Warning -- This program may not be used in any manner that
 competes with the business of Gaussian, Inc. or will provide
 assistance to any competitor of Gaussian, Inc.  The licensee
 of this program is prohibited from giving any competitor of
 Gaussian, Inc. access to this program.  By using this program,
 the user acknowledges that Gaussian, Inc. is engaged in the
 business of creating and licensing software in the field of
 computational chemistry and represents and warrants to the
 licensee that it is not a competitor of Gaussian, Inc. and that
 it will not use this program in any manner prohibited above.
 ---------------------------------------------------------------
  

 Cite this work as:
 Gaussian 09, Revision A.01,
 M. J. Frisch, G. W. Trucks, H. B. Schlegel, G. E. Scuseria, 
 M. A. Robb, J. R. Cheeseman, G. Scalmani, V. Barone, B. Mennucci, 
 G. A. Petersson, H. Nakatsuji, M. Caricato, X. Li, H. P. Hratchian, 
 A. F. Izmaylov, J. Bloino, G. Zheng, J. L. Sonnenberg, M. Hada, 
 M. Ehara, K. Toyota, R. Fukuda, J. Hasegawa, M. Ishida, T. Nakajima, 
 Y. Honda, O. Kitao, H. Nakai, T. Vreven, J. A. Montgomery, Jr., 
 J. E. Peralta, F. Ogliaro, M. Bearpark, J. J. Heyd, E. Brothers, 
 K. N. Kudin, V. N. Staroverov, R. Kobayashi, J. Normand, 
 K. Raghavachari, A. Rendell, J. C. Burant, S. S. Iyengar, J. Tomasi, 
 M. Cossi, N. Rega, J. M. Millam, M. Klene, J. E. Knox, J. B. Cross, 
 V. Bakken, C. Adamo, J. Jaramillo, R. Gomperts, R. E. Stratmann, 
 O. Yazyev, A. J. Austin, R. Cammi, C. Pomelli, J. W. Ochterski, 
 R. L. Martin, K. Morokuma, V. G. Zakrzewski, G. A. Voth, 
 P. Salvador, J. J. Dannenberg, S. Dapprich, A. D. Daniels, 
 O. Farkas, J. B. Foresman, J. V. Ortiz, J. Cioslowski, 
 and D. J. Fox, Gaussian, Inc., Wallingford CT, 2009.
 
 ******************************************
 Gaussian 09:  EM64L-G09RevA.01  8-May-2009
                24-Sep-2021 
 ******************************************
 %NPROC=4
 Will use up to    4 processors via shared memory.
 %NoSave
 ------------------------------
 #HF/6-31G* Opt=Z-matrix NoSymm
 ------------------------------
 1/10=7,18=40,38=1/1,3;
 2/12=2,15=1,17=6,18=5,29=3,40=1/2;
 3/5=1,6=6,7=1,11=9,16=1,25=1,30=1,71=1/1,2,3;
 4//1;
 5/5=2,38=5/2;
 6/7=2,8=2,9=2,10=2,28=1/1;
 7/29=1,30=1/1,2,3,16;
 1/10=7,18=40/3(2);
 2/15=1,29=3/2;
 99//99;
 2/15=1,29=3/2;
 3/5=1,6=6,7=1,11=9,16=1,25=1,30=1,71=1/1,2,3;
 4/5=5,16=3/1;
 5/5=2,38=5/2;
 7/30=1/1,2,3,16;
 1/18=40/3(-5);
 2/15=1,29=3/2;
 6/7=2,8=2,9=2,10=2,19=2,28=1/1;
 99/9=1/99;
 -------------------------------
 water interaction with atom S12
 -------------------------------
 Symbolic Z-matrix:
 Charge =  0 Multiplicity = 1
 9                    -1   -1.9693    2.05368   0.00007 
 6                    -1   -1.22225   0.94423   0.00003 
 6                    -1    0.14003   1.0574   -0.00002 
 6                    -1    0.92795  -0.12364  -0.00008 
 6                    -1    2.41466  -0.01865  -0.00001 
 9                    -1    3.00708  -1.23461  -0.00056 
 9                    -1    2.85829   0.65448  -1.08602 
 9                    -1    2.85827   0.6535    1.08665 
 6                    -1    0.30654  -1.34149  -0.00009 
 7                    -1   -1.05417  -1.38997  -0.00006 
 6                    -1   -1.9305   -0.3121    0. 
 16                   -1   -3.57098  -0.50661   0.00003 
 1                    -1    0.59686   2.0431   -0.00002 
 1                    -1    0.83176  -2.28899  -0.00015 
 1                    -1   -1.52148  -2.29639  -0.00009 
 X                    12   RDUM     11   ADUM     2    DDUM     0
 X                    16   RDUM     12   ADUM     11   DDUM     0
 H1                   12   RX       16   ADUM     17   DH1      0
 X                    18   RDUM     12   ADUM     16   DDUM     0
 OH2                  18   ROH      19   ADUM     12   DOH2     0
 H2                   20   ROH      18   AHOH     16   DH2      0
       Variables:
  RX                    3.2094                   
       Constants:
  RDUM                  1.                       
  ROH                   0.9572                   
  ADUM                 90.                       
  AHOH                104.52                     
  DDUM                  0.                       
  DH1                 180.                       
  DOH2                180.                       
  DH2                   0.                       
 

 GradGradGradGradGradGradGradGradGradGradGradGradGradGradGradGradGradGrad
 Berny optimization.
 Initialization pass.
                       ----------------------------
                       !    Initial Parameters    !
                       ! (Angstroms and Degrees)  !
 ----------------------                            ----------------------
 !      Name          Value   Derivative information (Atomic Units)     !
 ------------------------------------------------------------------------
 !       RX          3.2094   estimate D2E/DX2                          !
 !      RDUM         1.0      Frozen                                    !
 !       ROH         0.9572   Frozen                                    !
 !      ADUM        90.0      Frozen                                    !
 !      AHOH       104.52     Frozen                                    !
 !      DDUM         0.0      Frozen                                    !
 !       DH1       180.0      Frozen                                    !
 !      DOH2       180.0      Frozen                                    !
 !       DH2         0.0      Frozen                                    !
 ------------------------------------------------------------------------
 Trust Radius=3.00D-01 FncErr=1.00D-07 GrdErr=1.00D-07
 Number of steps in this run=  20 maximum allowed number of steps= 100.
 GradGradGradGradGradGradGradGradGradGradGradGradGradGradGradGradGradGrad

 ---------------------------------------------------------------------------------------------------
                            Z-MATRIX (ANGSTROMS AND DEGREES)
   CD    Cent   Atom    N1       Length/X        N2       Alpha/Y        N3        Beta/Z          J
 ---------------------------------------------------------------------------------------------------
      1      1  F       -1  -1.969300          2.053680          0.000070
      2      2  C       -1  -1.222250          0.944230          0.000030
      3      3  C       -1   0.140030          1.057400         -0.000020
      4      4  C       -1   0.927950         -0.123640         -0.000080
      5      5  C       -1   2.414660         -0.018650         -0.000010
      6      6  F       -1   3.007080         -1.234610         -0.000560
      7      7  F       -1   2.858290          0.654480         -1.086020
      8      8  F       -1   2.858270          0.653500          1.086650
      9      9  C       -1   0.306540         -1.341490         -0.000090
     10     10  N       -1  -1.054170         -1.389970         -0.000060
     11     11  C       -1  -1.930500         -0.312100          0.000000
     12     12  S       -1  -3.570980         -0.506610          0.000030
     13     13  H       -1   0.596860          2.043100         -0.000020
     14     14  H       -1   0.831760         -2.288990         -0.000150
     15     15  H       -1  -1.521480         -2.296390         -0.000090
     16         X       12   1.000000(    15)     11   90.000(    34)      2    0.000(    52)      0
     17         X       16   1.000000(    16)     12   90.000(    35)     11    0.000(    53)      0
     18     16  H       12   3.209400(    17)     16   90.000(    36)     17  180.000(    54)      0
     19         X       18   1.000000(    18)     12   90.000(    37)     16    0.000(    55)      0
     20     17  O       18   0.957200(    19)     19   90.000(    38)     12  180.000(    56)      0
     21     18  H       20   0.957200(    20)     18  104.520(    39)     16    0.000(    57)      0
 ---------------------------------------------------------------------------------------------------
                         Z-Matrix orientation:                         
 ---------------------------------------------------------------------
 Center     Atomic      Atomic             Coordinates (Angstroms)
 Number     Number       Type             X           Y           Z
 ---------------------------------------------------------------------
      1          9           0       -1.969300    2.053680    0.000070
      2          6           0       -1.222250    0.944230    0.000030
      3          6           0        0.140030    1.057400   -0.000020
      4          6           0        0.927950   -0.123640   -0.000080
      5          6           0        2.414660   -0.018650   -0.000010
      6          9           0        3.007080   -1.234610   -0.000560
      7          9           0        2.858290    0.654480   -1.086020
      8          9           0        2.858270    0.653500    1.086650
      9          6           0        0.306540   -1.341490   -0.000090
     10          7           0       -1.054170   -1.389970   -0.000060
     11          6           0       -1.930500   -0.312100    0.000000
     12         16           0       -3.570980   -0.506610    0.000030
     13          1           0        0.596860    2.043100   -0.000020
     14          1           0        0.831760   -2.288990   -0.000150
     15          1           0       -1.521480   -2.296390   -0.000090
     16         -1           0       -3.688724    0.486434    0.000069
     17         -1           0       -2.695680    0.604178    0.000051
     18          1           0       -6.758055   -0.884498    0.000088
     19         -1           0       -6.875799    0.108546    0.000127
     20          8           0       -7.708597   -0.997203    0.000106
     21          1           0       -8.056020   -0.105278    0.000146
 ---------------------------------------------------------------------
                    Distance matrix (angstroms):
                    1          2          3          4          5
     1  F    0.000000
     2  C    1.337521   0.000000
     3  C    2.332777   1.366973   0.000000
     4  C    3.624194   2.400772   1.419744   0.000000
     5  C    4.849088   3.762214   2.516312   1.490413   0.000000
     6  F    5.964663   4.757581   3.670597   2.357337   1.352598
     7  F    5.142274   4.232525   2.954772   2.347541   1.352527
     8  F    5.142625   4.232719   2.955134   2.347566   1.352555
     9  C    4.087374   2.749857   2.404662   1.367227   2.488790
    10  N    3.563171   2.340244   2.723184   2.352104   3.730054
    11  C    2.366098   1.442215   2.482463   2.864656   4.355058
    12  S    3.020011   2.760701   4.027123   4.515201   6.005497
    13  H    2.566182   2.125247   1.086415   2.191890   2.748674
    14  H    5.167661   3.830492   3.417136   2.167485   2.767673
    15  H    4.373060   3.254406   3.742796   3.274225   4.547669
    16  X    2.326517   2.508600   3.871093   4.656809   6.124248
    17  X    1.621322   1.512161   2.871700   3.696000   5.148154
    18  H    5.618280   5.830042   7.166209   7.723573   9.213490
    19  X    5.278000   5.714979   7.079703   7.807203   9.291330
    20  O    6.499801   6.770662   8.113097   8.680614  10.170442
    21  H    6.458271   6.913890   8.278107   8.983989  10.471038
                    6          7          8          9         10
     6  F    0.000000
     7  F    2.183809   0.000000
     8  F    2.183834   2.172670   0.000000
     9  C    2.702654   3.416807   3.416477   0.000000
    10  N    4.064221   4.546034   4.545756   1.361573   0.000000
    11  C    5.023019   5.004620   5.004549   2.462517   1.389157
    12  S    6.618222   6.622926   6.622828   3.966382   2.667332
    13  H    4.068482   2.867355   2.868068   3.397019   3.809445
    14  H    2.417382   3.734964   3.734451   1.083334   2.089251
    15  H    4.651369   5.391592   5.391203   2.062399   1.019792
    16  X    6.913450   6.638616   6.638652   4.393568   3.234466
    17  X    5.991879   5.659387   5.659461   3.577562   2.582863
    18  H    9.771410   9.799091   9.798968   7.079361   5.726239
    19  X    9.973734   9.809702   9.809669   7.327251   6.011399
    20  O   10.718307  10.750201  10.750073   8.022528   6.666008
    21  H   11.120592  10.994505  10.994451   8.453439   7.118731
                   11         12         13         14         15
    11  C    0.000000
    12  S    1.651971   0.000000
    13  H    3.454637   4.885889   0.000000
    14  H    3.396789   4.749842   4.338454   0.000000
    15  H    2.026007   2.720986   4.828927   2.353252   0.000000
    16  X    1.931064   1.000000   4.559544   5.304503   3.527188
    17  X    1.193761   1.414214   3.593232   4.562155   3.129224
    18  H    4.861371   3.209400   7.916161   7.718672   5.423574
    19  X    4.963157   3.361584   7.719012   8.071843   5.869621
    20  O    5.818571   4.166600   8.844437   8.637500   6.322049
    21  H    6.129010   4.502960   8.915596   9.152116   6.892110
                   16         17         18         19         20
    16  X    0.000000
    17  X    1.000000   0.000000
    18  H    3.361584   4.326552   0.000000
    19  X    3.209400   4.209400   1.000000   0.000000
    20  O    4.284922   5.262486   0.957200   1.384280   0.000000
    21  H    4.407198   5.407085   1.513901   1.199434   0.957200
                   21
    21  H    0.000000
 Symmetry turned off by external request.
 Stoichiometry    C6H5F4NOS
 Framework group  C1[X(C6H5F4NOS)]
 Deg. of freedom    48
 Full point group                 C1      NOp   1
 Rotational constants (GHZ):      1.8297141      0.2339151      0.2153254
 Standard basis: 6-31G(d) (6D, 7F)
 Integral buffers will be    131072 words long.
 Raffenetti 1 integral format.
 Two-electron integral symmetry is turned off.
   209 basis functions,   408 primitive gaussians,   209 cartesian basis functions
    54 alpha electrons       54 beta electrons
       nuclear repulsion energy       887.2660693336 Hartrees.
 NAtoms=   18 NActive=   18 NUniq=   18 SFac= 7.50D-01 NAtFMM=   80 NAOKFM=F Big=F
 One-electron integrals computed using PRISM.
 NBasis=   209 RedAO= T  NBF=   209
 NBsUse=   209 1.00D-06 NBFU=   209
 Harris functional with IExCor=  205 diagonalized for initial guess.
 ExpMin= 1.17D-01 ExpMax= 2.19D+04 ExpMxC= 3.30D+03 IAcc=1 IRadAn=         1 AccDes= 0.00D+00
 HarFok:  IExCor=  205 AccDes= 0.00D+00 IRadAn=         1 IDoV= 1
 ScaDFX=  1.000000  1.000000  1.000000  1.000000
 FoFCou: FMM=F IPFlag=           0 FMFlag=      100000 FMFlg1=           0
         NFxFlg=           0 DoJE=T BraDBF=F KetDBF=T FulRan=T
         Omega=  0.000000  0.000000  1.000000  0.000000  0.000000 ICntrl=     500 IOpCl=  0
         NMat0=    1 NMatS0=    1 NMatT0=    0 NMatD0=    1 NMtDS0=    0 NMtDT0=    0
         I1Cent=           4 NGrid=           0.
 Symmetry not used in FoFCou.
 Requested convergence on RMS density matrix=1.00D-08 within 128 cycles.
 Requested convergence on MAX density matrix=1.00D-06.
 Requested convergence on             energy=1.00D-06.
 No special actions if energy rises.
 Integral accuracy reduced to 1.0D-05 until final iterations.
 Initial convergence to 1.0D-05 achieved.  Increase integral accuracy.
 SCF Done:  E(RHF) =  -1154.67506344     A.U. after   15 cycles
             Convg  =    0.5594D-08             -V/T =  2.0018

 **********************************************************************

            Population analysis using the SCF density.

 **********************************************************************

 Alpha  occ. eigenvalues --  -91.91058 -26.37029 -26.36092 -26.36089 -26.33871
 Alpha  occ. eigenvalues --  -20.54367 -15.69238 -11.54409 -11.38464 -11.37601
 Alpha  occ. eigenvalues --  -11.36505 -11.31683 -11.30722  -8.92170  -6.60509
 Alpha  occ. eigenvalues --   -6.60228  -6.60108  -1.74273  -1.65275  -1.65129
 Alpha  occ. eigenvalues --   -1.64585  -1.36007  -1.32521  -1.17512  -1.12528
 Alpha  occ. eigenvalues --   -1.03371  -0.97551  -0.92973  -0.88729  -0.85158
 Alpha  occ. eigenvalues --   -0.83909  -0.83509  -0.77371  -0.76233  -0.74221
 Alpha  occ. eigenvalues --   -0.72455  -0.71816  -0.71723  -0.70651  -0.69045
 Alpha  occ. eigenvalues --   -0.67691  -0.67690  -0.66264  -0.64385  -0.62939
 Alpha  occ. eigenvalues --   -0.61125  -0.59743  -0.55540  -0.53296  -0.48164
 Alpha  occ. eigenvalues --   -0.46932  -0.43738  -0.34784  -0.31559
 Alpha virt. eigenvalues --    0.03999   0.08341   0.16897   0.19999   0.24188
 Alpha virt. eigenvalues --    0.25364   0.26158   0.27052   0.29708   0.33356
 Alpha virt. eigenvalues --    0.34034   0.36811   0.39474   0.40456   0.42527
 Alpha virt. eigenvalues --    0.43062   0.47276   0.49196   0.53852   0.56021
 Alpha virt. eigenvalues --    0.56375   0.59790   0.63028   0.64821   0.66520
 Alpha virt. eigenvalues --    0.68145   0.72040   0.72757   0.73386   0.75072
 Alpha virt. eigenvalues --    0.76846   0.77527   0.82699   0.84029   0.87070
 Alpha virt. eigenvalues --    0.88756   0.89680   0.91909   0.95762   0.99297
 Alpha virt. eigenvalues --    1.01892   1.02376   1.04001   1.05425   1.07425
 Alpha virt. eigenvalues --    1.08555   1.09658   1.13096   1.14617   1.15331
 Alpha virt. eigenvalues --    1.17203   1.17782   1.18409   1.19944   1.24121
 Alpha virt. eigenvalues --    1.27949   1.30827   1.31542   1.33146   1.33997
 Alpha virt. eigenvalues --    1.34655   1.38827   1.41311   1.41744   1.42192
 Alpha virt. eigenvalues --    1.46267   1.46908   1.51602   1.57058   1.60490
 Alpha virt. eigenvalues --    1.60982   1.61583   1.63467   1.64062   1.64122
 Alpha virt. eigenvalues --    1.65328   1.66223   1.67170   1.69201   1.70152
 Alpha virt. eigenvalues --    1.72525   1.75692   1.76288   1.80869   1.86193
 Alpha virt. eigenvalues --    1.89593   1.92275   1.93318   1.99962   2.03632
 Alpha virt. eigenvalues --    2.03977   2.04977   2.05791   2.08377   2.09199
 Alpha virt. eigenvalues --    2.09641   2.12221   2.12473   2.17600   2.20217
 Alpha virt. eigenvalues --    2.22300   2.22326   2.24294   2.28334   2.29334
 Alpha virt. eigenvalues --    2.30300   2.32360   2.33317   2.34697   2.35859
 Alpha virt. eigenvalues --    2.37476   2.38872   2.42898   2.44889   2.45180
 Alpha virt. eigenvalues --    2.46856   2.51811   2.60562   2.61495   2.64586
 Alpha virt. eigenvalues --    2.65094   2.68142   2.74932   2.82371   2.84121
 Alpha virt. eigenvalues --    2.84156   2.91097   2.92628   2.92899   2.96382
 Alpha virt. eigenvalues --    3.00052   3.07177   3.09179   3.17039   3.21729
 Alpha virt. eigenvalues --    3.29264   3.37261   3.38220   3.42485   3.44297
 Alpha virt. eigenvalues --    3.48957   3.70775   4.04314   4.35892   4.39901
 Alpha virt. eigenvalues --    4.44844   4.47964   4.59896   4.64139   4.68540
 Alpha virt. eigenvalues --    4.81973   5.01200   5.15299   5.57129   6.01627
          Condensed to atoms (all electrons):
              1          2          3          4          5          6
     1  F    9.160560   0.267114  -0.033532   0.002209  -0.000015   0.000000
     2  C    0.267114   4.570928   0.568096  -0.026310   0.000853  -0.000019
     3  C   -0.033532   0.568096   5.061339   0.357266  -0.011876   0.002197
     4  C    0.002209  -0.026310   0.357266   5.203967   0.414692  -0.045479
     5  C   -0.000015   0.000853  -0.011876   0.414692   3.548125   0.289593
     6  F    0.000000  -0.000019   0.002197  -0.045479   0.289593   9.187456
     7  F    0.000000   0.000293   0.004976  -0.055086   0.285052  -0.030786
     8  F    0.000000   0.000292   0.004970  -0.055093   0.285059  -0.030787
     9  C    0.000132  -0.023036  -0.055102   0.591058  -0.020830   0.005544
    10  N    0.001380  -0.051109  -0.021476  -0.035366   0.001213   0.000240
    11  C   -0.040989   0.386310  -0.078237  -0.001632   0.000077   0.000002
    12  S    0.003767  -0.082204   0.001871  -0.000097   0.000006   0.000000
    13  H   -0.000279  -0.017642   0.368378  -0.029639  -0.000279   0.000035
    14  H    0.000000  -0.000105   0.001801  -0.022391  -0.000135   0.005057
    15  H   -0.000018   0.003692  -0.000556   0.002324  -0.000015   0.000001
    16  H    0.000000   0.000000   0.000000   0.000000   0.000000   0.000000
    17  O    0.000000   0.000000   0.000000   0.000000   0.000000   0.000000
    18  H    0.000000   0.000000   0.000000   0.000000   0.000000   0.000000
              7          8          9         10         11         12
     1  F    0.000000   0.000000   0.000132   0.001380  -0.040989   0.003767
     2  C    0.000293   0.000292  -0.023036  -0.051109   0.386310  -0.082204
     3  C    0.004976   0.004970  -0.055102  -0.021476  -0.078237   0.001871
     4  C   -0.055086  -0.055093   0.591058  -0.035366  -0.001632  -0.000097
     5  C    0.285052   0.285059  -0.020830   0.001213   0.000077   0.000006
     6  F   -0.030786  -0.030787   0.005544   0.000240   0.000002   0.000000
     7  F    9.200689  -0.033966   0.000537  -0.000006  -0.000002   0.000000
     8  F   -0.033966   9.200707   0.000533  -0.000006  -0.000002   0.000000
     9  C    0.000537   0.000533   4.737109   0.265854  -0.039282   0.003508
    10  N   -0.000006  -0.000006   0.265854   7.221877   0.222064  -0.103976
    11  C   -0.000002  -0.000002  -0.039282   0.222064   4.935293   0.447039
    12  S    0.000000   0.000000   0.003508  -0.103976   0.447039  15.961935
    13  H    0.000911   0.000907   0.002427  -0.000263   0.002609  -0.000058
    14  H    0.000084   0.000084   0.379594  -0.031964   0.000985  -0.000132
    15  H    0.000000   0.000000  -0.021353   0.310461  -0.018064   0.013075
    16  H    0.000000   0.000000   0.000000   0.000000  -0.000012   0.002429
    17  O    0.000000   0.000000   0.000000   0.000000   0.000002   0.000354
    18  H    0.000000   0.000000   0.000000   0.000000   0.000000   0.000025
             13         14         15         16         17         18
     1  F   -0.000279   0.000000  -0.000018   0.000000   0.000000   0.000000
     2  C   -0.017642  -0.000105   0.003692   0.000000   0.000000   0.000000
     3  C    0.368378   0.001801  -0.000556   0.000000   0.000000   0.000000
     4  C   -0.029639  -0.022391   0.002324   0.000000   0.000000   0.000000
     5  C   -0.000279  -0.000135  -0.000015   0.000000   0.000000   0.000000
     6  F    0.000035   0.005057   0.000001   0.000000   0.000000   0.000000
     7  F    0.000911   0.000084   0.000000   0.000000   0.000000   0.000000
     8  F    0.000907   0.000084   0.000000   0.000000   0.000000   0.000000
     9  C    0.002427   0.379594  -0.021353   0.000000   0.000000   0.000000
    10  N   -0.000263  -0.031964   0.310461   0.000000   0.000000   0.000000
    11  C    0.002609   0.000985  -0.018064  -0.000012   0.000002   0.000000
    12  S   -0.000058  -0.000132   0.013075   0.002429   0.000354   0.000025
    13  H    0.390433  -0.000061   0.000008   0.000000   0.000000   0.000000
    14  H   -0.000061   0.378989  -0.002079   0.000000   0.000000   0.000000
    15  H    0.000008  -0.002079   0.268508   0.000000   0.000000   0.000000
    16  H    0.000000   0.000000   0.000000   0.302206   0.264052  -0.018485
    17  O    0.000000   0.000000   0.000000   0.264052   8.350369   0.265611
    18  H    0.000000   0.000000   0.000000  -0.018485   0.265611   0.321759
 Mulliken atomic charges:
              1
     1  F   -0.360330
     2  C    0.402845
     3  C   -0.170114
     4  C   -0.300422
     5  C    1.208478
     6  F   -0.383054
     7  F   -0.372697
     8  F   -0.372701
     9  C    0.173309
    10  N   -0.778923
    11  C    0.183839
    12  S   -0.247544
    13  H    0.282513
    14  H    0.290273
    15  H    0.444015
    16  H    0.449810
    17  O   -0.880388
    18  H    0.431090
 Sum of Mulliken atomic charges =   0.00000
 Mulliken charges with hydrogens summed into heavy atoms:
              1
     1  F   -0.360330
     2  C    0.402845
     3  C    0.112399
     4  C   -0.300422
     5  C    1.208478
     6  F   -0.383054
     7  F   -0.372697
     8  F   -0.372701
     9  C    0.463582
    10  N   -0.334908
    11  C    0.183839
    12  S   -0.247544
    17  O    0.000512
 Sum of Mulliken charges with hydrogens summed into heavy atoms =   0.00000
 Electronic spatial extent (au):  <R**2>=           4785.3402
 Charge=              0.0000 electrons
 Dipole moment (field-independent basis, Debye):
    X=              5.1731    Y=             -0.7243    Z=             -0.0004  Tot=              5.2236
 Quadrupole moment (field-independent basis, Debye-Ang):
   XX=           -123.5335   YY=            -73.4557   ZZ=            -82.5256
   XY=            -14.6747   XZ=             -0.0004   YZ=              0.0006
 Traceless Quadrupole moment (field-independent basis, Debye-Ang):
   XX=            -30.3619   YY=             19.7158   ZZ=             10.6460
   XY=            -14.6747   XZ=             -0.0004   YZ=              0.0006
 Octapole moment (field-independent basis, Debye-Ang**2):
  XXX=            429.6260  YYY=             12.6610  ZZZ=             -0.0034  XYY=             93.1845
  XXY=            150.1027  XXZ=             -0.0004  XZZ=             72.6393  YZZ=             11.2833
  YYZ=             -0.0007  XYZ=             -0.0023
 Hexadecapole moment (field-independent basis, Debye-Ang**3):
 XXXX=          -6528.4875 YYYY=           -489.9362 ZZZZ=           -143.4421 XXXY=          -1340.6176
 XXXZ=              0.0047 YYYX=           -167.7592 YYYZ=             -0.0010 ZZZX=              0.0188
 ZZZY=             -0.0045 XXYY=          -1074.7831 XXZZ=           -872.2774 YYZZ=           -119.1611
 XXYZ=              0.0144 YYXZ=              0.0158 ZZXY=            -68.7357
 N-N= 8.872660693336D+02 E-N=-4.512215311473D+03  KE= 1.152543882701D+03
 Calling FoFJK, ICntrl=      2127 FMM=F ISym2X=0 I1Cent= 0 IOpClX= 0 NMat=1 NMatS=1 NMatT=0.
 -------------------------------------------------------------------
 Center     Atomic                   Forces (Hartrees/Bohr)
 Number     Number              X              Y              Z
 -------------------------------------------------------------------
      1        9           0.000000000    0.000000000    0.000000000
      2        6           0.000000000    0.000000000    0.000000000
      3        6           0.000000000    0.000000000    0.000000000
      4        6           0.000000000    0.000000000    0.000000000
      5        6           0.000000000    0.000000000    0.000000000
      6        9           0.000000000    0.000000000    0.000000000
      7        9           0.000000000    0.000000000    0.000000000
      8        9           0.000000000    0.000000000    0.000000000
      9        6           0.000000000    0.000000000    0.000000000
     10        7           0.000000000    0.000000000    0.000000000
     11        6           0.000000000    0.000000000    0.000000000
     12       16           0.000000000    0.000000000    0.000000000
     13        1           0.000000000    0.000000000    0.000000000
     14        1           0.000000000    0.000000000    0.000000000
     15        1           0.000000000    0.000000000    0.000000000
     16        1          -0.009689952   -0.002327015    0.000000136
     17        8           0.006674064    0.012389938    0.000000297
     18        1           0.003357870   -0.010129150   -0.000000444
 -------------------------------------------------------------------
 Cartesian Forces:  Max     0.012389938 RMS     0.002759626
 -----------------------------------------------------------------------------------------------
                       Internal Coordinate Forces (Hartree/Bohr or radian)
  Cent   Atom   N1       Length/X         N2         Alpha/Y        N3         Beta/Z          J
 -----------------------------------------------------------------------------------------------
      1  F 
      2  C 
      3  C 
      4  C 
      5  C 
      6  F 
      7  F 
      8  F 
      9  C 
     10  N 
     11  C 
     12  S 
     13  H 
     14  H 
     15  H 
         X       12   0.000000(     1)     11  -0.000291(     7)      2   0.000000(    13)     0
         X       16   0.000000(     2)     12   0.000000(     8)     11   0.000000(    14)     0
     16  H       12  -0.000332(     3)     16  -0.000291(     9)     17   0.000000(    15)     0
         X       18   0.000000(     4)     12  -0.000934(    10)     16   0.000000(    16)     0
     17  O       18  -0.010228(     5)     19  -0.000934(    11)     12   0.000000(    17)     0
     18  H       20  -0.010657(     6)     18   0.000990(    12)     16   0.000000(    18)     0
 -----------------------------------------------------------------------------------------------
 Internal  Forces:  Max     0.010657164 RMS     0.003505542

 GradGradGradGradGradGradGradGradGradGradGradGradGradGradGradGradGradGrad
 Berny optimization.
 Search for a local minimum.
 Step number   1 out of a maximum of   20
 All quantities printed in internal units (Hartrees-Bohrs-Radians)
 Second derivative matrix not updated -- first step.
 The second derivative matrix:
                          RX       RDUM       ROH      ADUM      AHOH
           RX           0.01098
           RDUM         0.00000   0.00000
           ROH          0.00000   0.00000   1.12160
           ADUM         0.00000   0.00000   0.00000   1.64000
           AHOH         0.00000   0.00000   0.00000   0.00000   0.16000
           DDUM         0.00012   0.00000   0.00040  -0.00460   0.00009
           DH1         -0.00015   0.00000  -0.00050   0.00583  -0.00012
           DOH2        -0.00014   0.00000  -0.00048   0.00552  -0.00011
           DH2         -0.00003   0.00000  -0.00011   0.00123  -0.00002
                         DDUM       DH1      DOH2       DH2
           DDUM        43.40828
           DH1        -54.92363  69.50523
           DOH2       -51.83500  65.63737  62.38331
           DH2        -11.51535  14.58160  13.80238   3.06625
     Eigenvalues ---    0.010981000.000001000.000001000.000001000.00000
     Eigenvalues --- 1000.000001000.000001000.000001000.00000
 RFO step:  Lambda=-1.00248944D-05 EMin= 1.09821972D-02
 Linear search not attempted -- first point.
 Variable       Old X    -DE/DX   Delta X   Delta X   Delta X     New X
                                 (Linear)    (Quad)   (Total)
    RX        6.06489  -0.00033   0.00000  -0.03019  -0.03019   6.03470
   RDUM       1.88973   0.00000   0.00000   0.00000   0.00000   1.88973
   ROH        1.80885  -0.02089   0.00000   0.00000   0.00000   1.80885
   ADUM       1.57080  -0.00245   0.00000   0.00000   0.00000   1.57080
   AHOH       1.82422   0.00099   0.00000   0.00000   0.00000   1.82422
   DDUM       0.00000   0.00000   0.00000   0.00000   0.00000   0.00000
   DH1        3.14159   0.00000   0.00000   0.00000   0.00000   3.14159
   DOH2       3.14159   0.00000   0.00000   0.00000   0.00000   3.14159
   DH2        0.00000   0.00000   0.00000   0.00000   0.00000   0.00000
         Item               Value     Threshold  Converged?
 Maximum Force            0.000332     0.000450     YES
 RMS     Force            0.000332     0.000300     NO 
 Maximum Displacement     0.030186     0.001800     NO 
 RMS     Displacement     0.010062     0.001200     NO 
 Predicted change in Energy=-5.012443D-06
 GradGradGradGradGradGradGradGradGradGradGradGradGradGradGradGradGradGrad

 ---------------------------------------------------------------------------------------------------
                            Z-MATRIX (ANGSTROMS AND DEGREES)
   CD    Cent   Atom    N1       Length/X        N2       Alpha/Y        N3        Beta/Z          J
 ---------------------------------------------------------------------------------------------------
      1      1  F       -1  -1.969300          2.053680          0.000070
      2      2  C       -1  -1.222250          0.944230          0.000030
      3      3  C       -1   0.140030          1.057400         -0.000020
      4      4  C       -1   0.927950         -0.123640         -0.000080
      5      5  C       -1   2.414660         -0.018650         -0.000010
      6      6  F       -1   3.007080         -1.234610         -0.000560
      7      7  F       -1   2.858290          0.654480         -1.086020
      8      8  F       -1   2.858270          0.653500          1.086650
      9      9  C       -1   0.306540         -1.341490         -0.000090
     10     10  N       -1  -1.054170         -1.389970         -0.000060
     11     11  C       -1  -1.930500         -0.312100          0.000000
     12     12  S       -1  -3.570980         -0.506610          0.000030
     13     13  H       -1   0.596860          2.043100         -0.000020
     14     14  H       -1   0.831760         -2.288990         -0.000150
     15     15  H       -1  -1.521480         -2.296390         -0.000090
     16         X       12   1.000000(    15)     11   90.000(    34)      2    0.000(    52)      0
     17         X       16   1.000000(    16)     12   90.000(    35)     11    0.000(    53)      0
     18     16  H       12   3.193426(    17)     16   90.000(    36)     17  180.000(    54)      0
     19         X       18   1.000000(    18)     12   90.000(    37)     16    0.000(    55)      0
     20     17  O       18   0.957200(    19)     19   90.000(    38)     12  180.000(    56)      0
     21     18  H       20   0.957200(    20)     18  104.520(    39)     16    0.000(    57)      0
 ---------------------------------------------------------------------------------------------------
                         Z-Matrix orientation:                         
 ---------------------------------------------------------------------
 Center     Atomic      Atomic             Coordinates (Angstroms)
 Number     Number       Type             X           Y           Z
 ---------------------------------------------------------------------
      1          9           0       -1.969300    2.053680    0.000070
      2          6           0       -1.222250    0.944230    0.000030
      3          6           0        0.140030    1.057400   -0.000020
      4          6           0        0.927950   -0.123640   -0.000080
      5          6           0        2.414660   -0.018650   -0.000010
      6          9           0        3.007080   -1.234610   -0.000560
      7          9           0        2.858290    0.654480   -1.086020
      8          9           0        2.858270    0.653500    1.086650
      9          6           0        0.306540   -1.341490   -0.000090
     10          7           0       -1.054170   -1.389970   -0.000060
     11          6           0       -1.930500   -0.312100    0.000000
     12         16           0       -3.570980   -0.506610    0.000030
     13          1           0        0.596860    2.043100   -0.000020
     14          1           0        0.831760   -2.288990   -0.000150
     15          1           0       -1.521480   -2.296390   -0.000090
     16         -1           0       -3.688724    0.486434    0.000069
     17         -1           0       -2.695680    0.604178    0.000051
     18          1           0       -6.742193   -0.882617    0.000088
     19         -1           0       -6.859937    0.110427    0.000127
     20          8           0       -7.692735   -0.995322    0.000105
     21          1           0       -8.040157   -0.103398    0.000146
 ---------------------------------------------------------------------
                    Distance matrix (angstroms):
                    1          2          3          4          5
     1  F    0.000000
     2  C    1.337521   0.000000
     3  C    2.332777   1.366973   0.000000
     4  C    3.624194   2.400772   1.419744   0.000000
     5  C    4.849088   3.762214   2.516312   1.490413   0.000000
     6  F    5.964663   4.757581   3.670597   2.357337   1.352598
     7  F    5.142274   4.232525   2.954772   2.347541   1.352527
     8  F    5.142625   4.232719   2.955134   2.347566   1.352555
     9  C    4.087374   2.749857   2.404662   1.367227   2.488790
    10  N    3.563171   2.340244   2.723184   2.352104   3.730054
    11  C    2.366098   1.442215   2.482463   2.864656   4.355058
    12  S    3.020011   2.760701   4.027123   4.515201   6.005497
    13  H    2.566182   2.125247   1.086415   2.191890   2.748674
    14  H    5.167661   3.830492   3.417136   2.167485   2.767673
    15  H    4.373060   3.254406   3.742796   3.274225   4.547669
    16  X    2.326517   2.508600   3.871093   4.656809   6.124248
    17  X    1.621322   1.512161   2.871700   3.696000   5.148154
    18  H    5.603780   5.814391   7.150431   7.707603   9.197521
    19  X    5.262563   5.699013   7.063731   7.791404   9.275495
    20  O    6.484915   6.754927   8.097275   8.664643  10.154473
    21  H    6.442693   6.897926   8.262138   8.968130  10.455161
                    6          7          8          9         10
     6  F    0.000000
     7  F    2.183809   0.000000
     8  F    2.183834   2.172670   0.000000
     9  C    2.702654   3.416807   3.416477   0.000000
    10  N    4.064221   4.546034   4.545756   1.361573   0.000000
    11  C    5.023019   5.004620   5.004549   2.462517   1.389157
    12  S    6.618222   6.622926   6.622828   3.966382   2.667332
    13  H    4.068482   2.867355   2.868068   3.397019   3.809445
    14  H    2.417382   3.734964   3.734451   1.083334   2.089251
    15  H    4.651369   5.391592   5.391203   2.062399   1.019792
    16  X    6.913450   6.638616   6.638652   4.393568   3.234466
    17  X    5.991879   5.659387   5.659461   3.577562   2.582863
    18  H    9.755625   9.783229   9.783106   7.063653   5.710605
    19  X    9.958270   9.793858   9.793825   7.312076   5.996509
    20  O   10.702490  10.734320  10.734193   8.006761   6.650285
    21  H   11.105003  10.978629  10.978575   8.438023   7.103470
                   11         12         13         14         15
    11  C    0.000000
    12  S    1.651971   0.000000
    13  H    3.454637   4.885889   0.000000
    14  H    3.396789   4.749842   4.338454   0.000000
    15  H    2.026007   2.720986   4.828927   2.353252   0.000000
    16  X    1.931064   1.000000   4.559544   5.304503   3.527188
    17  X    1.193761   1.414214   3.593232   4.562155   3.129224
    18  H    4.845398   3.193426   7.900729   7.703418   5.408752
    19  X    4.947512   3.346337   7.703184   8.057258   5.855928
    20  O    5.802598   4.150626   8.828895   8.622099   6.306914
    21  H    6.113221   4.487330   8.899748   9.137162   6.877672
                   16         17         18         19         20
    16  X    0.000000
    17  X    1.000000   0.000000
    18  H    3.346337   4.311012   0.000000
    19  X    3.193426   4.193426   1.000000   0.000000
    20  O    4.269391   5.246804   0.957200   1.384280   0.000000
    21  H    4.391227   5.391113   1.513901   1.199434   0.957200
                   21
    21  H    0.000000
 Symmetry turned off by external request.
 Stoichiometry    C6H5F4NOS
 Framework group  C1[X(C6H5F4NOS)]
 Deg. of freedom    48
 Full point group                 C1      NOp   1
 Rotational constants (GHZ):      1.8298109      0.2343574      0.2157015
 Standard basis: 6-31G(d) (6D, 7F)
 Integral buffers will be    131072 words long.
 Raffenetti 1 integral format.
 Two-electron integral symmetry is turned off.
   209 basis functions,   408 primitive gaussians,   209 cartesian basis functions
    54 alpha electrons       54 beta electrons
       nuclear repulsion energy       887.4577763257 Hartrees.
 NAtoms=   18 NActive=   18 NUniq=   18 SFac= 7.50D-01 NAtFMM=   80 NAOKFM=F Big=F
 One-electron integrals computed using PRISM.
 NBasis=   209 RedAO= T  NBF=   209
 NBsUse=   209 1.00D-06 NBFU=   209
 Initial guess read from the read-write file.
 B after Tr=     0.000000    0.000000    0.000000
         Rot=    1.000000    0.000000    0.000000    0.000000 Ang=   0.00 deg.
 Harris functional with IExCor=  205 diagonalized for initial guess.
 ExpMin= 1.17D-01 ExpMax= 2.19D+04 ExpMxC= 3.30D+03 IAcc=1 IRadAn=         1 AccDes= 0.00D+00
 HarFok:  IExCor=  205 AccDes= 0.00D+00 IRadAn=         1 IDoV= 1
 ScaDFX=  1.000000  1.000000  1.000000  1.000000
 FoFCou: FMM=F IPFlag=           0 FMFlag=      100000 FMFlg1=           0
         NFxFlg=           0 DoJE=T BraDBF=F KetDBF=T FulRan=T
         Omega=  0.000000  0.000000  1.000000  0.000000  0.000000 ICntrl=     500 IOpCl=  0
         NMat0=    1 NMatS0=    1 NMatT0=    0 NMatD0=    1 NMtDS0=    0 NMtDT0=    0
         I1Cent=           4 NGrid=           0.
 Symmetry not used in FoFCou.
 Requested convergence on RMS density matrix=1.00D-08 within 128 cycles.
 Requested convergence on MAX density matrix=1.00D-06.
 Requested convergence on             energy=1.00D-06.
 No special actions if energy rises.
 Integral accuracy reduced to 1.0D-05 until final iterations.
 Initial convergence to 1.0D-05 achieved.  Increase integral accuracy.
 SCF Done:  E(RHF) =  -1154.67507322     A.U. after    7 cycles
             Convg  =    0.9214D-08             -V/T =  2.0018
 Calling FoFJK, ICntrl=      2127 FMM=F ISym2X=0 I1Cent= 0 IOpClX= 0 NMat=1 NMatS=1 NMatT=0.
 -------------------------------------------------------------------
 Center     Atomic                   Forces (Hartrees/Bohr)
 Number     Number              X              Y              Z
 -------------------------------------------------------------------
      1        9           0.000000000    0.000000000    0.000000000
      2        6           0.000000000    0.000000000    0.000000000
      3        6           0.000000000    0.000000000    0.000000000
      4        6           0.000000000    0.000000000    0.000000000
      5        6           0.000000000    0.000000000    0.000000000
      6        9           0.000000000    0.000000000    0.000000000
      7        9           0.000000000    0.000000000    0.000000000
      8        9           0.000000000    0.000000000    0.000000000
      9        6           0.000000000    0.000000000    0.000000000
     10        7           0.000000000    0.000000000    0.000000000
     11        6           0.000000000    0.000000000    0.000000000
     12       16           0.000000000    0.000000000    0.000000000
     13        1           0.000000000    0.000000000    0.000000000
     14        1           0.000000000    0.000000000    0.000000000
     15        1           0.000000000    0.000000000    0.000000000
     16        1          -0.009707584   -0.002333082    0.000000137
     17        8           0.006671644    0.012391848    0.000000297
     18        1           0.003362456   -0.010128814   -0.000000445
 -------------------------------------------------------------------
 Cartesian Forces:  Max     0.012391848 RMS     0.002760999
 -----------------------------------------------------------------------------------------------
                       Internal Coordinate Forces (Hartree/Bohr or radian)
  Cent   Atom   N1       Length/X         N2         Alpha/Y        N3         Beta/Z          J
 -----------------------------------------------------------------------------------------------
      1  F 
      2  C 
      3  C 
      4  C 
      5  C 
      6  F 
      7  F 
      8  F 
      9  C 
     10  N 
     11  C 
     12  S 
     13  H 
     14  H 
     15  H 
         X       12   0.000000(     1)     11  -0.000294(     7)      2   0.000000(    13)     0
         X       16   0.000000(     2)     12   0.000000(     8)     11   0.000000(    14)     0
     16  H       12  -0.000316(     3)     16  -0.000294(     9)     17   0.000000(    15)     0
         X       18   0.000000(     4)     12  -0.000945(    10)     16   0.000000(    16)     0
     17  O       18  -0.010231(     5)     19  -0.000945(    11)     12   0.000000(    17)     0
     18  H       20  -0.010659(     6)     18   0.000983(    12)     16   0.000000(    18)     0
 -----------------------------------------------------------------------------------------------
 Internal  Forces:  Max     0.010658515 RMS     0.003506325

 GradGradGradGradGradGradGradGradGradGradGradGradGradGradGradGradGradGrad
 Berny optimization.
 Search for a local minimum.
 Step number   2 out of a maximum of   20
 All quantities printed in internal units (Hartrees-Bohrs-Radians)
 Update second derivatives using D2CorN and points    1    2
 DE= -9.78D-06 DEPred=-5.01D-06 R= 1.95D+00
 SS=  1.41D+00  RLast= 3.02D-02 DXNew= 5.0454D-01 9.0557D-02
 Trust test= 1.95D+00 RLast= 3.02D-02 DXMaxT set to 3.00D-01
 The second derivative matrix:
                          RX       RDUM       ROH      ADUM      AHOH
           RX           0.00052
           RDUM         0.00000   0.00000
           ROH         -0.00006   0.00000   1.12160
           ADUM        -0.00048   0.00000   0.00000   1.64000
           AHOH        -0.00013   0.00000   0.00000   0.00000   0.16000
           DDUM         0.00006   0.00000   0.00040  -0.00460   0.00009
           DH1         -0.00008   0.00000  -0.00050   0.00583  -0.00012
           DOH2        -0.00007   0.00000  -0.00048   0.00552  -0.00011
           DH2         -0.00002   0.00000  -0.00011   0.00123  -0.00002
                         DDUM       DH1      DOH2       DH2
           DDUM        43.40828
           DH1        -54.92363  69.50523
           DOH2       -51.83500  65.63737  62.38331
           DH2        -11.51535  14.58160  13.80238   3.06625
     Eigenvalues ---    0.000521000.000001000.000001000.000001000.00000
     Eigenvalues --- 1000.000001000.000001000.000001000.00000
 RFO step:  Lambda= 0.00000000D+00 EMin= 5.23731519D-04
 Quartic linear search produced a step of  2.00000.
 Variable       Old X    -DE/DX   Delta X   Delta X   Delta X     New X
                                 (Linear)    (Quad)   (Total)
    RX        6.03470  -0.00032  -0.06037   0.00000  -0.06037   5.97433
   RDUM       1.88973   0.00000   0.00000   0.00000   0.00000   1.88973
   ROH        1.80885  -0.02089   0.00000   0.00000   0.00000   1.80885
   ADUM       1.57080  -0.00248   0.00000   0.00000   0.00000   1.57080
   AHOH       1.82422   0.00098   0.00000   0.00000   0.00000   1.82422
   DDUM       0.00000   0.00000   0.00000   0.00000   0.00000   0.00000
   DH1        3.14159   0.00000   0.00000   0.00000   0.00000   3.14159
   DOH2       3.14159   0.00000   0.00000   0.00000   0.00000   3.14159
   DH2        0.00000   0.00000   0.00000   0.00000   0.00000   0.00000
         Item               Value     Threshold  Converged?
 Maximum Force            0.000316     0.000450     YES
 RMS     Force            0.000316     0.000300     NO 
 Maximum Displacement     0.060371     0.001800     NO 
 RMS     Displacement     0.020124     0.001200     NO 
 Predicted change in Energy=-1.812268D-05
 GradGradGradGradGradGradGradGradGradGradGradGradGradGradGradGradGradGrad

 ---------------------------------------------------------------------------------------------------
                            Z-MATRIX (ANGSTROMS AND DEGREES)
   CD    Cent   Atom    N1       Length/X        N2       Alpha/Y        N3        Beta/Z          J
 ---------------------------------------------------------------------------------------------------
      1      1  F       -1  -1.969300          2.053680          0.000070
      2      2  C       -1  -1.222250          0.944230          0.000030
      3      3  C       -1   0.140030          1.057400         -0.000020
      4      4  C       -1   0.927950         -0.123640         -0.000080
      5      5  C       -1   2.414660         -0.018650         -0.000010
      6      6  F       -1   3.007080         -1.234610         -0.000560
      7      7  F       -1   2.858290          0.654480         -1.086020
      8      8  F       -1   2.858270          0.653500          1.086650
      9      9  C       -1   0.306540         -1.341490         -0.000090
     10     10  N       -1  -1.054170         -1.389970         -0.000060
     11     11  C       -1  -1.930500         -0.312100          0.000000
     12     12  S       -1  -3.570980         -0.506610          0.000030
     13     13  H       -1   0.596860          2.043100         -0.000020
     14     14  H       -1   0.831760         -2.288990         -0.000150
     15     15  H       -1  -1.521480         -2.296390         -0.000090
     16         X       12   1.000000(    15)     11   90.000(    34)      2    0.000(    52)      0
     17         X       16   1.000000(    16)     12   90.000(    35)     11    0.000(    53)      0
     18     16  H       12   3.161479(    17)     16   90.000(    36)     17  180.000(    54)      0
     19         X       18   1.000000(    18)     12   90.000(    37)     16    0.000(    55)      0
     20     17  O       18   0.957200(    19)     19   90.000(    38)     12  180.000(    56)      0
     21     18  H       20   0.957200(    20)     18  104.520(    39)     16    0.000(    57)      0
 ---------------------------------------------------------------------------------------------------
                         Z-Matrix orientation:                         
 ---------------------------------------------------------------------
 Center     Atomic      Atomic             Coordinates (Angstroms)
 Number     Number       Type             X           Y           Z
 ---------------------------------------------------------------------
      1          9           0       -1.969300    2.053680    0.000070
      2          6           0       -1.222250    0.944230    0.000030
      3          6           0        0.140030    1.057400   -0.000020
      4          6           0        0.927950   -0.123640   -0.000080
      5          6           0        2.414660   -0.018650   -0.000010
      6          9           0        3.007080   -1.234610   -0.000560
      7          9           0        2.858290    0.654480   -1.086020
      8          9           0        2.858270    0.653500    1.086650
      9          6           0        0.306540   -1.341490   -0.000090
     10          7           0       -1.054170   -1.389970   -0.000060
     11          6           0       -1.930500   -0.312100    0.000000
     12         16           0       -3.570980   -0.506610    0.000030
     13          1           0        0.596860    2.043100   -0.000020
     14          1           0        0.831760   -2.288990   -0.000150
     15          1           0       -1.521480   -2.296390   -0.000090
     16         -1           0       -3.688724    0.486434    0.000069
     17         -1           0       -2.695680    0.604178    0.000051
     18          1           0       -6.710468   -0.878856    0.000087
     19         -1           0       -6.828212    0.114188    0.000126
     20          8           0       -7.661010   -0.991561    0.000105
     21          1           0       -8.008433   -0.099636    0.000145
 ---------------------------------------------------------------------
                    Distance matrix (angstroms):
                    1          2          3          4          5
     1  F    0.000000
     2  C    1.337521   0.000000
     3  C    2.332777   1.366973   0.000000
     4  C    3.624194   2.400772   1.419744   0.000000
     5  C    4.849088   3.762214   2.516312   1.490413   0.000000
     6  F    5.964663   4.757581   3.670597   2.357337   1.352598
     7  F    5.142274   4.232525   2.954772   2.347541   1.352527
     8  F    5.142625   4.232719   2.955134   2.347566   1.352555
     9  C    4.087374   2.749857   2.404662   1.367227   2.488790
    10  N    3.563171   2.340244   2.723184   2.352104   3.730054
    11  C    2.366098   1.442215   2.482463   2.864656   4.355058
    12  S    3.020011   2.760701   4.027123   4.515201   6.005497
    13  H    2.566182   2.125247   1.086415   2.191890   2.748674
    14  H    5.167661   3.830492   3.417136   2.167485   2.767673
    15  H    4.373060   3.254406   3.742796   3.274225   4.547669
    16  X    2.326517   2.508600   3.871093   4.656809   6.124248
    17  X    1.621322   1.512161   2.871700   3.696000   5.148154
    18  H    5.574804   5.783094   7.118877   7.675662   9.165583
    19  X    5.231697   5.667079   7.031788   7.759808   9.243827
    20  O    6.455157   6.723460   8.065635   8.632700  10.122533
    21  H    6.411544   6.865998   8.230199   8.936415  10.423407
                    6          7          8          9         10
     6  F    0.000000
     7  F    2.183809   0.000000
     8  F    2.183834   2.172670   0.000000
     9  C    2.702654   3.416807   3.416477   0.000000
    10  N    4.064221   4.546034   4.545756   1.361573   0.000000
    11  C    5.023019   5.004620   5.004549   2.462517   1.389157
    12  S    6.618222   6.622926   6.622828   3.966382   2.667332
    13  H    4.068482   2.867355   2.868068   3.397019   3.809445
    14  H    2.417382   3.734964   3.734451   1.083334   2.089251
    15  H    4.651369   5.391592   5.391203   2.062399   1.019792
    16  X    6.913450   6.638616   6.638652   4.393568   3.234466
    17  X    5.991879   5.659387   5.659461   3.577562   2.582863
    18  H    9.724058   9.751507   9.751384   7.032242   5.679344
    19  X    9.927348   9.762170   9.762138   7.281737   5.966746
    20  O   10.670858  10.702560  10.702432   7.975230   6.618841
    21  H   11.073829  10.946877  10.946823   8.407198   7.072958
                   11         12         13         14         15
    11  C    0.000000
    12  S    1.651971   0.000000
    13  H    3.454637   4.885889   0.000000
    14  H    3.396789   4.749842   4.338454   0.000000
    15  H    2.026007   2.720986   4.828927   2.353252   0.000000
    16  X    1.931064   1.000000   4.559544   5.304503   3.527188
    17  X    1.193761   1.414214   3.593232   4.562155   3.129224
    18  H    4.813451   3.161479   7.869871   7.672919   5.379126
    19  X    4.916229   3.315864   7.671532   8.028103   5.828576
    20  O    5.770651   4.118679   8.797817   8.591302   6.276656
    21  H    6.081645   4.456076   8.868054   9.107265   6.848816
                   16         17         18         19         20
    16  X    0.000000
    17  X    1.000000   0.000000
    18  H    3.315864   4.279943   0.000000
    19  X    3.161479   4.161479   1.000000   0.000000
    20  O    4.238339   5.215446   0.957200   1.384280   0.000000
    21  H    4.359284   5.359169   1.513901   1.199434   0.957200
                   21
    21  H    0.000000
 Symmetry turned off by external request.
 Stoichiometry    C6H5F4NOS
 Framework group  C1[X(C6H5F4NOS)]
 Deg. of freedom    48
 Full point group                 C1      NOp   1
 Rotational constants (GHZ):      1.8300052      0.2352442      0.2164552
 Standard basis: 6-31G(d) (6D, 7F)
 Integral buffers will be    131072 words long.
 Raffenetti 1 integral format.
 Two-electron integral symmetry is turned off.
   209 basis functions,   408 primitive gaussians,   209 cartesian basis functions
    54 alpha electrons       54 beta electrons
       nuclear repulsion energy       887.8445594945 Hartrees.
 NAtoms=   18 NActive=   18 NUniq=   18 SFac= 7.50D-01 NAtFMM=   80 NAOKFM=F Big=F
 One-electron integrals computed using PRISM.
 NBasis=   209 RedAO= T  NBF=   209
 NBsUse=   209 1.00D-06 NBFU=   209
 Initial guess read from the read-write file.
 B after Tr=     0.000000    0.000000    0.000000
         Rot=    1.000000    0.000000    0.000000    0.000000 Ang=   0.00 deg.
 Harris functional with IExCor=  205 diagonalized for initial guess.
 ExpMin= 1.17D-01 ExpMax= 2.19D+04 ExpMxC= 3.30D+03 IAcc=1 IRadAn=         1 AccDes= 0.00D+00
 HarFok:  IExCor=  205 AccDes= 0.00D+00 IRadAn=         1 IDoV= 1
 ScaDFX=  1.000000  1.000000  1.000000  1.000000
 FoFCou: FMM=F IPFlag=           0 FMFlag=      100000 FMFlg1=           0
         NFxFlg=           0 DoJE=T BraDBF=F KetDBF=T FulRan=T
         Omega=  0.000000  0.000000  1.000000  0.000000  0.000000 ICntrl=     500 IOpCl=  0
         NMat0=    1 NMatS0=    1 NMatT0=    0 NMatD0=    1 NMtDS0=    0 NMtDT0=    0
         I1Cent=           4 NGrid=           0.
 Symmetry not used in FoFCou.
 Requested convergence on RMS density matrix=1.00D-08 within 128 cycles.
 Requested convergence on MAX density matrix=1.00D-06.
 Requested convergence on             energy=1.00D-06.
 No special actions if energy rises.
 Integral accuracy reduced to 1.0D-05 until final iterations.
 Initial convergence to 1.0D-05 achieved.  Increase integral accuracy.
 SCF Done:  E(RHF) =  -1154.67509125     A.U. after    9 cycles
             Convg  =    0.5420D-08             -V/T =  2.0018
 Calling FoFJK, ICntrl=      2127 FMM=F ISym2X=0 I1Cent= 0 IOpClX= 0 NMat=1 NMatS=1 NMatT=0.
 -------------------------------------------------------------------
 Center     Atomic                   Forces (Hartrees/Bohr)
 Number     Number              X              Y              Z
 -------------------------------------------------------------------
      1        9           0.000000000    0.000000000    0.000000000
      2        6           0.000000000    0.000000000    0.000000000
      3        6           0.000000000    0.000000000    0.000000000
      4        6           0.000000000    0.000000000    0.000000000
      5        6           0.000000000    0.000000000    0.000000000
      6        9           0.000000000    0.000000000    0.000000000
      7        9           0.000000000    0.000000000    0.000000000
      8        9           0.000000000    0.000000000    0.000000000
      9        6           0.000000000    0.000000000    0.000000000
     10        7           0.000000000    0.000000000    0.000000000
     11        6           0.000000000    0.000000000    0.000000000
     12       16           0.000000000    0.000000000    0.000000000
     13        1           0.000000000    0.000000000    0.000000000
     14        1           0.000000000    0.000000000    0.000000000
     15        1           0.000000000    0.000000000    0.000000000
     16        1          -0.009746885   -0.002346100    0.000000137
     17        8           0.006666536    0.012395927    0.000000297
     18        1           0.003371657   -0.010128164   -0.000000445
 -------------------------------------------------------------------
 Cartesian Forces:  Max     0.012395927 RMS     0.002764040
 -----------------------------------------------------------------------------------------------
                       Internal Coordinate Forces (Hartree/Bohr or radian)
  Cent   Atom   N1       Length/X         N2         Alpha/Y        N3         Beta/Z          J
 -----------------------------------------------------------------------------------------------
      1  F 
      2  C 
      3  C 
      4  C 
      5  C 
      6  F 
      7  F 
      8  F 
      9  C 
     10  N 
     11  C 
     12  S 
     13  H 
     14  H 
     15  H 
         X       12   0.000000(     1)     11  -0.000299(     7)      2   0.000000(    13)     0
         X       16   0.000000(     2)     12   0.000000(     8)     11   0.000000(    14)     0
     16  H       12  -0.000280(     3)     16  -0.000299(     9)     17   0.000000(    15)     0
         X       18   0.000000(     4)     12  -0.000969(    10)     16   0.000000(    16)     0
     17  O       18  -0.010235(     5)     19  -0.000969(    11)     12   0.000000(    17)     0
     18  H       20  -0.010661(     6)     18   0.000967(    12)     16   0.000000(    18)     0
 -----------------------------------------------------------------------------------------------
 Internal  Forces:  Max     0.010661249 RMS     0.003507888

 GradGradGradGradGradGradGradGradGradGradGradGradGradGradGradGradGradGrad
 Berny optimization.
 Search for a local minimum.
 Step number   3 out of a maximum of   20
 All quantities printed in internal units (Hartrees-Bohrs-Radians)
 Update second derivatives using D2CorN and points    2    3
 DE= -1.80D-05 DEPred=-1.81D-05 R= 9.94D-01
 SS=  1.41D+00  RLast= 6.04D-02 DXNew= 5.0454D-01 1.8111D-01
 Trust test= 9.94D-01 RLast= 6.04D-02 DXMaxT set to 3.00D-01
 The second derivative matrix:
                          RX       RDUM       ROH      ADUM      AHOH
           RX           0.00060
           RDUM         0.00000   0.00000
           ROH         -0.00009   0.00000   1.12160
           ADUM        -0.00072   0.00000   0.00000   1.64000
           AHOH        -0.00020   0.00000   0.00000   0.00000   0.16000
           DDUM         0.00003   0.00000   0.00040  -0.00460   0.00009
           DH1         -0.00004   0.00000  -0.00050   0.00583  -0.00012
           DOH2        -0.00004   0.00000  -0.00048   0.00552  -0.00011
           DH2         -0.00001   0.00000  -0.00011   0.00123  -0.00002
                         DDUM       DH1      DOH2       DH2
           DDUM        43.40828
           DH1        -54.92363  69.50523
           DOH2       -51.83500  65.63737  62.38331
           DH2        -11.51535  14.58160  13.80238   3.06625
     Eigenvalues ---    0.000601000.000001000.000001000.000001000.00000
     Eigenvalues --- 1000.000001000.000001000.000001000.00000
 RFO step:  Lambda= 0.00000000D+00 EMin= 5.95317767D-04
 Quartic linear search produced a step of  2.00000.
 Variable       Old X    -DE/DX   Delta X   Delta X   Delta X     New X
                                 (Linear)    (Quad)   (Total)
    RX        5.97433  -0.00028  -0.12074   0.00000  -0.12074   5.85359
   RDUM       1.88973   0.00000   0.00000   0.00000   0.00000   1.88973
   ROH        1.80885  -0.02090   0.00000   0.00000   0.00000   1.80885
   ADUM       1.57080  -0.00254   0.00000   0.00000   0.00000   1.57080
   AHOH       1.82422   0.00097   0.00000   0.00000   0.00000   1.82422
   DDUM       0.00000   0.00000   0.00000   0.00000   0.00000   0.00000
   DH1        3.14159   0.00000   0.00000   0.00000   0.00000   3.14159
   DOH2       3.14159   0.00000   0.00000   0.00000   0.00000   3.14159
   DH2        0.00000   0.00000   0.00000   0.00000   0.00000   0.00000
         Item               Value     Threshold  Converged?
 Maximum Force            0.000280     0.000450     YES
 RMS     Force            0.000280     0.000300     YES
 Maximum Displacement     0.120742     0.001800     NO 
 RMS     Displacement     0.040247     0.001200     NO 
 Predicted change in Energy=-2.947524D-05
 GradGradGradGradGradGradGradGradGradGradGradGradGradGradGradGradGradGrad

 ---------------------------------------------------------------------------------------------------
                            Z-MATRIX (ANGSTROMS AND DEGREES)
   CD    Cent   Atom    N1       Length/X        N2       Alpha/Y        N3        Beta/Z          J
 ---------------------------------------------------------------------------------------------------
      1      1  F       -1  -1.969300          2.053680          0.000070
      2      2  C       -1  -1.222250          0.944230          0.000030
      3      3  C       -1   0.140030          1.057400         -0.000020
      4      4  C       -1   0.927950         -0.123640         -0.000080
      5      5  C       -1   2.414660         -0.018650         -0.000010
      6      6  F       -1   3.007080         -1.234610         -0.000560
      7      7  F       -1   2.858290          0.654480         -1.086020
      8      8  F       -1   2.858270          0.653500          1.086650
      9      9  C       -1   0.306540         -1.341490         -0.000090
     10     10  N       -1  -1.054170         -1.389970         -0.000060
     11     11  C       -1  -1.930500         -0.312100          0.000000
     12     12  S       -1  -3.570980         -0.506610          0.000030
     13     13  H       -1   0.596860          2.043100         -0.000020
     14     14  H       -1   0.831760         -2.288990         -0.000150
     15     15  H       -1  -1.521480         -2.296390         -0.000090
     16         X       12   1.000000(    15)     11   90.000(    34)      2    0.000(    52)      0
     17         X       16   1.000000(    16)     12   90.000(    35)     11    0.000(    53)      0
     18     16  H       12   3.097585(    17)     16   90.000(    36)     17  180.000(    54)      0
     19         X       18   1.000000(    18)     12   90.000(    37)     16    0.000(    55)      0
     20     17  O       18   0.957200(    19)     19   90.000(    38)     12  180.000(    56)      0
     21     18  H       20   0.957200(    20)     18  104.520(    39)     16    0.000(    57)      0
 ---------------------------------------------------------------------------------------------------
                         Z-Matrix orientation:                         
 ---------------------------------------------------------------------
 Center     Atomic      Atomic             Coordinates (Angstroms)
 Number     Number       Type             X           Y           Z
 ---------------------------------------------------------------------
      1          9           0       -1.969300    2.053680    0.000070
      2          6           0       -1.222250    0.944230    0.000030
      3          6           0        0.140030    1.057400   -0.000020
      4          6           0        0.927950   -0.123640   -0.000080
      5          6           0        2.414660   -0.018650   -0.000010
      6          9           0        3.007080   -1.234610   -0.000560
      7          9           0        2.858290    0.654480   -1.086020
      8          9           0        2.858270    0.653500    1.086650
      9          6           0        0.306540   -1.341490   -0.000090
     10          7           0       -1.054170   -1.389970   -0.000060
     11          6           0       -1.930500   -0.312100    0.000000
     12         16           0       -3.570980   -0.506610    0.000030
     13          1           0        0.596860    2.043100   -0.000020
     14          1           0        0.831760   -2.288990   -0.000150
     15          1           0       -1.521480   -2.296390   -0.000090
     16         -1           0       -3.688724    0.486434    0.000069
     17         -1           0       -2.695680    0.604178    0.000051
     18          1           0       -6.647019   -0.871333    0.000086
     19         -1           0       -6.764763    0.121711    0.000125
     20          8           0       -7.597560   -0.984037    0.000104
     21          1           0       -7.944983   -0.092113    0.000144
 ---------------------------------------------------------------------
                    Distance matrix (angstroms):
                    1          2          3          4          5
     1  F    0.000000
     2  C    1.337521   0.000000
     3  C    2.332777   1.366973   0.000000
     4  C    3.624194   2.400772   1.419744   0.000000
     5  C    4.849088   3.762214   2.516312   1.490413   0.000000
     6  F    5.964663   4.757581   3.670597   2.357337   1.352598
     7  F    5.142274   4.232525   2.954772   2.347541   1.352527
     8  F    5.142625   4.232719   2.955134   2.347566   1.352555
     9  C    4.087374   2.749857   2.404662   1.367227   2.488790
    10  N    3.563171   2.340244   2.723184   2.352104   3.730054
    11  C    2.366098   1.442215   2.482463   2.864656   4.355058
    12  S    3.020011   2.760701   4.027123   4.515201   6.005497
    13  H    2.566182   2.125247   1.086415   2.191890   2.748674
    14  H    5.167661   3.830492   3.417136   2.167485   2.767673
    15  H    4.373060   3.254406   3.742796   3.274225   4.547669
    16  X    2.326517   2.508600   3.871093   4.656809   6.124248
    17  X    1.621322   1.512161   2.871700   3.696000   5.148154
    18  H    5.516951   5.720523   7.055780   7.611780   9.101708
    19  X    5.170006   5.603212   6.967903   7.696624   9.180496
    20  O    6.395705   6.660540   8.002360   8.568816  10.058654
    21  H    6.349269   6.802143   8.166322   8.872989  10.359904
                    6          7          8          9         10
     6  F    0.000000
     7  F    2.183809   0.000000
     8  F    2.183834   2.172670   0.000000
     9  C    2.702654   3.416807   3.416477   0.000000
    10  N    4.064221   4.546034   4.545756   1.361573   0.000000
    11  C    5.023019   5.004620   5.004549   2.462517   1.389157
    12  S    6.618222   6.622926   6.622828   3.966382   2.667332
    13  H    4.068482   2.867355   2.868068   3.397019   3.809445
    14  H    2.417382   3.734964   3.734451   1.083334   2.089251
    15  H    4.651369   5.391592   5.391203   2.062399   1.019792
    16  X    6.913450   6.638616   6.638652   4.393568   3.234466
    17  X    5.991879   5.659387   5.659461   3.577562   2.582863
    18  H    9.660931   9.688066   9.687943   6.969435   5.616844
    19  X    9.865522   9.698799   9.698768   7.221100   5.907288
    20  O   10.607600  10.639042  10.638914   7.912179   6.555970
    21  H   11.011493  10.883375  10.883323   8.345572   7.011971
                   11         12         13         14         15
    11  C    0.000000
    12  S    1.651971   0.000000
    13  H    3.454637   4.885889   0.000000
    14  H    3.396789   4.749842   4.338454   0.000000
    15  H    2.026007   2.720986   4.828927   2.353252   0.000000
    16  X    1.931064   1.000000   4.559544   5.304503   3.527188
    17  X    1.193761   1.414214   3.593232   4.562155   3.129224
    18  H    4.749557   3.097585   7.808181   7.611956   5.319956
    19  X    4.853688   3.255002   7.608234   7.969858   5.774013
    20  O    5.706757   4.054785   8.735679   8.529733   6.216190
    21  H    6.018505   4.393599   8.804670   9.047513   6.791188
                   16         17         18         19         20
    16  X    0.000000
    17  X    1.000000   0.000000
    18  H    3.255002   4.217844   0.000000
    19  X    3.097585   4.097585   1.000000   0.000000
    20  O    4.176276   5.152752   0.957200   1.384280   0.000000
    21  H    4.295399   5.295281   1.513901   1.199434   0.957200
                   21
    21  H    0.000000
 Symmetry turned off by external request.
 Stoichiometry    C6H5F4NOS
 Framework group  C1[X(C6H5F4NOS)]
 Deg. of freedom    48
 Full point group                 C1      NOp   1
 Rotational constants (GHZ):      1.8303968      0.2370269      0.2179691
 Standard basis: 6-31G(d) (6D, 7F)
 Integral buffers will be    131072 words long.
 Raffenetti 1 integral format.
 Two-electron integral symmetry is turned off.
   209 basis functions,   408 primitive gaussians,   209 cartesian basis functions
    54 alpha electrons       54 beta electrons
       nuclear repulsion energy       888.6319169135 Hartrees.
 NAtoms=   18 NActive=   18 NUniq=   18 SFac= 7.50D-01 NAtFMM=   80 NAOKFM=F Big=F
 One-electron integrals computed using PRISM.
 NBasis=   209 RedAO= T  NBF=   209
 NBsUse=   209 1.00D-06 NBFU=   209
 Initial guess read from the read-write file.
 B after Tr=     0.000000    0.000000    0.000000
         Rot=    1.000000    0.000000    0.000000    0.000000 Ang=   0.00 deg.
 Harris functional with IExCor=  205 diagonalized for initial guess.
 ExpMin= 1.17D-01 ExpMax= 2.19D+04 ExpMxC= 3.30D+03 IAcc=1 IRadAn=         1 AccDes= 0.00D+00
 HarFok:  IExCor=  205 AccDes= 0.00D+00 IRadAn=         1 IDoV= 1
 ScaDFX=  1.000000  1.000000  1.000000  1.000000
 FoFCou: FMM=F IPFlag=           0 FMFlag=      100000 FMFlg1=           0
         NFxFlg=           0 DoJE=T BraDBF=F KetDBF=T FulRan=T
         Omega=  0.000000  0.000000  1.000000  0.000000  0.000000 ICntrl=     500 IOpCl=  0
         NMat0=    1 NMatS0=    1 NMatT0=    0 NMatD0=    1 NMtDS0=    0 NMtDT0=    0
         I1Cent=           4 NGrid=           0.
 Symmetry not used in FoFCou.
 Requested convergence on RMS density matrix=1.00D-08 within 128 cycles.
 Requested convergence on MAX density matrix=1.00D-06.
 Requested convergence on             energy=1.00D-06.
 No special actions if energy rises.
 Integral accuracy reduced to 1.0D-05 until final iterations.
 Initial convergence to 1.0D-05 achieved.  Increase integral accuracy.
 SCF Done:  E(RHF) =  -1154.67511981     A.U. after   10 cycles
             Convg  =    0.2976D-08             -V/T =  2.0018
 Calling FoFJK, ICntrl=      2127 FMM=F ISym2X=0 I1Cent= 0 IOpClX= 0 NMat=1 NMatS=1 NMatT=0.
 -------------------------------------------------------------------
 Center     Atomic                   Forces (Hartrees/Bohr)
 Number     Number              X              Y              Z
 -------------------------------------------------------------------
      1        9           0.000000000    0.000000000    0.000000000
      2        6           0.000000000    0.000000000    0.000000000
      3        6           0.000000000    0.000000000    0.000000000
      4        6           0.000000000    0.000000000    0.000000000
      5        6           0.000000000    0.000000000    0.000000000
      6        9           0.000000000    0.000000000    0.000000000
      7        9           0.000000000    0.000000000    0.000000000
      8        9           0.000000000    0.000000000    0.000000000
      9        6           0.000000000    0.000000000    0.000000000
     10        7           0.000000000    0.000000000    0.000000000
     11        6           0.000000000    0.000000000    0.000000000
     12       16           0.000000000    0.000000000    0.000000000
     13        1           0.000000000    0.000000000    0.000000000
     14        1           0.000000000    0.000000000    0.000000000
     15        1           0.000000000    0.000000000    0.000000000
     16        1          -0.009843796   -0.002375876    0.000000138
     17        8           0.006654899    0.012405018    0.000000298
     18        1           0.003390137   -0.010126971   -0.000000445
 -------------------------------------------------------------------
 Cartesian Forces:  Max     0.012405018 RMS     0.002771434
 -----------------------------------------------------------------------------------------------
                       Internal Coordinate Forces (Hartree/Bohr or radian)
  Cent   Atom   N1       Length/X         N2         Alpha/Y        N3         Beta/Z          J
 -----------------------------------------------------------------------------------------------
      1  F 
      2  C 
      3  C 
      4  C 
      5  C 
      6  F 
      7  F 
      8  F 
      9  C 
     10  N 
     11  C 
     12  S 
     13  H 
     14  H 
     15  H 
         X       12   0.000000(     1)     11  -0.000311(     7)      2   0.000000(    13)     0
         X       16   0.000000(     2)     12   0.000000(     8)     11   0.000000(    14)     0
     16  H       12  -0.000188(     3)     16  -0.000311(     9)     17   0.000000(    15)     0
         X       18   0.000000(     4)     12  -0.001018(    10)     16   0.000000(    16)     0
     17  O       18  -0.010243(     5)     19  -0.001018(    11)     12   0.000000(    17)     0
     18  H       20  -0.010667(     6)     18   0.000935(    12)     16   0.000000(    18)     0
 -----------------------------------------------------------------------------------------------
 Internal  Forces:  Max     0.010666845 RMS     0.003510958

 GradGradGradGradGradGradGradGradGradGradGradGradGradGradGradGradGradGrad
 Berny optimization.
 Search for a local minimum.
 Step number   4 out of a maximum of   20
 All quantities printed in internal units (Hartrees-Bohrs-Radians)
 Update second derivatives using D2CorN and points    3    4
 DE= -2.86D-05 DEPred=-2.95D-05 R= 9.69D-01
 SS=  1.41D+00  RLast= 1.21D-01 DXNew= 5.0454D-01 3.6223D-01
 Trust test= 9.69D-01 RLast= 1.21D-01 DXMaxT set to 3.62D-01
 The second derivative matrix:
                          RX       RDUM       ROH      ADUM      AHOH
           RX           0.00076
           RDUM         0.00000   0.00000
           ROH         -0.00010   0.00000   1.12160
           ADUM        -0.00086   0.00000   0.00000   1.64000
           AHOH        -0.00023   0.00000   0.00000   0.00000   0.16000
           DDUM         0.00001   0.00000   0.00040  -0.00460   0.00009
           DH1         -0.00002   0.00000  -0.00050   0.00583  -0.00012
           DOH2        -0.00002   0.00000  -0.00048   0.00552  -0.00011
           DH2          0.00000   0.00000  -0.00011   0.00123  -0.00002
                         DDUM       DH1      DOH2       DH2
           DDUM        43.40828
           DH1        -54.92363  69.50523
           DOH2       -51.83500  65.63737  62.38331
           DH2        -11.51535  14.58160  13.80238   3.06625
     Eigenvalues ---    0.000761000.000001000.000001000.000001000.00000
     Eigenvalues --- 1000.000001000.000001000.000001000.00000
 RFO step:  Lambda= 0.00000000D+00 EMin= 7.59770867D-04
 Quartic linear search produced a step of  1.44652.
 Variable       Old X    -DE/DX   Delta X   Delta X   Delta X     New X
                                 (Linear)    (Quad)   (Total)
    RX        5.85359  -0.00019  -0.17466   0.00000  -0.17466   5.67893
   RDUM       1.88973   0.00000   0.00000   0.00000   0.00000   1.88973
   ROH        1.80885  -0.02091   0.00000   0.00000   0.00000   1.80885
   ADUM       1.57080  -0.00266   0.00000   0.00000   0.00000   1.57080
   AHOH       1.82422   0.00093   0.00000   0.00000   0.00000   1.82422
   DDUM       0.00000   0.00000   0.00000   0.00000   0.00000   0.00000
   DH1        3.14159   0.00000   0.00000   0.00000   0.00000   3.14159
   DOH2       3.14159   0.00000   0.00000   0.00000   0.00000   3.14159
   DH2        0.00000   0.00000   0.00000   0.00000   0.00000   0.00000
         Item               Value     Threshold  Converged?
 Maximum Force            0.000188     0.000450     YES
 RMS     Force            0.000188     0.000300     YES
 Maximum Displacement     0.174656     0.001800     NO 
 RMS     Displacement     0.058219     0.001200     NO 
 Predicted change in Energy=-2.130303D-05
 GradGradGradGradGradGradGradGradGradGradGradGradGradGradGradGradGradGrad

 ---------------------------------------------------------------------------------------------------
                            Z-MATRIX (ANGSTROMS AND DEGREES)
   CD    Cent   Atom    N1       Length/X        N2       Alpha/Y        N3        Beta/Z          J
 ---------------------------------------------------------------------------------------------------
[...]
 !       DH1       180.0      -DE/DX =    0.0                           !
 !      DOH2       180.0      -DE/DX =    0.0                           !
 !       DH2         0.0      -DE/DX =    0.0                           !
 ------------------------------------------------------------------------
 GradGradGradGradGradGradGradGradGradGradGradGradGradGradGradGradGradGrad

 ---------------------------------------------------------------------------------------------------
                            Z-MATRIX (ANGSTROMS AND DEGREES)
   CD    Cent   Atom    N1       Length/X        N2       Alpha/Y        N3        Beta/Z          J
 ---------------------------------------------------------------------------------------------------
      1      1  F       -1  -1.969300          2.053680          0.000070
      2      2  C       -1  -1.222250          0.944230          0.000030
      3      3  C       -1   0.140030          1.057400         -0.000020
      4      4  C       -1   0.927950         -0.123640         -0.000080
      5      5  C       -1   2.414660         -0.018650         -0.000010
      6      6  F       -1   3.007080         -1.234610         -0.000560
      7      7  F       -1   2.858290          0.654480         -1.086020
      8      8  F       -1   2.858270          0.653500          1.086650
      9      9  C       -1   0.306540         -1.341490         -0.000090
     10     10  N       -1  -1.054170         -1.389970         -0.000060
     11     11  C       -1  -1.930500         -0.312100          0.000000
     12     12  S       -1  -3.570980         -0.506610          0.000030
     13     13  H       -1   0.596860          2.043100         -0.000020
     14     14  H       -1   0.831760         -2.288990         -0.000150
     15     15  H       -1  -1.521480         -2.296390         -0.000090
     16         X       12   1.000000(    15)     11   90.000(    34)      2    0.000(    52)      0
     17         X       16   1.000000(    16)     12   90.000(    35)     11    0.000(    53)      0
     18     16  H       12   3.006446(    17)     16   90.000(    36)     17  180.000(    54)      0
     19         X       18   1.000000(    18)     12   90.000(    37)     16    0.000(    55)      0
     20     17  O       18   0.957200(    19)     19   90.000(    38)     12  180.000(    56)      0
     21     18  H       20   0.957200(    20)     18  104.520(    39)     16    0.000(    57)      0
 ---------------------------------------------------------------------------------------------------
                         Z-Matrix orientation:                         
 ---------------------------------------------------------------------
 Center     Atomic      Atomic             Coordinates (Angstroms)
 Number     Number       Type             X           Y           Z
 ---------------------------------------------------------------------
      1          9           0       -1.969300    2.053680    0.000070
      2          6           0       -1.222250    0.944230    0.000030
      3          6           0        0.140030    1.057400   -0.000020
      4          6           0        0.927950   -0.123640   -0.000080
      5          6           0        2.414660   -0.018650   -0.000010
      6          9           0        3.007080   -1.234610   -0.000560
      7          9           0        2.858290    0.654480   -1.086020
      8          9           0        2.858270    0.653500    1.086650
      9          6           0        0.306540   -1.341490   -0.000090
     10          7           0       -1.054170   -1.389970   -0.000060
     11          6           0       -1.930500   -0.312100    0.000000
     12         16           0       -3.570980   -0.506610    0.000030
     13          1           0        0.596860    2.043100   -0.000020
     14          1           0        0.831760   -2.288990   -0.000150
     15          1           0       -1.521480   -2.296390   -0.000090
     16         -1           0       -3.688724    0.486434    0.000069
     17         -1           0       -2.695680    0.604178    0.000051
     18          1           0       -6.556513   -0.860602    0.000085
     19         -1           0       -6.674257    0.132442    0.000124
     20          8           0       -7.507055   -0.973306    0.000102
     21          1           0       -7.854478   -0.081382    0.000143
 ---------------------------------------------------------------------
                    Distance matrix (angstroms):
                    1          2          3          4          5
     1  F    0.000000
     2  C    1.337521   0.000000
     3  C    2.332777   1.366973   0.000000
     4  C    3.624194   2.400772   1.419744   0.000000
     5  C    4.849088   3.762214   2.516312   1.490413   0.000000
     6  F    5.964663   4.757581   3.670597   2.357337   1.352598
     7  F    5.142274   4.232525   2.954772   2.347541   1.352527
     8  F    5.142625   4.232719   2.955134   2.347566   1.352555
     9  C    4.087374   2.749857   2.404662   1.367227   2.488790
    10  N    3.563171   2.340244   2.723184   2.352104   3.730054
    11  C    2.366098   1.442215   2.482463   2.864656   4.355058
    12  S    3.020011   2.760701   4.027123   4.515201   6.005497
    13  H    2.566182   2.125247   1.086415   2.191890   2.748674
    14  H    5.167661   3.830492   3.417136   2.167485   2.767673
    15  H    4.373060   3.254406   3.742796   3.274225   4.547669
    16  X    2.326517   2.508600   3.871093   4.656809   6.124248
    17  X    1.621322   1.512161   2.871700   3.696000   5.148154
    18  H    5.434663   5.631321   6.965804   7.520658   9.010596
    19  X    5.082104   5.512112   6.876777   7.606519   9.090173
    20  O    6.311052   6.570823   7.912122   8.477691   9.967537
    21  H    6.260496   6.711060   8.075208   8.782529  10.269329
                    6          7          8          9         10
     6  F    0.000000
     7  F    2.183809   0.000000
     8  F    2.183834   2.172670   0.000000
     9  C    2.702654   3.416807   3.416477   0.000000
    10  N    4.064221   4.546034   4.545756   1.361573   0.000000
    11  C    5.023019   5.004620   5.004549   2.462517   1.389157
    12  S    6.618222   6.622926   6.622828   3.966382   2.667332
    13  H    4.068482   2.867355   2.868068   3.397019   3.809445
    14  H    2.417382   3.734964   3.734451   1.083334   2.089251
    15  H    4.651369   5.391592   5.391203   2.062399   1.019792
    16  X    6.913450   6.638616   6.638652   4.393568   3.234466
    17  X    5.991879   5.659387   5.659461   3.577562   2.582863
    18  H    9.570904   9.597584   9.597462   6.879880   5.527749
    19  X    9.777378   9.608418   9.608388   7.134705   5.822639
    20  O   10.517381  10.548447  10.548320   7.822265   6.466323
    21  H   10.922608  10.792805  10.792753   8.257729   6.925070
                   11         12         13         14         15
    11  C    0.000000
    12  S    1.651971   0.000000
    13  H    3.454637   4.885889   0.000000
    14  H    3.396789   4.749842   4.338454   0.000000
    15  H    2.026007   2.720986   4.828927   2.353252   0.000000
    16  X    1.931064   1.000000   4.559544   5.304503   3.527188
    17  X    1.193761   1.414214   3.593232   4.562155   3.129224
    18  H    4.658417   3.006446   7.720248   7.525083   5.235747
    19  X    4.764541   3.168394   7.517963   7.886928   5.696520
    20  O    5.615617   3.963646   8.647089   8.441970   6.130062
    21  H    5.928469   4.304552   8.714272   8.962380   6.709182
                   16         17         18         19         20
    16  X    0.000000
    17  X    1.000000   0.000000
    18  H    3.168394   4.129360   0.000000
    19  X    3.006446   4.006446   1.000000   0.000000
    20  O    4.087847   5.063377   0.957200   1.384280   0.000000
    21  H    4.204274   5.204151   1.513901   1.199434   0.957200
                   21
    21  H    0.000000
 Symmetry turned off by external request.
 Stoichiometry    C6H5F4NOS
 Framework group  C1[X(C6H5F4NOS)]
 Deg. of freedom    48
 Full point group                 C1      NOp   1
 Rotational constants (GHZ):      1.8309625      0.2395904      0.2201433

 **********************************************************************

            Population analysis using the SCF density.

 **********************************************************************

 Alpha  occ. eigenvalues --  -91.91126 -26.37060 -26.36123 -26.36121 -26.33920
 Alpha  occ. eigenvalues --  -20.54206 -15.69303 -11.54445 -11.38548 -11.37656
 Alpha  occ. eigenvalues --  -11.36554 -11.31740 -11.30774  -8.92245  -6.60585
 Alpha  occ. eigenvalues --   -6.60304  -6.60185  -1.74304  -1.65306  -1.65178
 Alpha  occ. eigenvalues --   -1.64616  -1.36067  -1.32368  -1.17563  -1.12588
 Alpha  occ. eigenvalues --   -1.03425  -0.97604  -0.93024  -0.88794  -0.85201
 Alpha  occ. eigenvalues --   -0.83943  -0.83539  -0.77422  -0.76280  -0.74273
 Alpha  occ. eigenvalues --   -0.72487  -0.71850  -0.71771  -0.70707  -0.68905
 Alpha  occ. eigenvalues --   -0.67722  -0.67721  -0.66294  -0.64434  -0.62993
 Alpha  occ. eigenvalues --   -0.61174  -0.59800  -0.55439  -0.53352  -0.48011
 Alpha  occ. eigenvalues --   -0.46982  -0.43797  -0.34870  -0.31632
 Alpha virt. eigenvalues --    0.03938   0.08288   0.16874   0.20216   0.24149
 Alpha virt. eigenvalues --    0.25343   0.26106   0.27391   0.29671   0.33293
 Alpha virt. eigenvalues --    0.34248   0.37253   0.39665   0.40419   0.42531
 Alpha virt. eigenvalues --    0.43110   0.47790   0.49220   0.53809   0.55945
 Alpha virt. eigenvalues --    0.56505   0.59765   0.63258   0.65617   0.66478
 Alpha virt. eigenvalues --    0.68390   0.72235   0.72708   0.73354   0.75028
 Alpha virt. eigenvalues --    0.76801   0.77496   0.82699   0.83966   0.87016
 Alpha virt. eigenvalues --    0.88706   0.89642   0.91864   0.95962   0.99233
 Alpha virt. eigenvalues --    1.01865   1.02528   1.04292   1.05544   1.07519
 Alpha virt. eigenvalues --    1.08469   1.09817   1.13189   1.14524   1.15319
 Alpha virt. eigenvalues --    1.17549   1.17992   1.18599   1.20303   1.24095
 Alpha virt. eigenvalues --    1.27891   1.30757   1.31513   1.33108   1.34168
 Alpha virt. eigenvalues --    1.34644   1.38783   1.41192   1.41689   1.42335
 Alpha virt. eigenvalues --    1.46230   1.47033   1.51552   1.59191   1.60459
 Alpha virt. eigenvalues --    1.61554   1.62777   1.63429   1.64023   1.64082
 Alpha virt. eigenvalues --    1.65308   1.66178   1.67119   1.69151   1.70195
 Alpha virt. eigenvalues --    1.73033   1.75626   1.76320   1.80854   1.86161
 Alpha virt. eigenvalues --    1.89554   1.92238   1.93321   1.99927   2.03786
 Alpha virt. eigenvalues --    2.03943   2.05129   2.05773   2.08527   2.09164
 Alpha virt. eigenvalues --    2.09598   2.12191   2.12436   2.17563   2.20298
 Alpha virt. eigenvalues --    2.22274   2.22281   2.24251   2.28306   2.29286
 Alpha virt. eigenvalues --    2.30281   2.32316   2.33267   2.34662   2.35826
 Alpha virt. eigenvalues --    2.37427   2.38863   2.42858   2.44847   2.45122
 Alpha virt. eigenvalues --    2.46814   2.51756   2.60517   2.61439   2.64979
 Alpha virt. eigenvalues --    2.65209   2.68113   2.74890   2.82319   2.84071
 Alpha virt. eigenvalues --    2.84105   2.91088   2.92636   2.92845   2.96580
 Alpha virt. eigenvalues --    3.00007   3.07141   3.09128   3.17014   3.21679
 Alpha virt. eigenvalues --    3.29220   3.37230   3.38186   3.42444   3.44263
 Alpha virt. eigenvalues --    3.48909   3.70731   4.06490   4.35881   4.40256
 Alpha virt. eigenvalues --    4.44856   4.47957   4.59936   4.64202   4.68510
 Alpha virt. eigenvalues --    4.82151   5.01194   5.15267   5.57087   6.01595
          Condensed to atoms (all electrons):
              1          2          3          4          5          6
     1  F    9.160406   0.267063  -0.033508   0.002210  -0.000015   0.000000
     2  C    0.267063   4.569916   0.568002  -0.026299   0.000854  -0.000019
     3  C   -0.033508   0.568002   5.060842   0.357474  -0.011852   0.002197
     4  C    0.002210  -0.026299   0.357474   5.203895   0.414540  -0.045476
     5  C   -0.000015   0.000854  -0.011852   0.414540   3.547969   0.289636
     6  F    0.000000  -0.000019   0.002197  -0.045476   0.289636   9.187335
     7  F    0.000000   0.000293   0.004973  -0.055065   0.285098  -0.030789
     8  F    0.000000   0.000292   0.004967  -0.055072   0.285106  -0.030790
     9  C    0.000132  -0.023011  -0.055096   0.590935  -0.020823   0.005549
    10  N    0.001380  -0.050858  -0.021511  -0.035314   0.001213   0.000240
    11  C   -0.041043   0.387762  -0.078167  -0.001673   0.000077   0.000002
    12  S    0.003904  -0.082001   0.001891  -0.000104   0.000006   0.000000
    13  H   -0.000281  -0.017639   0.368344  -0.029610  -0.000278   0.000035
    14  H    0.000000  -0.000105   0.001799  -0.022378  -0.000134   0.005058
    15  H   -0.000018   0.003666  -0.000553   0.002321  -0.000015   0.000001
    16  H    0.000000   0.000001   0.000000   0.000000   0.000000   0.000000
    17  O    0.000000   0.000000   0.000000   0.000000   0.000000   0.000000
    18  H    0.000000   0.000000   0.000000   0.000000   0.000000   0.000000
              7          8          9         10         11         12
     1  F    0.000000   0.000000   0.000132   0.001380  -0.041043   0.003904
     2  C    0.000293   0.000292  -0.023011  -0.050858   0.387762  -0.082001
     3  C    0.004973   0.004967  -0.055096  -0.021511  -0.078167   0.001891
     4  C   -0.055065  -0.055072   0.590935  -0.035314  -0.001673  -0.000104
     5  C    0.285098   0.285106  -0.020823   0.001213   0.000077   0.000006
     6  F   -0.030789  -0.030790   0.005549   0.000240   0.000002   0.000000
     7  F    9.200555  -0.033965   0.000538  -0.000006  -0.000002   0.000000
     8  F   -0.033965   9.200573   0.000534  -0.000006  -0.000002   0.000000
     9  C    0.000538   0.000534   4.737062   0.265991  -0.039407   0.003510
    10  N   -0.000006  -0.000006   0.265991   7.220120   0.223147  -0.103750
    11  C   -0.000002  -0.000002  -0.039407   0.223147   4.936973   0.445183
    12  S    0.000000   0.000000   0.003510  -0.103750   0.445183  15.960999
    13  H    0.000911   0.000908   0.002426  -0.000264   0.002609  -0.000058
    14  H    0.000084   0.000084   0.379550  -0.031942   0.000989  -0.000131
    15  H    0.000000   0.000000  -0.021314   0.310493  -0.018005   0.012993
    16  H    0.000000   0.000000   0.000000   0.000000  -0.000025   0.003860
    17  O    0.000000   0.000000   0.000000   0.000000   0.000004   0.000608
    18  H    0.000000   0.000000   0.000000   0.000000   0.000000   0.000050
             13         14         15         16         17         18
     1  F   -0.000281   0.000000  -0.000018   0.000000   0.000000   0.000000
     2  C   -0.017639  -0.000105   0.003666   0.000001   0.000000   0.000000
     3  C    0.368344   0.001799  -0.000553   0.000000   0.000000   0.000000
     4  C   -0.029610  -0.022378   0.002321   0.000000   0.000000   0.000000
     5  C   -0.000278  -0.000134  -0.000015   0.000000   0.000000   0.000000
     6  F    0.000035   0.005058   0.000001   0.000000   0.000000   0.000000
     7  F    0.000911   0.000084   0.000000   0.000000   0.000000   0.000000
     8  F    0.000908   0.000084   0.000000   0.000000   0.000000   0.000000
     9  C    0.002426   0.379550  -0.021314   0.000000   0.000000   0.000000
    10  N   -0.000264  -0.031942   0.310493   0.000000   0.000000   0.000000
    11  C    0.002609   0.000989  -0.018005  -0.000025   0.000004   0.000000
    12  S   -0.000058  -0.000131   0.012993   0.003860   0.000608   0.000050
    13  H    0.390146  -0.000061   0.000008   0.000000   0.000000   0.000000
    14  H   -0.000061   0.378697  -0.002075   0.000000   0.000000   0.000000
    15  H    0.000008  -0.002075   0.268144   0.000001   0.000000   0.000000
    16  H    0.000000   0.000000   0.000001   0.296245   0.262591  -0.018415
    17  O    0.000000   0.000000   0.000000   0.262591   8.356240   0.265738
    18  H    0.000000   0.000000   0.000000  -0.018415   0.265738   0.322059
 Mulliken atomic charges:
              1
     1  F   -0.360230
     2  C    0.402081
     3  C   -0.169802
     4  C   -0.300382
     5  C    1.208618
     6  F   -0.382980
     7  F   -0.372625
     8  F   -0.372630
     9  C    0.173423
    10  N   -0.778934
    11  C    0.181575
    12  S   -0.246960
    13  H    0.282804
    14  H    0.290563
    15  H    0.444352
    16  H    0.455741
    17  O   -0.885182
    18  H    0.430567
 Sum of Mulliken atomic charges =   0.00000
 Mulliken charges with hydrogens summed into heavy atoms:
              1
     1  F   -0.360230
     2  C    0.402081
     3  C    0.113002
     4  C   -0.300382
     5  C    1.208618
     6  F   -0.382980
     7  F   -0.372625
     8  F   -0.372630
     9  C    0.463986
    10  N   -0.334582
    11  C    0.181575
    12  S   -0.246960
    17  O    0.001126
 Sum of Mulliken charges with hydrogens summed into heavy atoms =   0.00000
 Electronic spatial extent (au):  <R**2>=           4675.0085
 Charge=              0.0000 electrons
 Dipole moment (field-independent basis, Debye):
    X=              5.2371    Y=             -0.7230    Z=             -0.0004  Tot=              5.2867
 Quadrupole moment (field-independent basis, Debye-Ang):
   XX=           -123.4131   YY=            -73.3385   ZZ=            -82.5213
   XY=            -14.2917   XZ=             -0.0004   YZ=              0.0006
 Traceless Quadrupole moment (field-independent basis, Debye-Ang):
   XX=            -30.3221   YY=             19.7525   ZZ=             10.5696
   XY=            -14.2917   XZ=             -0.0004   YZ=              0.0006
 Octapole moment (field-independent basis, Debye-Ang**2):
  XXX=            418.5672  YYY=             12.0069  ZZZ=             -0.0033  XYY=             90.6557
  XXY=            143.2342  XXZ=             -0.0005  XZZ=             71.2112  YZZ=             11.1114
  YYZ=             -0.0006  XYZ=             -0.0022
 Hexadecapole moment (field-independent basis, Debye-Ang**3):
 XXXX=          -6297.2139 YYYY=           -487.7589 ZZZZ=           -143.4335 XXXY=          -1249.3889
 XXXZ=              0.0046 YYYX=           -158.6192 YYYZ=             -0.0011 ZZZX=              0.0177
 ZZZY=             -0.0046 XXYY=          -1040.4544 XXZZ=           -850.3225 YYZZ=           -118.8250
 XXYZ=              0.0131 YYXZ=              0.0152 ZZXY=            -66.0776
 N-N= 8.897881061623D+02 E-N=-4.517225540632D+03  KE= 1.152545637655D+03
 1\1\GINC-B1\FOpt\RHF\6-31G(d)\C6H5F4N1O1S1\ANA\24-Sep-2021\1\\#HF/6-31
 G* Opt=Z-matrix NoSymm\\water interaction with atom S12\\0,1\F,-1,-1.9
 693,2.05368,0.00007\C,-1,-1.22225,0.94423,0.00003\C,-1,0.14003,1.0574,
 -0.00002\C,-1,0.92795,-0.12364,-0.00008\C,-1,2.41466,-0.01865,-0.00001
 \F,-1,3.00708,-1.23461,-0.00056\F,-1,2.85829,0.65448,-1.08602\F,-1,2.8
 5827,0.6535,1.08665\C,-1,0.30654,-1.34149,-0.00009\N,-1,-1.05417,-1.38
 997,-0.00006\C,-1,-1.9305,-0.3121,0.\S,-1,-3.57098,-0.50661,0.00003\H,
 -1,0.59686,2.0431,-0.00002\H,-1,0.83176,-2.28899,-0.00015\H,-1,-1.5214
 8,-2.29639,-0.00009\X,12,RDUM,11,ADUM,2,DDUM,0\X,16,RDUM,12,ADUM,11,DD
 UM,0\H,12,RX,16,ADUM,17,DH1,0\X,18,RDUM,12,ADUM,16,DDUM,0\O,18,ROH,19,
 ADUM,12,DOH2,0\H,20,ROH,18,AHOH,16,DH2,0\\RX=3.00644621\RDUM=1.\ROH=0.
 9572\ADUM=90.\AHOH=104.52\DDUM=0.\DH1=180.\DOH2=180.\DH2=0.\\Version=E
 M64L-G09RevA.01\HF=-1154.6751371\RMSD=8.914e-09\RMSF=2.786e-03\Dipole=
 2.0604227,-0.2844379,-0.0001481\Quadrupole=-22.5437431,14.6854714,7.85
 82717,-10.6255568,-0.0003269,0.0004453\PG=C01 [X(C6H5F4N1O1S1)]\\@


 IF THERE IS ONE WAY BETTER THAN ANOTHER IT IS THE WAY OF NATURE.

                          -- ARISTOTLE
 Job cpu time:  0 days  0 hours  4 minutes 59.7 seconds.
 File lengths (MBytes):  RWF=     33 Int=      0 D2E=      0 Chk=      3 Scr=      1
 Normal termination of Gaussian 09 at Fri Sep 24 08:20:41 2021.
