 Entering Gaussian System, Link 0=g09
 Initial command:
 /home/ana/programs/g09/l1.exe /home/ana/programs/g09/scratch/Gau-706411.inp -scrdir=/home/ana/programs/g09/scratch/
 Entering Link 1 = /home/ana/programs/g09/l1.exe PID=    706413.
  
 Copyright (c) 1988,1990,1992,1993,1995,1998,2003,2009, Gaussian, Inc.
                  All Rights Reserved.
  
 This is part of the Gaussian(R) 09 program.  It is based on
 the Gaussian(R) 03 system (copyright 2003, Gaussian, Inc.),
 the Gaussian(R) 98 system (copyright 1998, Gaussian, Inc.),
 the Gaussian(R) 94 system (copyright 1995, Gaussian, Inc.),
 the Gaussian 92(TM) system (copyright 1992, Gaussian, Inc.),
 the Gaussian 90(TM) system (copyright 1990, Gaussian, Inc.),
 the Gaussian 88(TM) system (copyright 1988, Gaussian, Inc.),
 the Gaussian 86(TM) system (copyright 1986, Carnegie Mellon
 University), and the Gaussian 82(TM) system (copyright 1983,
 Carnegie Mellon University). Gaussian is a federally registered
 trademark of Gaussian, Inc.
  
 This software contains proprietary and confidential information,
 including trade secrets, belonging to Gaussian, Inc.
  
 This software is provided under written license and may be
 used, copied, transmitted, or stored only in accord with that
 written license.
  
 The following legend is applicable only to US Government
 contracts under FAR:
  
                    RESTRICTED RIGHTS LEGEND
  
 Use, reproduction and disclosure by the US Government is
 subject to restrictions as set forth in subparagraphs (a)
 and (c) of the Commercial Computer Software - Restricted
 Rights clause in FAR 52.227-19.
  
 Gaussian, Inc.
 340 Quinnipiac St., Bldg. 40, Wallingford CT 06492
  
  
 ---------------------------------------------------------------
 Warning -- This program may not be used in any manner that
 competes with the business of Gaussian, Inc. or will provide
 assistance to any competitor of Gaussian, Inc.  The licensee
 of this program is prohibited from giving any competitor of
 Gaussian, Inc. access to this program.  By using this program,
 the user acknowledges that Gaussian, Inc. is engaged in the
 business of creating and licensing software in the field of
 computational chemistry and represents and warrants to the
 licensee that it is not a competitor of Gaussian, Inc. and that
 it will not use this program in any manner prohibited above.
 ---------------------------------------------------------------
  

 Cite this work as:
 Gaussian 09, Revision A.01,
 M. J. Frisch, G. W. Trucks, H. B. Schlegel, G. E. Scuseria, 
 M. A. Robb, J. R. Cheeseman, G. Scalmani, V. Barone, B. Mennucci, 
 G. A. Petersson, H. Nakatsuji, M. Caricato, X. Li, H. P. Hratchian, 
 A. F. Izmaylov, J. Bloino, G. Zheng, J. L. Sonnenberg, M. Hada, 
 M. Ehara, K. Toyota, R. Fukuda, J. Hasegawa, M. Ishida, T. Nakajima, 
 Y. Honda, O. Kitao, H. Nakai, T. Vreven, J. A. Montgomery, Jr., 
 J. E. Peralta, F. Ogliaro, M. Bearpark, J. J. Heyd, E. Brothers, 
 K. N. Kudin, V. N. Staroverov, R. Kobayashi, J. Normand, 
 K. Raghavachari, A. Rendell, J. C. Burant, S. S. Iyengar, J. Tomasi, 
 M. Cossi, N. Rega, J. M. Millam, M. Klene, J. E. Knox, J. B. Cross, 
 V. Bakken, C. Adamo, J. Jaramillo, R. Gomperts, R. E. Stratmann, 
 O. Yazyev, A. J. Austin, R. Cammi, C. Pomelli, J. W. Ochterski, 
 R. L. Martin, K. Morokuma, V. G. Zakrzewski, G. A. Voth, 
 P. Salvador, J. J. Dannenberg, S. Dapprich, A. D. Daniels, 
 O. Farkas, J. B. Foresman, J. V. Ortiz, J. Cioslowski, 
 and D. J. Fox, Gaussian, Inc., Wallingford CT, 2009.
 
 ******************************************
 Gaussian 09:  EM64L-G09RevA.01  8-May-2009
                24-Sep-2021 
 ******************************************
 %NPROC=4
 Will use up to    4 processors via shared memory.
 %NoSave
 ------------------------------
 #HF/6-31G* Opt=Z-matrix NoSymm
 ------------------------------
 1/10=7,18=40,38=1/1,3;
 2/12=2,15=1,17=6,18=5,29=3,40=1/2;
 3/5=1,6=6,7=1,11=9,16=1,25=1,30=1,71=1/1,2,3;
 4//1;
 5/5=2,38=5/2;
 6/7=2,8=2,9=2,10=2,28=1/1;
 7/29=1,30=1/1,2,3,16;
 1/10=7,18=40/3(2);
 2/15=1,29=3/2;
 99//99;
 2/15=1,29=3/2;
 3/5=1,6=6,7=1,11=9,16=1,25=1,30=1,71=1/1,2,3;
 4/5=5,16=3/1;
 5/5=2,38=5/2;
 7/30=1/1,2,3,16;
 1/18=40/3(-5);
 2/15=1,29=3/2;
 6/7=2,8=2,9=2,10=2,19=2,28=1/1;
 99/9=1/99;
 -------------------------------
 water interaction with atom S12
 -------------------------------
 Symbolic Z-matrix:
 Charge =  0 Multiplicity = 1
 9                    -1   -1.9693    2.05368   0.00007 
 6                    -1   -1.22225   0.94423   0.00003 
 6                    -1    0.14003   1.0574   -0.00002 
 6                    -1    0.92795  -0.12364  -0.00008 
 6                    -1    2.41466  -0.01865  -0.00001 
 9                    -1    3.00708  -1.23461  -0.00056 
 9                    -1    2.85829   0.65448  -1.08602 
 9                    -1    2.85827   0.6535    1.08665 
 6                    -1    0.30654  -1.34149  -0.00009 
 7                    -1   -1.05417  -1.38997  -0.00006 
 6                    -1   -1.9305   -0.3121    0. 
 16                   -1   -3.57098  -0.50661   0.00003 
 1                    -1    0.59686   2.0431   -0.00002 
 1                    -1    0.83176  -2.28899  -0.00015 
 1                    -1   -1.52148  -2.29639  -0.00009 
 X                    12   RDUM     11   ADUM     2    DDUM     0
 X                    16   RDUM     12   ADUM     11   DDUM     0
 H1                   12   RX       16   ADUM     17   DH1      0
 X                    18   RDUM     12   ADUM     16   DDUM     0
 OH2                  18   ROH      19   ADUM     12   DOH2     0
 H2                   20   ROH      18   AHOH     16   DH2      0
       Variables:
  RX                    3.0815                   
       Constants:
  RDUM                  1.                       
  ROH                   0.9572                   
  ADUM                 90.                       
  AHOH                104.52                     
  DDUM                  0.                       
  DH1                 180.                       
  DOH2                180.                       
  DH2                 270.                       
 

 GradGradGradGradGradGradGradGradGradGradGradGradGradGradGradGradGradGrad
 Berny optimization.
 Initialization pass.
                       ----------------------------
                       !    Initial Parameters    !
                       ! (Angstroms and Degrees)  !
 ----------------------                            ----------------------
 !      Name          Value   Derivative information (Atomic Units)     !
 ------------------------------------------------------------------------
 !       RX          3.0815   estimate D2E/DX2                          !
 !      RDUM         1.0      Frozen                                    !
 !       ROH         0.9572   Frozen                                    !
 !      ADUM        90.0      Frozen                                    !
 !      AHOH       104.52     Frozen                                    !
 !      DDUM         0.0      Frozen                                    !
 !       DH1       180.0      Frozen                                    !
 !      DOH2       180.0      Frozen                                    !
 !       DH2       270.0      Frozen                                    !
 ------------------------------------------------------------------------
 Trust Radius=3.00D-01 FncErr=1.00D-07 GrdErr=1.00D-07
 Number of steps in this run=  20 maximum allowed number of steps= 100.
 GradGradGradGradGradGradGradGradGradGradGradGradGradGradGradGradGradGrad

 ---------------------------------------------------------------------------------------------------
                            Z-MATRIX (ANGSTROMS AND DEGREES)
   CD    Cent   Atom    N1       Length/X        N2       Alpha/Y        N3        Beta/Z          J
 ---------------------------------------------------------------------------------------------------
      1      1  F       -1  -1.969300          2.053680          0.000070
      2      2  C       -1  -1.222250          0.944230          0.000030
      3      3  C       -1   0.140030          1.057400         -0.000020
      4      4  C       -1   0.927950         -0.123640         -0.000080
      5      5  C       -1   2.414660         -0.018650         -0.000010
      6      6  F       -1   3.007080         -1.234610         -0.000560
      7      7  F       -1   2.858290          0.654480         -1.086020
      8      8  F       -1   2.858270          0.653500          1.086650
      9      9  C       -1   0.306540         -1.341490         -0.000090
     10     10  N       -1  -1.054170         -1.389970         -0.000060
     11     11  C       -1  -1.930500         -0.312100          0.000000
     12     12  S       -1  -3.570980         -0.506610          0.000030
     13     13  H       -1   0.596860          2.043100         -0.000020
     14     14  H       -1   0.831760         -2.288990         -0.000150
     15     15  H       -1  -1.521480         -2.296390         -0.000090
     16         X       12   1.000000(    15)     11   90.000(    34)      2    0.000(    52)      0
     17         X       16   1.000000(    16)     12   90.000(    35)     11    0.000(    53)      0
     18     16  H       12   3.081500(    17)     16   90.000(    36)     17  180.000(    54)      0
     19         X       18   1.000000(    18)     12   90.000(    37)     16    0.000(    55)      0
     20     17  O       18   0.957200(    19)     19   90.000(    38)     12  180.000(    56)      0
     21     18  H       20   0.957200(    20)     18  104.520(    39)     16  270.000(    57)      0
 ---------------------------------------------------------------------------------------------------
                         Z-Matrix orientation:                         
 ---------------------------------------------------------------------
 Center     Atomic      Atomic             Coordinates (Angstroms)
 Number     Number       Type             X           Y           Z
 ---------------------------------------------------------------------
      1          9           0       -1.969300    2.053680    0.000070
      2          6           0       -1.222250    0.944230    0.000030
      3          6           0        0.140030    1.057400   -0.000020
      4          6           0        0.927950   -0.123640   -0.000080
      5          6           0        2.414660   -0.018650   -0.000010
      6          9           0        3.007080   -1.234610   -0.000560
      7          9           0        2.858290    0.654480   -1.086020
      8          9           0        2.858270    0.653500    1.086650
      9          6           0        0.306540   -1.341490   -0.000090
     10          7           0       -1.054170   -1.389970   -0.000060
     11          6           0       -1.930500   -0.312100    0.000000
     12         16           0       -3.570980   -0.506610    0.000030
     13          1           0        0.596860    2.043100   -0.000020
     14          1           0        0.831760   -2.288990   -0.000150
     15          1           0       -1.521480   -2.296390   -0.000090
     16         -1           0       -3.688724    0.486434    0.000069
     17         -1           0       -2.695680    0.604178    0.000051
     18          1           0       -6.631045   -0.869439    0.000086
     19         -1           0       -6.748789    0.123605    0.000125
     20          8           0       -7.581587   -0.982143    0.000103
     21          1           0       -7.819884   -1.010434    0.926735
 ---------------------------------------------------------------------
                    Distance matrix (angstroms):
                    1          2          3          4          5
     1  F    0.000000
     2  C    1.337521   0.000000
     3  C    2.332777   1.366973   0.000000
     4  C    3.624194   2.400772   1.419744   0.000000
     5  C    4.849088   3.762214   2.516312   1.490413   0.000000
     6  F    5.964663   4.757581   3.670597   2.357337   1.352598
     7  F    5.142274   4.232525   2.954772   2.347541   1.352527
     8  F    5.142625   4.232719   2.955134   2.347566   1.352555
     9  C    4.087374   2.749857   2.404662   1.367227   2.488790
    10  N    3.563171   2.340244   2.723184   2.352104   3.730054
    11  C    2.366098   1.442215   2.482463   2.864656   4.355058
    12  S    3.020011   2.760701   4.027123   4.515201   6.005497
    13  H    2.566182   2.125247   1.086415   2.191890   2.748674
    14  H    5.167661   3.830492   3.417136   2.167485   2.767673
    15  H    4.373060   3.254406   3.742796   3.274225   4.547669
    16  X    2.326517   2.508600   3.871093   4.656809   6.124248
    17  X    1.621322   1.512161   2.871700   3.696000   5.148154
    18  H    5.502408   5.704775   7.039898   7.595698   9.085627
    19  X    5.154484   5.587133   6.951820   7.680720   9.164553
    20  O    6.380751   6.644703   7.986432   8.552733  10.042573
    21  H    6.669095   6.943217   8.276173   8.841379  10.324165
                    6          7          8          9         10
     6  F    0.000000
     7  F    2.183809   0.000000
     8  F    2.183834   2.172670   0.000000
     9  C    2.702654   3.416807   3.416477   0.000000
    10  N    4.064221   4.546034   4.545756   1.361573   0.000000
    11  C    5.023019   5.004620   5.004549   2.462517   1.389157
    12  S    6.618222   6.622926   6.622828   3.966382   2.667332
    13  H    4.068482   2.867355   2.868068   3.397019   3.809445
    14  H    2.417382   3.734964   3.734451   1.083334   2.089251
    15  H    4.651369   5.391592   5.391203   2.062399   1.019792
    16  X    6.913450   6.638616   6.638652   4.393568   3.234466
    17  X    5.991879   5.659387   5.659461   3.577562   2.582863
    18  H    9.645040   9.672096   9.671973   6.953626   5.601115
    19  X    9.849961   9.682846   9.682815   7.205843   5.892334
    20  O   10.591676  10.623052  10.622924   7.896307   6.540145
    21  H   10.868913  10.993021  10.808201   8.185802   6.839435
                   11         12         13         14         15
    11  C    0.000000
    12  S    1.651971   0.000000
    13  H    3.454637   4.885889   0.000000
    14  H    3.396789   4.749842   4.338454   0.000000
    15  H    2.026007   2.720986   4.828927   2.353252   0.000000
    16  X    1.931064   1.000000   4.559544   5.304503   3.527188
    17  X    1.193761   1.414214   3.593232   4.562155   3.129224
    18  H    4.733471   3.081500   7.792656   7.596617   5.305077
    19  X    4.837949   3.239698   7.592300   7.955208   5.760307
    20  O    5.690671   4.038700   8.720039   8.514238   6.200979
    21  H    6.002612   4.377876   9.001362   8.794587   6.494811
                   16         17         18         19         20
    16  X    0.000000
    17  X    1.000000   0.000000
    18  H    3.239698   4.202219   0.000000
    19  X    3.081500   4.081500   1.000000   0.000000
    20  O    4.160661   5.136974   0.957200   1.384280   0.000000
    21  H    4.490635   5.451897   1.513901   1.814358   0.957200
                   21
    21  H    0.000000
 Symmetry turned off by external request.
 Stoichiometry    C6H5F4NOS
 Framework group  C1[X(C6H5F4NOS)]
 Deg. of freedom    48
 Full point group                 C1      NOp   1
 Rotational constants (GHZ):      1.8244736      0.2374663      0.2184142
 Standard basis: 6-31G(d) (6D, 7F)
 Integral buffers will be    131072 words long.
 Raffenetti 1 integral format.
 Two-electron integral symmetry is turned off.
   209 basis functions,   408 primitive gaussians,   209 cartesian basis functions
    54 alpha electrons       54 beta electrons
       nuclear repulsion energy       888.8048598170 Hartrees.
 NAtoms=   18 NActive=   18 NUniq=   18 SFac= 7.50D-01 NAtFMM=   80 NAOKFM=F Big=F
 One-electron integrals computed using PRISM.
 NBasis=   209 RedAO= T  NBF=   209
 NBsUse=   209 1.00D-06 NBFU=   209
 Harris functional with IExCor=  205 diagonalized for initial guess.
 ExpMin= 1.17D-01 ExpMax= 2.19D+04 ExpMxC= 3.30D+03 IAcc=1 IRadAn=         1 AccDes= 0.00D+00
 HarFok:  IExCor=  205 AccDes= 0.00D+00 IRadAn=         1 IDoV= 1
 ScaDFX=  1.000000  1.000000  1.000000  1.000000
 FoFCou: FMM=F IPFlag=           0 FMFlag=      100000 FMFlg1=           0
         NFxFlg=           0 DoJE=T BraDBF=F KetDBF=T FulRan=T
         Omega=  0.000000  0.000000  1.000000  0.000000  0.000000 ICntrl=     500 IOpCl=  0
         NMat0=    1 NMatS0=    1 NMatT0=    0 NMatD0=    1 NMtDS0=    0 NMtDT0=    0
         I1Cent=           4 NGrid=           0.
 Symmetry not used in FoFCou.
 Requested convergence on RMS density matrix=1.00D-08 within 128 cycles.
 Requested convergence on MAX density matrix=1.00D-06.
 Requested convergence on             energy=1.00D-06.
 No special actions if energy rises.
 Integral accuracy reduced to 1.0D-05 until final iterations.
 Initial convergence to 1.0D-05 achieved.  Increase integral accuracy.
 SCF Done:  E(RHF) =  -1154.67471720     A.U. after   15 cycles
             Convg  =    0.5561D-08             -V/T =  2.0018

 **********************************************************************

            Population analysis using the SCF density.

 **********************************************************************

 Alpha  occ. eigenvalues --  -91.91093 -26.37057 -26.36117 -26.36106 -26.33832
 Alpha  occ. eigenvalues --  -20.54293 -15.69296 -11.54436 -11.38517 -11.37621
 Alpha  occ. eigenvalues --  -11.36539 -11.31701 -11.30763  -8.92210  -6.60550
 Alpha  occ. eigenvalues --   -6.60269  -6.60149  -1.74297  -1.65300  -1.65085
 Alpha  occ. eigenvalues --   -1.64605  -1.36059  -1.32452  -1.17544  -1.12560
 Alpha  occ. eigenvalues --   -1.03402  -0.97586  -0.92999  -0.88769  -0.85173
 Alpha  occ. eigenvalues --   -0.83933  -0.83530  -0.77392  -0.76246  -0.74233
 Alpha  occ. eigenvalues --   -0.72473  -0.71837  -0.71686  -0.70677  -0.68977
 Alpha  occ. eigenvalues --   -0.67715  -0.67711  -0.66286  -0.64375  -0.62981
 Alpha  occ. eigenvalues --   -0.61150  -0.59771  -0.55485  -0.53330  -0.48086
 Alpha  occ. eigenvalues --   -0.46962  -0.43765  -0.34821  -0.31608
 Alpha virt. eigenvalues --    0.03959   0.08306   0.16830   0.20094   0.24171
 Alpha virt. eigenvalues --    0.25345   0.26127   0.27159   0.29697   0.33339
 Alpha virt. eigenvalues --    0.34228   0.37002   0.39611   0.40430   0.42521
 Alpha virt. eigenvalues --    0.43118   0.47600   0.49163   0.53819   0.55943
 Alpha virt. eigenvalues --    0.56520   0.59745   0.63302   0.65262   0.66489
 Alpha virt. eigenvalues --    0.68270   0.72141   0.72734   0.73363   0.75053
 Alpha virt. eigenvalues --    0.76816   0.77523   0.82707   0.83986   0.87049
 Alpha virt. eigenvalues --    0.88730   0.89662   0.91878   0.95898   0.99239
 Alpha virt. eigenvalues --    1.01883   1.02486   1.04099   1.05487   1.07594
 Alpha virt. eigenvalues --    1.08510   1.09715   1.13125   1.14576   1.15386
 Alpha virt. eigenvalues --    1.17467   1.17820   1.18487   1.20120   1.24093
 Alpha virt. eigenvalues --    1.27924   1.30804   1.31526   1.33119   1.34102
 Alpha virt. eigenvalues --    1.34653   1.38803   1.41241   1.41710   1.42244
 Alpha virt. eigenvalues --    1.46242   1.47025   1.51622   1.58671   1.60470
 Alpha virt. eigenvalues --    1.61560   1.61817   1.63450   1.64040   1.64109
 Alpha virt. eigenvalues --    1.65316   1.66198   1.67142   1.69226   1.70188
 Alpha virt. eigenvalues --    1.72842   1.75651   1.76311   1.80872   1.86181
 Alpha virt. eigenvalues --    1.89566   1.92249   1.93321   1.99940   2.03718
 Alpha virt. eigenvalues --    2.03963   2.05065   2.05782   2.08456   2.09195
 Alpha virt. eigenvalues --    2.09673   2.12201   2.12451   2.17631   2.20291
 Alpha virt. eigenvalues --    2.22291   2.22307   2.24276   2.28313   2.29306
 Alpha virt. eigenvalues --    2.30294   2.32331   2.33292   2.34672   2.35838
 Alpha virt. eigenvalues --    2.37452   2.38868   2.42921   2.44862   2.45141
 Alpha virt. eigenvalues --    2.46831   2.51773   2.60541   2.61467   2.64906
 Alpha virt. eigenvalues --    2.65076   2.68122   2.74912   2.82341   2.84124
 Alpha virt. eigenvalues --    2.84126   2.91089   2.92637   2.92866   2.96483
 Alpha virt. eigenvalues --    3.00023   3.07151   3.09148   3.17026   3.21693
 Alpha virt. eigenvalues --    3.29244   3.37240   3.38195   3.42513   3.44274
 Alpha virt. eigenvalues --    3.48944   3.70751   4.05608   4.35872   4.40104
 Alpha virt. eigenvalues --    4.44853   4.47968   4.59922   4.64175   4.68521
 Alpha virt. eigenvalues --    4.82087   5.01201   5.15274   5.57150   6.01616
          Condensed to atoms (all electrons):
              1          2          3          4          5          6
     1  F    9.158966   0.267492  -0.033517   0.002208  -0.000015   0.000000
     2  C    0.267492   4.568243   0.568780  -0.026475   0.000849  -0.000019
     3  C   -0.033517   0.568780   5.061173   0.357434  -0.011851   0.002195
     4  C    0.002208  -0.026475   0.357434   5.203516   0.414594  -0.045490
     5  C   -0.000015   0.000849  -0.011851   0.414594   3.548060   0.289566
     6  F    0.000000  -0.000019   0.002195  -0.045490   0.289566   9.187525
     7  F    0.000000   0.000293   0.004970  -0.055055   0.285170  -0.030790
     8  F    0.000000   0.000292   0.004965  -0.055061   0.285050  -0.030787
     9  C    0.000132  -0.022868  -0.055201   0.591108  -0.020841   0.005555
    10  N    0.001383  -0.051331  -0.021534  -0.035267   0.001212   0.000241
    11  C   -0.040973   0.387931  -0.078716  -0.001640   0.000077   0.000002
    12  S    0.003912  -0.082488   0.001834  -0.000104   0.000006   0.000000
    13  H   -0.000279  -0.017564   0.368330  -0.029677  -0.000278   0.000035
    14  H    0.000000  -0.000104   0.001800  -0.022330  -0.000136   0.005061
    15  H   -0.000018   0.003686  -0.000550   0.002316  -0.000015   0.000001
    16  H    0.000000   0.000000   0.000000   0.000000   0.000000   0.000000
    17  O    0.000000   0.000000   0.000000   0.000000   0.000000   0.000000
    18  H    0.000000   0.000000   0.000000   0.000000   0.000000   0.000000
              7          8          9         10         11         12
     1  F    0.000000   0.000000   0.000132   0.001383  -0.040973   0.003912
     2  C    0.000293   0.000292  -0.022868  -0.051331   0.387931  -0.082488
     3  C    0.004970   0.004965  -0.055201  -0.021534  -0.078716   0.001834
     4  C   -0.055055  -0.055061   0.591108  -0.035267  -0.001640  -0.000104
     5  C    0.285170   0.285050  -0.020841   0.001212   0.000077   0.000006
     6  F   -0.030790  -0.030787   0.005555   0.000241   0.000002   0.000000
     7  F    9.200328  -0.033964   0.000537  -0.000006  -0.000002   0.000000
     8  F   -0.033964   9.200699   0.000533  -0.000006  -0.000002   0.000000
     9  C    0.000537   0.000533   4.737865   0.265358  -0.039245   0.003525
    10  N   -0.000006  -0.000006   0.265358   7.223725   0.220770  -0.104079
    11  C   -0.000002  -0.000002  -0.039245   0.220770   4.938217   0.446179
    12  S    0.000000   0.000000   0.003525  -0.104079   0.446179  15.961710
    13  H    0.000910   0.000907   0.002425  -0.000263   0.002615  -0.000058
    14  H    0.000084   0.000084   0.379599  -0.032008   0.000980  -0.000131
    15  H    0.000000   0.000000  -0.021328   0.310431  -0.018002   0.013220
    16  H    0.000000   0.000000   0.000000   0.000000  -0.000020   0.003262
    17  O    0.000000   0.000000   0.000000   0.000000   0.000003   0.000505
    18  H    0.000000   0.000000   0.000000   0.000000   0.000000   0.000032
             13         14         15         16         17         18
     1  F   -0.000279   0.000000  -0.000018   0.000000   0.000000   0.000000
     2  C   -0.017564  -0.000104   0.003686   0.000000   0.000000   0.000000
     3  C    0.368330   0.001800  -0.000550   0.000000   0.000000   0.000000
     4  C   -0.029677  -0.022330   0.002316   0.000000   0.000000   0.000000
     5  C   -0.000278  -0.000136  -0.000015   0.000000   0.000000   0.000000
     6  F    0.000035   0.005061   0.000001   0.000000   0.000000   0.000000
     7  F    0.000910   0.000084   0.000000   0.000000   0.000000   0.000000
     8  F    0.000907   0.000084   0.000000   0.000000   0.000000   0.000000
     9  C    0.002425   0.379599  -0.021328   0.000000   0.000000   0.000000
    10  N   -0.000263  -0.032008   0.310431   0.000000   0.000000   0.000000
    11  C    0.002615   0.000980  -0.018002  -0.000020   0.000003   0.000000
    12  S   -0.000058  -0.000131   0.013220   0.003262   0.000505   0.000032
    13  H    0.389926  -0.000061   0.000008   0.000000   0.000000   0.000000
    14  H   -0.000061   0.379183  -0.002088   0.000000   0.000000   0.000000
    15  H    0.000008  -0.002088   0.269062   0.000000   0.000000   0.000000
    16  H    0.000000   0.000000   0.000000   0.298616   0.263126  -0.018410
    17  O    0.000000   0.000000   0.000000   0.263126   8.352970   0.265365
    18  H    0.000000   0.000000   0.000000  -0.018410   0.265365   0.323625
 Mulliken atomic charges:
              1
     1  F   -0.359292
     2  C    0.403282
     3  C   -0.170111
     4  C   -0.300077
     5  C    1.208550
     6  F   -0.383096
     7  F   -0.372475
     8  F   -0.372710
     9  C    0.172846
    10  N   -0.778625
    11  C    0.181826
    12  S   -0.247327
    13  H    0.283025
    14  H    0.290066
    15  H    0.443276
    16  H    0.453424
    17  O   -0.881969
    18  H    0.429388
 Sum of Mulliken atomic charges =   0.00000
 Mulliken charges with hydrogens summed into heavy atoms:
              1
     1  F   -0.359292
     2  C    0.403282
     3  C    0.112914
     4  C   -0.300077
     5  C    1.208550
     6  F   -0.383096
     7  F   -0.372475
     8  F   -0.372710
     9  C    0.462913
    10  N   -0.335348
    11  C    0.181826
    12  S   -0.247327
    17  O    0.000842
 Sum of Mulliken charges with hydrogens summed into heavy atoms =   0.00000
 Electronic spatial extent (au):  <R**2>=           4715.8188
 Charge=              0.0000 electrons
 Dipole moment (field-independent basis, Debye):
    X=              5.4151    Y=             -2.4078    Z=              1.7114  Tot=              6.1685
 Quadrupole moment (field-independent basis, Debye-Ang):
   XX=           -126.7598   YY=            -72.0691   ZZ=            -80.2714
   XY=             -0.6708   XZ=            -13.7997   YZ=             -1.7802
 Traceless Quadrupole moment (field-independent basis, Debye-Ang):
   XX=            -33.7264   YY=             20.9643   ZZ=             12.7620
   XY=             -0.6708   XZ=            -13.7997   YZ=             -1.7802
 Octapole moment (field-independent basis, Debye-Ang**2):
  XXX=            462.3536  YYY=             13.2284  ZZZ=              0.4325  XYY=             80.4428
  XXY=             36.0661  XXZ=            109.5273  XZZ=             54.2004  YZZ=              9.3085
  YYZ=              1.4277  XYZ=             14.1843
 Hexadecapole moment (field-independent basis, Debye-Ang**3):
 XXXX=          -6803.1762 YYYY=           -492.9160 ZZZZ=           -143.1924 XXXY=           -414.6832
 XXXZ=           -864.4456 YYYX=           -166.8336 YYYZ=             -0.7548 ZZZX=             -3.8851
 ZZZY=             -0.5059 XXYY=           -960.9438 XXZZ=           -722.0116 YYZZ=           -117.4321
 XXYZ=           -112.3047 YYXZ=            -11.6181 ZZXY=            -52.3427
 N-N= 8.888048598170D+02 E-N=-4.515275643908D+03  KE= 1.152544726974D+03
 Calling FoFJK, ICntrl=      2127 FMM=F ISym2X=0 I1Cent= 0 IOpClX= 0 NMat=1 NMatS=1 NMatT=0.
 -------------------------------------------------------------------
 Center     Atomic                   Forces (Hartrees/Bohr)
 Number     Number              X              Y              Z
 -------------------------------------------------------------------
      1        9           0.000000000    0.000000000    0.000000000
      2        6           0.000000000    0.000000000    0.000000000
      3        6           0.000000000    0.000000000    0.000000000
      4        6           0.000000000    0.000000000    0.000000000
      5        6           0.000000000    0.000000000    0.000000000
      6        9           0.000000000    0.000000000    0.000000000
      7        9           0.000000000    0.000000000    0.000000000
      8        9           0.000000000    0.000000000    0.000000000
      9        6           0.000000000    0.000000000    0.000000000
     10        7           0.000000000    0.000000000    0.000000000
     11        6           0.000000000    0.000000000    0.000000000
     12       16           0.000000000    0.000000000    0.000000000
     13        1           0.000000000    0.000000000    0.000000000
     14        1           0.000000000    0.000000000    0.000000000
     15        1           0.000000000    0.000000000    0.000000000
     16        1          -0.010052734   -0.000759244   -0.001594874
     17        8           0.008089336    0.000410422    0.011913189
     18        1           0.002010293    0.000457536   -0.010541855
 -------------------------------------------------------------------
 Cartesian Forces:  Max     0.011913189 RMS     0.002812303
 -----------------------------------------------------------------------------------------------
                       Internal Coordinate Forces (Hartree/Bohr or radian)
  Cent   Atom   N1       Length/X         N2         Alpha/Y        N3         Beta/Z          J
 -----------------------------------------------------------------------------------------------
      1  F 
      2  C 
      3  C 
      4  C 
      5  C 
      6  F 
      7  F 
      8  F 
      9  C 
     10  N 
     11  C 
     12  S 
     13  H 
     14  H 
     15  H 
         X       12   0.000000(     1)     11  -0.000103(     7)      2   0.000380(    13)     0
         X       16   0.000000(     2)     12   0.000000(     8)     11  -0.000011(    14)     0
     16  H       12  -0.000059(     3)     16  -0.000103(     9)     17   0.000011(    15)     0
         X       18   0.000000(     4)     12   0.000493(    10)     16   0.000000(    16)     0
     17  O       18  -0.010132(     5)     19   0.000493(    11)     12  -0.000118(    17)     0
     18  H       20  -0.010719(     6)     18   0.001190(    12)     16   0.000380(    18)     0
 -----------------------------------------------------------------------------------------------
 Internal  Forces:  Max     0.010719187 RMS     0.003494294

 GradGradGradGradGradGradGradGradGradGradGradGradGradGradGradGradGradGrad
 Berny optimization.
 Search for a local minimum.
 Step number   1 out of a maximum of   20
 All quantities printed in internal units (Hartrees-Bohrs-Radians)
 Second derivative matrix not updated -- first step.
 The second derivative matrix:
                          RX       RDUM       ROH      ADUM      AHOH
           RX           0.01260
           RDUM         0.00000   0.00000
           ROH          0.00000   0.00000   1.12160
           ADUM         0.00000   0.00000   0.00000   1.64000
           AHOH         0.00000   0.00000   0.00000   0.00000   0.16000
           DDUM         0.00000   0.00000   0.00000   0.00000   0.00000
           DH1          0.00000   0.00000   0.00000   0.00000   0.00000
           DOH2         0.00000   0.00000   0.00000   0.00000   0.00000
           DH2          0.00000   0.00000   0.00000   0.00000   0.00000
                         DDUM       DH1      DOH2       DH2
           DDUM         0.16225
           DH1         -0.16225   0.16225
           DOH2         0.00000   0.00000   0.25351
           DH2          0.00000   0.00000   0.00000   0.00000
     Eigenvalues ---    0.012601000.000001000.000001000.000001000.00000
     Eigenvalues --- 1000.000001000.000001000.000001000.00000
 RFO step:  Lambda=-2.79824442D-07 EMin= 1.25977939D-02
 Linear search not attempted -- first point.
 Variable       Old X    -DE/DX   Delta X   Delta X   Delta X     New X
                                 (Linear)    (Quad)   (Total)
    RX        5.82319  -0.00006   0.00000  -0.00471  -0.00471   5.81848
   RDUM       1.88973   0.00000   0.00000   0.00000   0.00000   1.88973
   ROH        1.80885  -0.02085   0.00000   0.00000   0.00000   1.80885
   ADUM       1.57080   0.00078   0.00000   0.00000   0.00000   1.57080
   AHOH       1.82422   0.00119   0.00000   0.00000   0.00000   1.82422
   DDUM       0.00000   0.00037   0.00000   0.00000   0.00000   0.00000
   DH1        3.14159   0.00001   0.00000   0.00000   0.00000   3.14159
   DOH2       3.14159  -0.00012   0.00000   0.00000   0.00000   3.14159
   DH2        4.71239   0.00038   0.00000   0.00000   0.00000   4.71239
         Item               Value     Threshold  Converged?
 Maximum Force            0.000059     0.000450     YES
 RMS     Force            0.000059     0.000300     YES
 Maximum Displacement     0.004713     0.001800     NO 
 RMS     Displacement     0.001571     0.001200     NO 
 Predicted change in Energy=-1.399122D-07
 GradGradGradGradGradGradGradGradGradGradGradGradGradGradGradGradGradGrad

 ---------------------------------------------------------------------------------------------------
                            Z-MATRIX (ANGSTROMS AND DEGREES)
   CD    Cent   Atom    N1       Length/X        N2       Alpha/Y        N3        Beta/Z          J
 ---------------------------------------------------------------------------------------------------
      1      1  F       -1  -1.969300          2.053680          0.000070
      2      2  C       -1  -1.222250          0.944230          0.000030
      3      3  C       -1   0.140030          1.057400         -0.000020
      4      4  C       -1   0.927950         -0.123640         -0.000080
      5      5  C       -1   2.414660         -0.018650         -0.000010
      6      6  F       -1   3.007080         -1.234610         -0.000560
      7      7  F       -1   2.858290          0.654480         -1.086020
      8      8  F       -1   2.858270          0.653500          1.086650
      9      9  C       -1   0.306540         -1.341490         -0.000090
     10     10  N       -1  -1.054170         -1.389970         -0.000060
     11     11  C       -1  -1.930500         -0.312100          0.000000
     12     12  S       -1  -3.570980         -0.506610          0.000030
     13     13  H       -1   0.596860          2.043100         -0.000020
     14     14  H       -1   0.831760         -2.288990         -0.000150
     15     15  H       -1  -1.521480         -2.296390         -0.000090
     16         X       12   1.000000(    15)     11   90.000(    34)      2    0.000(    52)      0
     17         X       16   1.000000(    16)     12   90.000(    35)     11    0.000(    53)      0
     18     16  H       12   3.079006(    17)     16   90.000(    36)     17  180.000(    54)      0
     19         X       18   1.000000(    18)     12   90.000(    37)     16    0.000(    55)      0
     20     17  O       18   0.957200(    19)     19   90.000(    38)     12  180.000(    56)      0
     21     18  H       20   0.957200(    20)     18  104.520(    39)     16  270.000(    57)      0
 ---------------------------------------------------------------------------------------------------
                         Z-Matrix orientation:                         
 ---------------------------------------------------------------------
 Center     Atomic      Atomic             Coordinates (Angstroms)
 Number     Number       Type             X           Y           Z
 ---------------------------------------------------------------------
      1          9           0       -1.969300    2.053680    0.000070
      2          6           0       -1.222250    0.944230    0.000030
      3          6           0        0.140030    1.057400   -0.000020
      4          6           0        0.927950   -0.123640   -0.000080
      5          6           0        2.414660   -0.018650   -0.000010
      6          9           0        3.007080   -1.234610   -0.000560
      7          9           0        2.858290    0.654480   -1.086020
      8          9           0        2.858270    0.653500    1.086650
      9          6           0        0.306540   -1.341490   -0.000090
     10          7           0       -1.054170   -1.389970   -0.000060
     11          6           0       -1.930500   -0.312100    0.000000
     12         16           0       -3.570980   -0.506610    0.000030
     13          1           0        0.596860    2.043100   -0.000020
     14          1           0        0.831760   -2.288990   -0.000150
     15          1           0       -1.521480   -2.296390   -0.000090
     16         -1           0       -3.688724    0.486434    0.000069
     17         -1           0       -2.695680    0.604178    0.000051
     18          1           0       -6.628568   -0.869145    0.000086
     19         -1           0       -6.746313    0.123899    0.000125
     20          8           0       -7.579110   -0.981850    0.000103
     21          1           0       -7.817407   -1.010141    0.926735
 ---------------------------------------------------------------------
                    Distance matrix (angstroms):
                    1          2          3          4          5
     1  F    0.000000
     2  C    1.337521   0.000000
     3  C    2.332777   1.366973   0.000000
     4  C    3.624194   2.400772   1.419744   0.000000
     5  C    4.849088   3.762214   2.516312   1.490413   0.000000
     6  F    5.964663   4.757581   3.670597   2.357337   1.352598
     7  F    5.142274   4.232525   2.954772   2.347541   1.352527
     8  F    5.142625   4.232719   2.955134   2.347566   1.352555
     9  C    4.087374   2.749857   2.404662   1.367227   2.488790
    10  N    3.563171   2.340244   2.723184   2.352104   3.730054
    11  C    2.366098   1.442215   2.482463   2.864656   4.355058
    12  S    3.020011   2.760701   4.027123   4.515201   6.005497
    13  H    2.566182   2.125247   1.086415   2.191890   2.748674
    14  H    5.167661   3.830492   3.417136   2.167485   2.767673
    15  H    4.373060   3.254406   3.742796   3.274225   4.547669
    16  X    2.326517   2.508600   3.871093   4.656809   6.124248
    17  X    1.621322   1.512161   2.871700   3.696000   5.148154
    18  H    5.500153   5.702334   7.037436   7.593204   9.083134
    19  X    5.152078   5.584641   6.949326   7.678254   9.162082
    20  O    6.378433   6.642248   7.983963   8.550239  10.040079
    21  H    6.666788   6.940781   8.273718   8.838899  10.321681
                    6          7          8          9         10
     6  F    0.000000
     7  F    2.183809   0.000000
     8  F    2.183834   2.172670   0.000000
     9  C    2.702654   3.416807   3.416477   0.000000
    10  N    4.064221   4.546034   4.545756   1.361573   0.000000
    11  C    5.023019   5.004620   5.004549   2.462517   1.389157
    12  S    6.618222   6.622926   6.622828   3.966382   2.667332
    13  H    4.068482   2.867355   2.868068   3.397019   3.809445
    14  H    2.417382   3.734964   3.734451   1.083334   2.089251
    15  H    4.651369   5.391592   5.391203   2.062399   1.019792
    16  X    6.913450   6.638616   6.638652   4.393568   3.234466
    17  X    5.991879   5.659387   5.659461   3.577562   2.582863
    18  H    9.642577   9.669619   9.669497   6.951175   5.598676
    19  X    9.847549   9.680373   9.680342   7.203478   5.890016
    20  O   10.589207  10.620572  10.620445   7.893847   6.537691
    21  H   10.866452  10.990571  10.805709   8.183356   6.837002
                   11         12         13         14         15
    11  C    0.000000
    12  S    1.651971   0.000000
    13  H    3.454637   4.885889   0.000000
    14  H    3.396789   4.749842   4.338454   0.000000
    15  H    2.026007   2.720986   4.828927   2.353252   0.000000
    16  X    1.931064   1.000000   4.559544   5.304503   3.527188
    17  X    1.193761   1.414214   3.593232   4.562155   3.129224
    18  H    4.730977   3.079006   7.790249   7.594239   5.302771
    19  X    4.835509   3.237326   7.589830   7.952938   5.758183
    20  O    5.688177   4.036206   8.717615   8.511836   6.198621
    21  H    6.000148   4.375439   8.998947   8.792193   6.492468
                   16         17         18         19         20
    16  X    0.000000
    17  X    1.000000   0.000000
    18  H    3.237326   4.199796   0.000000
    19  X    3.079006   4.079006   1.000000   0.000000
    20  O    4.158240   5.134527   0.957200   1.384280   0.000000
    21  H    4.488259   5.449482   1.513901   1.814358   0.957200
                   21
    21  H    0.000000
 Symmetry turned off by external request.
 Stoichiometry    C6H5F4NOS
 Framework group  C1[X(C6H5F4NOS)]
 Deg. of freedom    48
 Full point group                 C1      NOp   1
 Rotational constants (GHZ):      1.8244886      0.2375363      0.2184736
 Standard basis: 6-31G(d) (6D, 7F)
 Integral buffers will be    131072 words long.
 Raffenetti 1 integral format.
 Two-electron integral symmetry is turned off.
   209 basis functions,   408 primitive gaussians,   209 cartesian basis functions
    54 alpha electrons       54 beta electrons
       nuclear repulsion energy       888.8361274717 Hartrees.
 NAtoms=   18 NActive=   18 NUniq=   18 SFac= 7.50D-01 NAtFMM=   80 NAOKFM=F Big=F
 One-electron integrals computed using PRISM.
 NBasis=   209 RedAO= T  NBF=   209
 NBsUse=   209 1.00D-06 NBFU=   209
 Initial guess read from the read-write file.
 B after Tr=     0.000000    0.000000    0.000000
         Rot=    1.000000    0.000000    0.000000    0.000000 Ang=   0.00 deg.
 Requested convergence on RMS density matrix=1.00D-08 within 128 cycles.
 Requested convergence on MAX density matrix=1.00D-06.
 Requested convergence on             energy=1.00D-06.
 No special actions if energy rises.
 SCF Done:  E(RHF) =  -1154.67471747     A.U. after    5 cycles
             Convg  =    0.6564D-08             -V/T =  2.0018
 Calling FoFJK, ICntrl=      2127 FMM=F ISym2X=0 I1Cent= 0 IOpClX= 0 NMat=1 NMatS=1 NMatT=0.
 -------------------------------------------------------------------
 Center     Atomic                   Forces (Hartrees/Bohr)
 Number     Number              X              Y              Z
 -------------------------------------------------------------------
      1        9           0.000000000    0.000000000    0.000000000
      2        6           0.000000000    0.000000000    0.000000000
      3        6           0.000000000    0.000000000    0.000000000
      4        6           0.000000000    0.000000000    0.000000000
      5        6           0.000000000    0.000000000    0.000000000
      6        9           0.000000000    0.000000000    0.000000000
      7        9           0.000000000    0.000000000    0.000000000
      8        9           0.000000000    0.000000000    0.000000000
      9        6           0.000000000    0.000000000    0.000000000
     10        7           0.000000000    0.000000000    0.000000000
     11        6           0.000000000    0.000000000    0.000000000
     12       16           0.000000000    0.000000000    0.000000000
     13        1           0.000000000    0.000000000    0.000000000
     14        1           0.000000000    0.000000000    0.000000000
     15        1           0.000000000    0.000000000    0.000000000
     16        1          -0.010057437   -0.000759364   -0.001596043
     17        8           0.008088876    0.000409813    0.011914015
     18        1           0.002010788    0.000457808   -0.010542005
 -------------------------------------------------------------------
 Cartesian Forces:  Max     0.011914015 RMS     0.002812684
 -----------------------------------------------------------------------------------------------
                       Internal Coordinate Forces (Hartree/Bohr or radian)
  Cent   Atom   N1       Length/X         N2         Alpha/Y        N3         Beta/Z          J
 -----------------------------------------------------------------------------------------------
      1  F 
      2  C 
      3  C 
      4  C 
      5  C 
      6  F 
      7  F 
      8  F 
      9  C 
     10  N 
     11  C 
     12  S 
     13  H 
     14  H 
     15  H 
         X       12   0.000000(     1)     11  -0.000103(     7)      2   0.000381(    13)     0
         X       16   0.000000(     2)     12   0.000000(     8)     11  -0.000011(    14)     0
     16  H       12  -0.000055(     3)     16  -0.000103(     9)     17   0.000011(    15)     0
         X       18   0.000000(     4)     12   0.000494(    10)     16   0.000000(    16)     0
     17  O       18  -0.010132(     5)     19   0.000494(    11)     12  -0.000120(    17)     0
     18  H       20  -0.010719(     6)     18   0.001190(    12)     16   0.000381(    18)     0
 -----------------------------------------------------------------------------------------------
 Internal  Forces:  Max     0.010719464 RMS     0.003494335

 GradGradGradGradGradGradGradGradGradGradGradGradGradGradGradGradGradGrad
 Berny optimization.
 Search for a local minimum.
 Step number   2 out of a maximum of   20
 All quantities printed in internal units (Hartrees-Bohrs-Radians)
 Update second derivatives using D2CorN and points    2
 DE= -2.69D-07 DEPred=-1.40D-07 R= 1.92D+00
 Trust test= 1.92D+00 RLast= 4.71D-03 DXMaxT set to 3.00D-01
 The second derivative matrix:
                          RX       RDUM       ROH      ADUM      AHOH
           RX           0.01260
           RDUM         0.00000   0.00000
           ROH          0.00000   0.00000   1.12160
           ADUM         0.00000   0.00000   0.00000   1.64000
           AHOH         0.00000   0.00000   0.00000   0.00000   0.16000
           DDUM         0.00000   0.00000   0.00000   0.00000   0.00000
           DH1          0.00000   0.00000   0.00000   0.00000   0.00000
           DOH2         0.00000   0.00000   0.00000   0.00000   0.00000
           DH2          0.00000   0.00000   0.00000   0.00000   0.00000
                         DDUM       DH1      DOH2       DH2
           DDUM         0.16225
           DH1         -0.16225   0.16225
           DOH2         0.00000   0.00000   0.25351
           DH2          0.00000   0.00000   0.00000   0.00000
     Eigenvalues ---    0.012601000.000001000.000001000.000001000.00000
     Eigenvalues --- 1000.000001000.000001000.000001000.00000
 RFO step:  Lambda= 0.00000000D+00 EMin= 1.25977939D-02
 Quartic linear search produced a step of  2.00000.
 Variable       Old X    -DE/DX   Delta X   Delta X   Delta X     New X
                                 (Linear)    (Quad)   (Total)
    RX        5.81848  -0.00005  -0.00943   0.00000  -0.00943   5.80905
   RDUM       1.88973   0.00000   0.00000   0.00000   0.00000   1.88973
   ROH        1.80885  -0.02085   0.00000   0.00000   0.00000   1.80885
   ADUM       1.57080   0.00078   0.00000   0.00000   0.00000   1.57080
   AHOH       1.82422   0.00119   0.00000   0.00000   0.00000   1.82422
   DDUM       0.00000   0.00037   0.00000   0.00000   0.00000   0.00000
   DH1        3.14159   0.00001   0.00000   0.00000   0.00000   3.14159
   DOH2       3.14159  -0.00012   0.00000   0.00000   0.00000   3.14159
   DH2        4.71239   0.00038   0.00000   0.00000   0.00000   4.71239
         Item               Value     Threshold  Converged?
 Maximum Force            0.000055     0.000450     YES
 RMS     Force            0.000055     0.000300     YES
 Maximum Displacement     0.009426     0.001800     NO 
 RMS     Displacement     0.003142     0.001200     NO 
 Predicted change in Energy=-4.419270D-08
 GradGradGradGradGradGradGradGradGradGradGradGradGradGradGradGradGradGrad

 ---------------------------------------------------------------------------------------------------
                            Z-MATRIX (ANGSTROMS AND DEGREES)
   CD    Cent   Atom    N1       Length/X        N2       Alpha/Y        N3        Beta/Z          J
 ---------------------------------------------------------------------------------------------------
      1      1  F       -1  -1.969300          2.053680          0.000070
      2      2  C       -1  -1.222250          0.944230          0.000030
      3      3  C       -1   0.140030          1.057400         -0.000020
      4      4  C       -1   0.927950         -0.123640         -0.000080
      5      5  C       -1   2.414660         -0.018650         -0.000010
      6      6  F       -1   3.007080         -1.234610         -0.000560
      7      7  F       -1   2.858290          0.654480         -1.086020
      8      8  F       -1   2.858270          0.653500          1.086650
      9      9  C       -1   0.306540         -1.341490         -0.000090
     10     10  N       -1  -1.054170         -1.389970         -0.000060
     11     11  C       -1  -1.930500         -0.312100          0.000000
     12     12  S       -1  -3.570980         -0.506610          0.000030
     13     13  H       -1   0.596860          2.043100         -0.000020
     14     14  H       -1   0.831760         -2.288990         -0.000150
     15     15  H       -1  -1.521480         -2.296390         -0.000090
     16         X       12   1.000000(    15)     11   90.000(    34)      2    0.000(    52)      0
     17         X       16   1.000000(    16)     12   90.000(    35)     11    0.000(    53)      0
     18     16  H       12   3.074018(    17)     16   90.000(    36)     17  180.000(    54)      0
     19         X       18   1.000000(    18)     12   90.000(    37)     16    0.000(    55)      0
     20     17  O       18   0.957200(    19)     19   90.000(    38)     12  180.000(    56)      0
     21     18  H       20   0.957200(    20)     18  104.520(    39)     16  270.000(    57)      0
 ---------------------------------------------------------------------------------------------------
                         Z-Matrix orientation:                         
 ---------------------------------------------------------------------
 Center     Atomic      Atomic             Coordinates (Angstroms)
 Number     Number       Type             X           Y           Z
 ---------------------------------------------------------------------
      1          9           0       -1.969300    2.053680    0.000070
      2          6           0       -1.222250    0.944230    0.000030
      3          6           0        0.140030    1.057400   -0.000020
      4          6           0        0.927950   -0.123640   -0.000080
      5          6           0        2.414660   -0.018650   -0.000010
      6          9           0        3.007080   -1.234610   -0.000560
      7          9           0        2.858290    0.654480   -1.086020
      8          9           0        2.858270    0.653500    1.086650
      9          6           0        0.306540   -1.341490   -0.000090
     10          7           0       -1.054170   -1.389970   -0.000060
     11          6           0       -1.930500   -0.312100    0.000000
     12         16           0       -3.570980   -0.506610    0.000030
     13          1           0        0.596860    2.043100   -0.000020
     14          1           0        0.831760   -2.288990   -0.000150
     15          1           0       -1.521480   -2.296390   -0.000090
     16         -1           0       -3.688724    0.486434    0.000069
     17         -1           0       -2.695680    0.604178    0.000051
     18          1           0       -6.623615   -0.868558    0.000086
     19         -1           0       -6.741359    0.124486    0.000125
     20          8           0       -7.574157   -0.981262    0.000103
     21          1           0       -7.812454   -1.009554    0.926735
 ---------------------------------------------------------------------
                    Distance matrix (angstroms):
                    1          2          3          4          5
     1  F    0.000000
     2  C    1.337521   0.000000
     3  C    2.332777   1.366973   0.000000
     4  C    3.624194   2.400772   1.419744   0.000000
     5  C    4.849088   3.762214   2.516312   1.490413   0.000000
     6  F    5.964663   4.757581   3.670597   2.357337   1.352598
     7  F    5.142274   4.232525   2.954772   2.347541   1.352527
     8  F    5.142625   4.232719   2.955134   2.347566   1.352555
     9  C    4.087374   2.749857   2.404662   1.367227   2.488790
    10  N    3.563171   2.340244   2.723184   2.352104   3.730054
    11  C    2.366098   1.442215   2.482463   2.864656   4.355058
    12  S    3.020011   2.760701   4.027123   4.515201   6.005497
    13  H    2.566182   2.125247   1.086415   2.191890   2.748674
    14  H    5.167661   3.830492   3.417136   2.167485   2.767673
    15  H    4.373060   3.254406   3.742796   3.274225   4.547669
    16  X    2.326517   2.508600   3.871093   4.656809   6.124248
    17  X    1.621322   1.512161   2.871700   3.696000   5.148154
    18  H    5.495646   5.697451   7.032511   7.588217   9.078147
    19  X    5.147265   5.579655   6.944339   7.673322   9.157138
    20  O    6.373798   6.637337   7.979024   8.545252  10.035093
    21  H    6.662173   6.935909   8.268807   8.833939  10.316715
                    6          7          8          9         10
     6  F    0.000000
     7  F    2.183809   0.000000
     8  F    2.183834   2.172670   0.000000
     9  C    2.702654   3.416807   3.416477   0.000000
    10  N    4.064221   4.546034   4.545756   1.361573   0.000000
    11  C    5.023019   5.004620   5.004549   2.462517   1.389157
    12  S    6.618222   6.622926   6.622828   3.966382   2.667332
    13  H    4.068482   2.867355   2.868068   3.397019   3.809445
    14  H    2.417382   3.734964   3.734451   1.083334   2.089251
    15  H    4.651369   5.391592   5.391203   2.062399   1.019792
    16  X    6.913450   6.638616   6.638652   4.393568   3.234466
    17  X    5.991879   5.659387   5.659461   3.577562   2.582863
    18  H    9.637649   9.664667   9.664545   6.946274   5.593799
    19  X    9.842724   9.675426   9.675395   7.198748   5.885380
    20  O   10.584269  10.615614  10.615487   7.888926   6.532784
    21  H   10.861530  10.985671  10.800725   8.178462   6.832135
                   11         12         13         14         15
    11  C    0.000000
    12  S    1.651971   0.000000
    13  H    3.454637   4.885889   0.000000
    14  H    3.396789   4.749842   4.338454   0.000000
    15  H    2.026007   2.720986   4.828927   2.353252   0.000000
    16  X    1.931064   1.000000   4.559544   5.304503   3.527188
    17  X    1.193761   1.414214   3.593232   4.562155   3.129224
    18  H    4.725989   3.074018   7.785436   7.589483   5.298159
    19  X    4.830629   3.232582   7.584889   7.948396   5.753936
    20  O    5.683189   4.031218   8.712766   8.507032   6.193905
    21  H    5.995220   4.370564   8.994116   8.787406   6.487781
                   16         17         18         19         20
    16  X    0.000000
    17  X    1.000000   0.000000
    18  H    3.232582   4.194952   0.000000
    19  X    3.074018   4.074018   1.000000   0.000000
    20  O    4.153399   5.129635   0.957200   1.384280   0.000000
    21  H    4.483507   5.444653   1.513901   1.814358   0.957200
                   21
    21  H    0.000000
 Symmetry turned off by external request.
 Stoichiometry    C6H5F4NOS
 Framework group  C1[X(C6H5F4NOS)]
 Deg. of freedom    48
 Full point group                 C1      NOp   1
 Rotational constants (GHZ):      1.8245186      0.2376762      0.2185924
 Standard basis: 6-31G(d) (6D, 7F)
 Integral buffers will be    131072 words long.
 Raffenetti 1 integral format.
 Two-electron integral symmetry is turned off.
   209 basis functions,   408 primitive gaussians,   209 cartesian basis functions
    54 alpha electrons       54 beta electrons
       nuclear repulsion energy       888.8987505783 Hartrees.
 NAtoms=   18 NActive=   18 NUniq=   18 SFac= 7.50D-01 NAtFMM=   80 NAOKFM=F Big=F
 One-electron integrals computed using PRISM.
 NBasis=   209 RedAO= T  NBF=   209
 NBsUse=   209 1.00D-06 NBFU=   209
 Initial guess read from the read-write file.
 B after Tr=     0.000000    0.000000    0.000000
         Rot=    1.000000    0.000000    0.000000    0.000000 Ang=   0.00 deg.
 Requested convergence on RMS density matrix=1.00D-08 within 128 cycles.
 Requested convergence on MAX density matrix=1.00D-06.
 Requested convergence on             energy=1.00D-06.
 No special actions if energy rises.
 SCF Done:  E(RHF) =  -1154.67471794     A.U. after    6 cycles
             Convg  =    0.8404D-08             -V/T =  2.0018
 Calling FoFJK, ICntrl=      2127 FMM=F ISym2X=0 I1Cent= 0 IOpClX= 0 NMat=1 NMatS=1 NMatT=0.
 -------------------------------------------------------------------
 Center     Atomic                   Forces (Hartrees/Bohr)
 Number     Number              X              Y              Z
 -------------------------------------------------------------------
      1        9           0.000000000    0.000000000    0.000000000
      2        6           0.000000000    0.000000000    0.000000000
      3        6           0.000000000    0.000000000    0.000000000
      4        6           0.000000000    0.000000000    0.000000000
      5        6           0.000000000    0.000000000    0.000000000
      6        9           0.000000000    0.000000000    0.000000000
      7        9           0.000000000    0.000000000    0.000000000
      8        9           0.000000000    0.000000000    0.000000000
      9        6           0.000000000    0.000000000    0.000000000
     10        7           0.000000000    0.000000000    0.000000000
     11        6           0.000000000    0.000000000    0.000000000
     12       16           0.000000000    0.000000000    0.000000000
     13        1           0.000000000    0.000000000    0.000000000
     14        1           0.000000000    0.000000000    0.000000000
     15        1           0.000000000    0.000000000    0.000000000
     16        1          -0.010067111   -0.000759643   -0.001598451
     17        8           0.008088084    0.000408620    0.011915699
     18        1           0.002011761    0.000458348   -0.010542273
 -------------------------------------------------------------------
 Cartesian Forces:  Max     0.011915699 RMS     0.002813471
 -----------------------------------------------------------------------------------------------
                       Internal Coordinate Forces (Hartree/Bohr or radian)
  Cent   Atom   N1       Length/X         N2         Alpha/Y        N3         Beta/Z          J
 -----------------------------------------------------------------------------------------------
      1  F 
      2  C 
      3  C 
      4  C 
      5  C 
      6  F 
      7  F 
      8  F 
      9  C 
     10  N 
     11  C 
     12  S 
     13  H 
     14  H 
     15  H 
         X       12   0.000000(     1)     11  -0.000102(     7)      2   0.000382(    13)     0
         X       16   0.000000(     2)     12   0.000000(     8)     11  -0.000010(    14)     0
     16  H       12  -0.000045(     3)     16  -0.000102(     9)     17   0.000010(    15)     0
         X       18   0.000000(     4)     12   0.000495(    10)     16   0.000000(    16)     0
     17  O       18  -0.010132(     5)     19   0.000495(    11)     12  -0.000124(    17)     0
     18  H       20  -0.010720(     6)     18   0.001188(    12)     16   0.000382(    18)     0
 -----------------------------------------------------------------------------------------------
 Internal  Forces:  Max     0.010719981 RMS     0.003494430

 GradGradGradGradGradGradGradGradGradGradGradGradGradGradGradGradGradGrad
 Berny optimization.
 Search for a local minimum.
 Step number   3 out of a maximum of   20
 All quantities printed in internal units (Hartrees-Bohrs-Radians)
 Update second derivatives using D2CorN and points    2    3
 DE= -4.71D-07 DEPred=-4.42D-08 R= 1.07D+01
 Trust test= 1.07D+01 RLast= 9.43D-03 DXMaxT set to 3.00D-01
 The second derivative matrix:
                          RX       RDUM       ROH      ADUM      AHOH
           RX           0.00101
           RDUM         0.00000   0.00000
           ROH         -0.00003   0.00000   1.12160
           ADUM         0.00020   0.00000   0.00000   1.64000
           AHOH        -0.00009   0.00000   0.00000   0.00000   0.16000
           DDUM         0.00007   0.00000   0.00000   0.00000   0.00000
           DH1         -0.00003   0.00000   0.00000   0.00000   0.00000
           DOH2        -0.00021   0.00000   0.00000   0.00000   0.00000
           DH2          0.00004   0.00000   0.00000   0.00000   0.00000
                         DDUM       DH1      DOH2       DH2
           DDUM         0.16225
           DH1         -0.16225   0.16225
           DOH2         0.00000   0.00000   0.25351
           DH2          0.00000   0.00000   0.00000   0.00000
     Eigenvalues ---    0.001011000.000001000.000001000.000001000.00000
     Eigenvalues --- 1000.000001000.000001000.000001000.00000
 RFO step:  Lambda= 0.00000000D+00 EMin= 1.01164022D-03
 Quartic linear search produced a step of  2.00000.
 Variable       Old X    -DE/DX   Delta X   Delta X   Delta X     New X
                                 (Linear)    (Quad)   (Total)
    RX        5.80905  -0.00005  -0.01885   0.00000  -0.01885   5.79020
   RDUM       1.88973   0.00000   0.00000   0.00000   0.00000   1.88973
   ROH        1.80885  -0.02085   0.00000   0.00000   0.00000   1.80885
   ADUM       1.57080   0.00079   0.00000   0.00000   0.00000   1.57080
   AHOH       1.82422   0.00119   0.00000   0.00000   0.00000   1.82422
   DDUM       0.00000   0.00037   0.00000   0.00000   0.00000   0.00000
   DH1        3.14159   0.00001   0.00000   0.00000   0.00000   3.14159
   DOH2       3.14159  -0.00012   0.00000   0.00000   0.00000   3.14159
   DH2        4.71239   0.00038   0.00000   0.00000   0.00000   4.71239
         Item               Value     Threshold  Converged?
 Maximum Force            0.000045     0.000450     YES
 RMS     Force            0.000045     0.000300     YES
 Maximum Displacement     0.018852     0.001800     NO 
 RMS     Displacement     0.006284     0.001200     NO 
 Predicted change in Energy=-6.713469D-07
 GradGradGradGradGradGradGradGradGradGradGradGradGradGradGradGradGradGrad

 ---------------------------------------------------------------------------------------------------
                            Z-MATRIX (ANGSTROMS AND DEGREES)
   CD    Cent   Atom    N1       Length/X        N2       Alpha/Y        N3        Beta/Z          J
 ---------------------------------------------------------------------------------------------------
      1      1  F       -1  -1.969300          2.053680          0.000070
      2      2  C       -1  -1.222250          0.944230          0.000030
      3      3  C       -1   0.140030          1.057400         -0.000020
      4      4  C       -1   0.927950         -0.123640         -0.000080
      5      5  C       -1   2.414660         -0.018650         -0.000010
      6      6  F       -1   3.007080         -1.234610         -0.000560
      7      7  F       -1   2.858290          0.654480         -1.086020
      8      8  F       -1   2.858270          0.653500          1.086650
      9      9  C       -1   0.306540         -1.341490         -0.000090
     10     10  N       -1  -1.054170         -1.389970         -0.000060
     11     11  C       -1  -1.930500         -0.312100          0.000000
     12     12  S       -1  -3.570980         -0.506610          0.000030
     13     13  H       -1   0.596860          2.043100         -0.000020
     14     14  H       -1   0.831760         -2.288990         -0.000150
     15     15  H       -1  -1.521480         -2.296390         -0.000090
     16         X       12   1.000000(    15)     11   90.000(    34)      2    0.000(    52)      0
     17         X       16   1.000000(    16)     12   90.000(    35)     11    0.000(    53)      0
     18     16  H       12   3.064042(    17)     16   90.000(    36)     17  180.000(    54)      0
     19         X       18   1.000000(    18)     12   90.000(    37)     16    0.000(    55)      0
     20     17  O       18   0.957200(    19)     19   90.000(    38)     12  180.000(    56)      0
     21     18  H       20   0.957200(    20)     18  104.520(    39)     16  270.000(    57)      0
 ---------------------------------------------------------------------------------------------------
                         Z-Matrix orientation:                         
 ---------------------------------------------------------------------
 Center     Atomic      Atomic             Coordinates (Angstroms)
 Number     Number       Type             X           Y           Z
 ---------------------------------------------------------------------
      1          9           0       -1.969300    2.053680    0.000070
      2          6           0       -1.222250    0.944230    0.000030
      3          6           0        0.140030    1.057400   -0.000020
      4          6           0        0.927950   -0.123640   -0.000080
      5          6           0        2.414660   -0.018650   -0.000010
      6          9           0        3.007080   -1.234610   -0.000560
      7          9           0        2.858290    0.654480   -1.086020
      8          9           0        2.858270    0.653500    1.086650
      9          6           0        0.306540   -1.341490   -0.000090
     10          7           0       -1.054170   -1.389970   -0.000060
     11          6           0       -1.930500   -0.312100    0.000000
     12         16           0       -3.570980   -0.506610    0.000030
     13          1           0        0.596860    2.043100   -0.000020
     14          1           0        0.831760   -2.288990   -0.000150
     15          1           0       -1.521480   -2.296390   -0.000090
     16         -1           0       -3.688724    0.486434    0.000069
     17         -1           0       -2.695680    0.604178    0.000051
     18          1           0       -6.613709   -0.867383    0.000086
     19         -1           0       -6.731453    0.125661    0.000125
     20          8           0       -7.564250   -0.980088    0.000103
     21          1           0       -7.802547   -1.008379    0.926735
 ---------------------------------------------------------------------
                    Distance matrix (angstroms):
                    1          2          3          4          5
     1  F    0.000000
     2  C    1.337521   0.000000
     3  C    2.332777   1.366973   0.000000
     4  C    3.624194   2.400772   1.419744   0.000000
     5  C    4.849088   3.762214   2.516312   1.490413   0.000000
     6  F    5.964663   4.757581   3.670597   2.357337   1.352598
     7  F    5.142274   4.232525   2.954772   2.347541   1.352527
     8  F    5.142625   4.232719   2.955134   2.347566   1.352555
     9  C    4.087374   2.749857   2.404662   1.367227   2.488790
    10  N    3.563171   2.340244   2.723184   2.352104   3.730054
    11  C    2.366098   1.442215   2.482463   2.864656   4.355058
    12  S    3.020011   2.760701   4.027123   4.515201   6.005497
    13  H    2.566182   2.125247   1.086415   2.191890   2.748674
    14  H    5.167661   3.830492   3.417136   2.167485   2.767673
    15  H    4.373060   3.254406   3.742796   3.274225   4.547669
    16  X    2.326517   2.508600   3.871093   4.656809   6.124248
    17  X    1.621322   1.512161   2.871700   3.696000   5.148154
    18  H    5.486633   5.687686   7.022662   7.578243   9.068175
    19  X    5.137641   5.569683   6.934365   7.663459   9.147251
    20  O    6.364528   6.627516   7.969146   8.535278  10.025119
    21  H    6.652946   6.926166   8.258986   8.824020  10.306781
                    6          7          8          9         10
     6  F    0.000000
     7  F    2.183809   0.000000
     8  F    2.183834   2.172670   0.000000
     9  C    2.702654   3.416807   3.416477   0.000000
    10  N    4.064221   4.546034   4.545756   1.361573   0.000000
    11  C    5.023019   5.004620   5.004549   2.462517   1.389157
    12  S    6.618222   6.622926   6.622828   3.966382   2.667332
    13  H    4.068482   2.867355   2.868068   3.397019   3.809445
    14  H    2.417382   3.734964   3.734451   1.083334   2.089251
    15  H    4.651369   5.391592   5.391203   2.062399   1.019792
    16  X    6.913450   6.638616   6.638652   4.393568   3.234466
    17  X    5.991879   5.659387   5.659461   3.577562   2.582863
    18  H    9.627795   9.654763   9.654641   6.936470   5.584046
    19  X    9.833075   9.665533   9.665502   7.189289   5.876111
    20  O   10.574394  10.605698  10.605571   7.879083   6.522971
    21  H   10.851686  10.975871  10.790757   8.168676   6.822401
                   11         12         13         14         15
    11  C    0.000000
    12  S    1.651971   0.000000
    13  H    3.454637   4.885889   0.000000
    14  H    3.396789   4.749842   4.338454   0.000000
    15  H    2.026007   2.720986   4.828927   2.353252   0.000000
    16  X    1.931064   1.000000   4.559544   5.304503   3.527188
    17  X    1.193761   1.414214   3.593232   4.562155   3.129224
    18  H    4.716014   3.064042   7.775810   7.579972   5.288937
    19  X    4.820870   3.223097   7.575008   7.939315   5.745446
    20  O    5.673214   4.021242   8.703068   8.497424   6.184475
    21  H    5.985364   4.360816   8.984456   8.777832   6.478409
                   16         17         18         19         20
    16  X    0.000000
    17  X    1.000000   0.000000
    18  H    3.223097   4.185265   0.000000
    19  X    3.064042   4.064042   1.000000   0.000000
    20  O    4.143717   5.119851   0.957200   1.384280   0.000000
    21  H    4.474004   5.434995   1.513901   1.814358   0.957200
                   21
    21  H    0.000000
 Symmetry turned off by external request.
 Stoichiometry    C6H5F4NOS
 Framework group  C1[X(C6H5F4NOS)]
 Deg. of freedom    48
 Full point group                 C1      NOp   1
 Rotational constants (GHZ):      1.8245786      0.2379563      0.2188301
 Standard basis: 6-31G(d) (6D, 7F)
 Integral buffers will be    131072 words long.
 Raffenetti 1 integral format.
 Two-electron integral symmetry is turned off.
   209 basis functions,   408 primitive gaussians,   209 cartesian basis functions
    54 alpha electrons       54 beta electrons
       nuclear repulsion energy       889.0243492770 Hartrees.
 NAtoms=   18 NActive=   18 NUniq=   18 SFac= 7.50D-01 NAtFMM=   80 NAOKFM=F Big=F
 One-electron integrals computed using PRISM.
 NBasis=   209 RedAO= T  NBF=   209
 NBsUse=   209 1.00D-06 NBFU=   209
 Initial guess read from the read-write file.
 B after Tr=     0.000000    0.000000    0.000000
         Rot=    1.000000    0.000000    0.000000    0.000000 Ang=   0.00 deg.
 Requested convergence on RMS density matrix=1.00D-08 within 128 cycles.
 Requested convergence on MAX density matrix=1.00D-06.
 Requested convergence on             energy=1.00D-06.
 No special actions if energy rises.
 SCF Done:  E(RHF) =  -1154.67471861     A.U. after    7 cycles
             Convg  =    0.6098D-08             -V/T =  2.0018
 Calling FoFJK, ICntrl=      2127 FMM=F ISym2X=0 I1Cent= 0 IOpClX= 0 NMat=1 NMatS=1 NMatT=0.
 -------------------------------------------------------------------
 Center     Atomic                   Forces (Hartrees/Bohr)
 Number     Number              X              Y              Z
 -------------------------------------------------------------------
      1        9           0.000000000    0.000000000    0.000000000
      2        6           0.000000000    0.000000000    0.000000000
      3        6           0.000000000    0.000000000    0.000000000
      4        6           0.000000000    0.000000000    0.000000000
      5        6           0.000000000    0.000000000    0.000000000
      6        9           0.000000000    0.000000000    0.000000000
      7        9           0.000000000    0.000000000    0.000000000
      8        9           0.000000000    0.000000000    0.000000000
      9        6           0.000000000    0.000000000    0.000000000
     10        7           0.000000000    0.000000000    0.000000000
     11        6           0.000000000    0.000000000    0.000000000
     12       16           0.000000000    0.000000000    0.000000000
     13        1           0.000000000    0.000000000    0.000000000
     14        1           0.000000000    0.000000000    0.000000000
     15        1           0.000000000    0.000000000    0.000000000
     16        1          -0.010086953   -0.000760253   -0.001603289
     17        8           0.008086352    0.000406206    0.011919086
     18        1           0.002013711    0.000459431   -0.010542820
 -------------------------------------------------------------------
 Cartesian Forces:  Max     0.011919086 RMS     0.002815075
 -----------------------------------------------------------------------------------------------
                       Internal Coordinate Forces (Hartree/Bohr or radian)
  Cent   Atom   N1       Length/X         N2         Alpha/Y        N3         Beta/Z          J
 -----------------------------------------------------------------------------------------------
      1  F 
      2  C 
      3  C 
      4  C 
      5  C 
      6  F 
      7  F 
      8  F 
      9  C 
     10  N 
     11  C 
     12  S 
     13  H 
     14  H 
     15  H 
         X       12   0.000000(     1)     11  -0.000100(     7)      2   0.000383(    13)     0
         X       16   0.000000(     2)     12   0.000000(     8)     11  -0.000009(    14)     0
     16  H       12  -0.000025(     3)     16  -0.000100(     9)     17   0.000009(    15)     0
         X       18   0.000000(     4)     12   0.000497(    10)     16   0.000000(    16)     0
     17  O       18  -0.010132(     5)     19   0.000497(    11)     12  -0.000132(    17)     0
     18  H       20  -0.010721(     6)     18   0.001185(    12)     16   0.000383(    18)     0
 -----------------------------------------------------------------------------------------------
 Internal  Forces:  Max     0.010721029 RMS     0.003494603

 GradGradGradGradGradGradGradGradGradGradGradGradGradGradGradGradGradGrad
 Berny optimization.
 Search for a local minimum.
 Step number   4 out of a maximum of   20
 All quantities printed in internal units (Hartrees-Bohrs-Radians)
 Update second derivatives using D2CorN and points    3    4
 DE= -6.67D-07 DEPred=-6.71D-07 R= 9.93D-01
 Trust test= 9.93D-01 RLast= 1.89D-02 DXMaxT set to 3.00D-01
 The second derivative matrix:
                          RX       RDUM       ROH      ADUM      AHOH
           RX           0.00105
           RDUM         0.00000   0.00000
           ROH         -0.00005   0.00000   1.12160
           ADUM         0.00030   0.00000   0.00000   1.64000
           AHOH        -0.00013   0.00000   0.00000   0.00000   0.16000
           DDUM         0.00011   0.00000   0.00000   0.00000   0.00000
           DH1         -0.00005   0.00000   0.00000   0.00000   0.00000
           DOH2        -0.00031   0.00000   0.00000   0.00000   0.00000
           DH2          0.00006   0.00000   0.00000   0.00000   0.00000
                         DDUM       DH1      DOH2       DH2
           DDUM         0.16225
           DH1         -0.16225   0.16225
           DOH2         0.00000   0.00000   0.25351
           DH2          0.00000   0.00000   0.00000   0.00000
     Eigenvalues ---    0.001051000.000001000.000001000.000001000.00000
     Eigenvalues --- 1000.000001000.000001000.000001000.00000
 RFO step:  Lambda= 0.00000000D+00 EMin= 1.04590164D-03
 Quartic linear search produced a step of  1.22916.
 Variable       Old X    -DE/DX   Delta X   Delta X   Delta X     New X
                                 (Linear)    (Quad)   (Total)
    RX        5.79020  -0.00003  -0.02317   0.00000  -0.02317   5.76703
   RDUM       1.88973   0.00000   0.00000   0.00000   0.00000   1.88973
   ROH        1.80885  -0.02085   0.00000   0.00000   0.00000   1.80885
   ADUM       1.57080   0.00079   0.00000   0.00000   0.00000   1.57080
   AHOH       1.82422   0.00118   0.00000   0.00000   0.00000   1.82422
   DDUM       0.00000   0.00037   0.00000   0.00000   0.00000   0.00000
   DH1        3.14159   0.00001   0.00000   0.00000   0.00000   3.14159
   DOH2       3.14159  -0.00013   0.00000   0.00000   0.00000   3.14159
   DH2        4.71239   0.00038   0.00000   0.00000   0.00000   4.71239
         Item               Value     Threshold  Converged?
 Maximum Force            0.000025     0.000450     YES
 RMS     Force            0.000025     0.000300     YES
 Maximum Displacement     0.023172     0.001800     NO 
 RMS     Displacement     0.007724     0.001200     NO 
 Predicted change in Energy=-3.084934D-07
 GradGradGradGradGradGradGradGradGradGradGradGradGradGradGradGradGradGrad

 ---------------------------------------------------------------------------------------------------
                            Z-MATRIX (ANGSTROMS AND DEGREES)
   CD    Cent   Atom    N1       Length/X        N2       Alpha/Y        N3        Beta/Z          J
 ---------------------------------------------------------------------------------------------------
      1      1  F       -1  -1.969300          2.053680          0.000070
      2      2  C       -1  -1.222250          0.944230          0.000030
      3      3  C       -1   0.140030          1.057400         -0.000020
      4      4  C       -1   0.927950         -0.123640         -0.000080
      5      5  C       -1   2.414660         -0.018650         -0.000010
      6      6  F       -1   3.007080         -1.234610         -0.000560
      7      7  F       -1   2.858290          0.654480         -1.086020
      8      8  F       -1   2.858270          0.653500          1.086650
      9      9  C       -1   0.306540         -1.341490         -0.000090
     10     10  N       -1  -1.054170         -1.389970         -0.000060
     11     11  C       -1  -1.930500         -0.312100          0.000000
     12     12  S       -1  -3.570980         -0.506610          0.000030
     13     13  H       -1   0.596860          2.043100         -0.000020
     14     14  H       -1   0.831760         -2.288990         -0.000150
     15     15  H       -1  -1.521480         -2.296390         -0.000090
     16         X       12   1.000000(    15)     11   90.000(    34)      2    0.000(    52)      0
     17         X       16   1.000000(    16)     12   90.000(    35)     11    0.000(    53)      0
     18     16  H       12   3.051781(    17)     16   90.000(    36)     17  180.000(    54)      0
     19         X       18   1.000000(    18)     12   90.000(    37)     16    0.000(    55)      0
     20     17  O       18   0.957200(    19)     19   90.000(    38)     12  180.000(    56)      0
     21     18  H       20   0.957200(    20)     18  104.520(    39)     16  270.000(    57)      0
 ---------------------------------------------------------------------------------------------------
                         Z-Matrix orientation:                         
 ---------------------------------------------------------------------
 Center     Atomic      Atomic             Coordinates (Angstroms)
 Number     Number       Type             X           Y           Z
 ---------------------------------------------------------------------
      1          9           0       -1.969300    2.053680    0.000070
      2          6           0       -1.222250    0.944230    0.000030
      3          6           0        0.140030    1.057400   -0.000020
      4          6           0        0.927950   -0.123640   -0.000080
      5          6           0        2.414660   -0.018650   -0.000010
      6          9           0        3.007080   -1.234610   -0.000560
[...]
   CD    Cent   Atom    N1       Length/X        N2       Alpha/Y        N3        Beta/Z          J
 ---------------------------------------------------------------------------------------------------
      1      1  F       -1  -1.969300          2.053680          0.000070
      2      2  C       -1  -1.222250          0.944230          0.000030
      3      3  C       -1   0.140030          1.057400         -0.000020
      4      4  C       -1   0.927950         -0.123640         -0.000080
      5      5  C       -1   2.414660         -0.018650         -0.000010
      6      6  F       -1   3.007080         -1.234610         -0.000560
      7      7  F       -1   2.858290          0.654480         -1.086020
      8      8  F       -1   2.858270          0.653500          1.086650
      9      9  C       -1   0.306540         -1.341490         -0.000090
     10     10  N       -1  -1.054170         -1.389970         -0.000060
     11     11  C       -1  -1.930500         -0.312100          0.000000
     12     12  S       -1  -3.570980         -0.506610          0.000030
     13     13  H       -1   0.596860          2.043100         -0.000020
     14     14  H       -1   0.831760         -2.288990         -0.000150
     15     15  H       -1  -1.521480         -2.296390         -0.000090
     16         X       12   1.000000(    15)     11   90.000(    34)      2    0.000(    52)      0
     17         X       16   1.000000(    16)     12   90.000(    35)     11    0.000(    53)      0
     18     16  H       12   3.051781(    17)     16   90.000(    36)     17  180.000(    54)      0
     19         X       18   1.000000(    18)     12   90.000(    37)     16    0.000(    55)      0
     20     17  O       18   0.957200(    19)     19   90.000(    38)     12  180.000(    56)      0
     21     18  H       20   0.957200(    20)     18  104.520(    39)     16  270.000(    57)      0
 ---------------------------------------------------------------------------------------------------
                         Z-Matrix orientation:                         
 ---------------------------------------------------------------------
 Center     Atomic      Atomic             Coordinates (Angstroms)
 Number     Number       Type             X           Y           Z
 ---------------------------------------------------------------------
      1          9           0       -1.969300    2.053680    0.000070
      2          6           0       -1.222250    0.944230    0.000030
      3          6           0        0.140030    1.057400   -0.000020
      4          6           0        0.927950   -0.123640   -0.000080
      5          6           0        2.414660   -0.018650   -0.000010
      6          9           0        3.007080   -1.234610   -0.000560
      7          9           0        2.858290    0.654480   -1.086020
      8          9           0        2.858270    0.653500    1.086650
      9          6           0        0.306540   -1.341490   -0.000090
     10          7           0       -1.054170   -1.389970   -0.000060
     11          6           0       -1.930500   -0.312100    0.000000
     12         16           0       -3.570980   -0.506610    0.000030
     13          1           0        0.596860    2.043100   -0.000020
     14          1           0        0.831760   -2.288990   -0.000150
     15          1           0       -1.521480   -2.296390   -0.000090
     16         -1           0       -3.688724    0.486434    0.000069
     17         -1           0       -2.695680    0.604178    0.000051
     18          1           0       -6.601532   -0.865939    0.000085
     19         -1           0       -6.719276    0.127105    0.000124
     20          8           0       -7.552074   -0.978644    0.000103
     21          1           0       -7.790371   -1.006935    0.926734
 ---------------------------------------------------------------------
                    Distance matrix (angstroms):
                    1          2          3          4          5
     1  F    0.000000
     2  C    1.337521   0.000000
     3  C    2.332777   1.366973   0.000000
     4  C    3.624194   2.400772   1.419744   0.000000
     5  C    4.849088   3.762214   2.516312   1.490413   0.000000
     6  F    5.964663   4.757581   3.670597   2.357337   1.352598
     7  F    5.142274   4.232525   2.954772   2.347541   1.352527
     8  F    5.142625   4.232719   2.955134   2.347566   1.352555
     9  C    4.087374   2.749857   2.404662   1.367227   2.488790
    10  N    3.563171   2.340244   2.723184   2.352104   3.730054
    11  C    2.366098   1.442215   2.482463   2.864656   4.355058
    12  S    3.020011   2.760701   4.027123   4.515201   6.005497
    13  H    2.566182   2.125247   1.086415   2.191890   2.748674
    14  H    5.167661   3.830492   3.417136   2.167485   2.767673
    15  H    4.373060   3.254406   3.742796   3.274225   4.547669
    16  X    2.326517   2.508600   3.871093   4.656809   6.124248
    17  X    1.621322   1.512161   2.871700   3.696000   5.148154
    18  H    5.475560   5.675684   7.010556   7.565984   9.055916
    19  X    5.125814   5.557427   6.922105   7.651336   9.135099
    20  O    6.353137   6.615445   7.957006   8.523018  10.012860
    21  H    6.641607   6.914191   8.246915   8.811828  10.294572
                    6          7          8          9         10
     6  F    0.000000
     7  F    2.183809   0.000000
     8  F    2.183834   2.172670   0.000000
     9  C    2.702654   3.416807   3.416477   0.000000
    10  N    4.064221   4.546034   4.545756   1.361573   0.000000
    11  C    5.023019   5.004620   5.004549   2.462517   1.389157
    12  S    6.618222   6.622926   6.622828   3.966382   2.667332
    13  H    4.068482   2.867355   2.868068   3.397019   3.809445
    14  H    2.417382   3.734964   3.734451   1.083334   2.089251
    15  H    4.651369   5.391592   5.391203   2.062399   1.019792
    16  X    6.913450   6.638616   6.638652   4.393568   3.234466
    17  X    5.991879   5.659387   5.659461   3.577562   2.582863
    18  H    9.615682   9.642590   9.642467   6.924421   5.572058
    19  X    9.821216   9.653373   9.653343   7.177664   5.864720
    20  O   10.562256  10.593509  10.593382   7.866986   6.510910
    21  H   10.839587  10.963825  10.778505   8.156647   6.810438
                   11         12         13         14         15
    11  C    0.000000
    12  S    1.651971   0.000000
    13  H    3.454637   4.885889   0.000000
    14  H    3.396789   4.749842   4.338454   0.000000
    15  H    2.026007   2.720986   4.828927   2.353252   0.000000
    16  X    1.931064   1.000000   4.559544   5.304503   3.527188
    17  X    1.193761   1.414214   3.593232   4.562155   3.129224
    18  H    4.703752   3.051781   7.763978   7.568283   5.277605
    19  X    4.808875   3.211443   7.562863   7.928156   5.735016
    20  O    5.660952   4.008981   8.691148   8.485616   6.172886
    21  H    5.973250   4.348835   8.972582   8.766066   6.466892
                   16         17         18         19         20
    16  X    0.000000
    17  X    1.000000   0.000000
    18  H    3.211443   4.173359   0.000000
    19  X    3.051781   4.051781   1.000000   0.000000
    20  O    4.131819   5.107826   0.957200   1.384280   0.000000
    21  H    4.462327   5.423126   1.513901   1.814358   0.957200
                   21
    21  H    0.000000
 Symmetry turned off by external request.
 Stoichiometry    C6H5F4NOS
 Framework group  C1[X(C6H5F4NOS)]
 Deg. of freedom    48
 Full point group                 C1      NOp   1
 Rotational constants (GHZ):      1.8246526      0.2383010      0.2191227

 **********************************************************************

            Population analysis using the SCF density.

 **********************************************************************

 Alpha  occ. eigenvalues --  -91.91103 -26.37062 -26.36122 -26.36111 -26.33839
 Alpha  occ. eigenvalues --  -20.54269 -15.69306 -11.54441 -11.38530 -11.37629
 Alpha  occ. eigenvalues --  -11.36547 -11.31709 -11.30771  -8.92221  -6.60561
 Alpha  occ. eigenvalues --   -6.60280  -6.60160  -1.74302  -1.65305  -1.65092
 Alpha  occ. eigenvalues --   -1.64610  -1.36068  -1.32430  -1.17552  -1.12569
 Alpha  occ. eigenvalues --   -1.03410  -0.97594  -0.93007  -0.88778  -0.85179
 Alpha  occ. eigenvalues --   -0.83938  -0.83535  -0.77399  -0.76253  -0.74240
 Alpha  occ. eigenvalues --   -0.72478  -0.71842  -0.71693  -0.70686  -0.68956
 Alpha  occ. eigenvalues --   -0.67720  -0.67715  -0.66290  -0.64382  -0.62989
 Alpha  occ. eigenvalues --   -0.61158  -0.59780  -0.55471  -0.53338  -0.48063
 Alpha  occ. eigenvalues --   -0.46970  -0.43774  -0.34833  -0.31619
 Alpha virt. eigenvalues --    0.03949   0.08298   0.16827   0.20130   0.24165
 Alpha virt. eigenvalues --    0.25342   0.26119   0.27207   0.29692   0.33329
 Alpha virt. eigenvalues --    0.34259   0.37066   0.39642   0.40424   0.42521
 Alpha virt. eigenvalues --    0.43126   0.47682   0.49165   0.53813   0.55931
 Alpha virt. eigenvalues --    0.56539   0.59740   0.63327   0.65389   0.66482
 Alpha virt. eigenvalues --    0.68310   0.72171   0.72726   0.73358   0.75047
 Alpha virt. eigenvalues --    0.76809   0.77518   0.82707   0.83977   0.87041
 Alpha virt. eigenvalues --    0.88723   0.89657   0.91871   0.95928   0.99229
 Alpha virt. eigenvalues --    1.01879   1.02511   1.04143   1.05501   1.07612
 Alpha virt. eigenvalues --    1.08497   1.09742   1.13139   1.14565   1.15387
 Alpha virt. eigenvalues --    1.17511   1.17860   1.18513   1.20171   1.24088
 Alpha virt. eigenvalues --    1.27916   1.30794   1.31521   1.33113   1.34127
 Alpha virt. eigenvalues --    1.34653   1.38796   1.41221   1.41702   1.42265
 Alpha virt. eigenvalues --    1.46237   1.47043   1.51615   1.58927   1.60465
 Alpha virt. eigenvalues --    1.61555   1.62146   1.63444   1.64034   1.64103
 Alpha virt. eigenvalues --    1.65313   1.66191   1.67134   1.69219   1.70196
 Alpha virt. eigenvalues --    1.72925   1.75641   1.76317   1.80870   1.86176
 Alpha virt. eigenvalues --    1.89560   1.92243   1.93322   1.99934   2.03742
 Alpha virt. eigenvalues --    2.03958   2.05088   2.05780   2.08478   2.09190
 Alpha virt. eigenvalues --    2.09667   2.12197   2.12445   2.17626   2.20304
 Alpha virt. eigenvalues --    2.22288   2.22300   2.24270   2.28309   2.29298
 Alpha virt. eigenvalues --    2.30291   2.32325   2.33284   2.34667   2.35833
 Alpha virt. eigenvalues --    2.37445   2.38867   2.42916   2.44856   2.45132
 Alpha virt. eigenvalues --    2.46825   2.51764   2.60534   2.61459   2.64980
 Alpha virt. eigenvalues --    2.65082   2.68118   2.74906   2.82333   2.84117
 Alpha virt. eigenvalues --    2.84119   2.91087   2.92638   2.92858   2.96513
 Alpha virt. eigenvalues --    3.00016   3.07145   3.09140   3.17022   3.21685
 Alpha virt. eigenvalues --    3.29237   3.37235   3.38190   3.42507   3.44268
 Alpha virt. eigenvalues --    3.48937   3.70745   4.05936   4.35870   4.40162
 Alpha virt. eigenvalues --    4.44855   4.47968   4.59929   4.64185   4.68516
 Alpha virt. eigenvalues --    4.82115   5.01200   5.15269   5.57145   6.01611
          Condensed to atoms (all electrons):
              1          2          3          4          5          6
     1  F    9.158922   0.267489  -0.033513   0.002208  -0.000015   0.000000
     2  C    0.267489   4.568090   0.568774  -0.026475   0.000849  -0.000019
     3  C   -0.033513   0.568774   5.061101   0.357466  -0.011847   0.002196
     4  C    0.002208  -0.026475   0.357466   5.203502   0.414570  -0.045489
     5  C   -0.000015   0.000849  -0.011847   0.414570   3.548037   0.289572
     6  F    0.000000  -0.000019   0.002196  -0.045489   0.289572   9.187508
     7  F    0.000000   0.000293   0.004970  -0.055052   0.285178  -0.030791
     8  F    0.000000   0.000292   0.004964  -0.055057   0.285057  -0.030788
     9  C    0.000132  -0.022861  -0.055202   0.591090  -0.020840   0.005556
    10  N    0.001382  -0.051309  -0.021540  -0.035258   0.001212   0.000241
    11  C   -0.040980   0.388153  -0.078712  -0.001647   0.000077   0.000002
    12  S    0.003934  -0.082469   0.001836  -0.000105   0.000006   0.000000
    13  H   -0.000279  -0.017563   0.368324  -0.029674  -0.000278   0.000035
    14  H    0.000000  -0.000104   0.001799  -0.022327  -0.000136   0.005062
    15  H   -0.000018   0.003682  -0.000550   0.002316  -0.000015   0.000001
    16  H    0.000000   0.000000   0.000000   0.000000   0.000000   0.000000
    17  O    0.000000   0.000000   0.000000   0.000000   0.000000   0.000000
    18  H    0.000000   0.000000   0.000000   0.000000   0.000000   0.000000
              7          8          9         10         11         12
     1  F    0.000000   0.000000   0.000132   0.001382  -0.040980   0.003934
     2  C    0.000293   0.000292  -0.022861  -0.051309   0.388153  -0.082469
     3  C    0.004970   0.004964  -0.055202  -0.021540  -0.078712   0.001836
     4  C   -0.055052  -0.055057   0.591090  -0.035258  -0.001647  -0.000105
     5  C    0.285178   0.285057  -0.020840   0.001212   0.000077   0.000006
     6  F   -0.030791  -0.030788   0.005556   0.000241   0.000002   0.000000
     7  F    9.200306  -0.033964   0.000537  -0.000006  -0.000002   0.000000
     8  F   -0.033964   9.200679   0.000533  -0.000006  -0.000002   0.000000
     9  C    0.000537   0.000533   4.737868   0.265372  -0.039262   0.003525
    10  N   -0.000006  -0.000006   0.265372   7.223522   0.220891  -0.104048
    11  C   -0.000002  -0.000002  -0.039262   0.220891   4.938543   0.445890
    12  S    0.000000   0.000000   0.003525  -0.104048   0.445890  15.961581
    13  H    0.000910   0.000907   0.002425  -0.000263   0.002615  -0.000058
    14  H    0.000084   0.000084   0.379592  -0.032005   0.000980  -0.000131
    15  H    0.000000   0.000000  -0.021322   0.310433  -0.017991   0.013211
    16  H    0.000000   0.000000   0.000000   0.000000  -0.000022   0.003490
    17  O    0.000000   0.000000   0.000000   0.000000   0.000003   0.000545
    18  H    0.000000   0.000000   0.000000   0.000000   0.000000   0.000036
             13         14         15         16         17         18
     1  F   -0.000279   0.000000  -0.000018   0.000000   0.000000   0.000000
     2  C   -0.017563  -0.000104   0.003682   0.000000   0.000000   0.000000
     3  C    0.368324   0.001799  -0.000550   0.000000   0.000000   0.000000
     4  C   -0.029674  -0.022327   0.002316   0.000000   0.000000   0.000000
     5  C   -0.000278  -0.000136  -0.000015   0.000000   0.000000   0.000000
     6  F    0.000035   0.005062   0.000001   0.000000   0.000000   0.000000
     7  F    0.000910   0.000084   0.000000   0.000000   0.000000   0.000000
     8  F    0.000907   0.000084   0.000000   0.000000   0.000000   0.000000
     9  C    0.002425   0.379592  -0.021322   0.000000   0.000000   0.000000
    10  N   -0.000263  -0.032005   0.310433   0.000000   0.000000   0.000000
    11  C    0.002615   0.000980  -0.017991  -0.000022   0.000003   0.000000
    12  S   -0.000058  -0.000131   0.013211   0.003490   0.000545   0.000036
    13  H    0.389880  -0.000061   0.000008   0.000000   0.000000   0.000000
    14  H   -0.000061   0.379141  -0.002087   0.000000   0.000000   0.000000
    15  H    0.000008  -0.002087   0.269015   0.000001   0.000000   0.000000
    16  H    0.000000   0.000000   0.000001   0.297691   0.262888  -0.018397
    17  O    0.000000   0.000000   0.000000   0.262888   8.353882   0.265379
    18  H    0.000000   0.000000   0.000000  -0.018397   0.265379   0.323693
 Mulliken atomic charges:
              1
     1  F   -0.359264
     2  C    0.403177
     3  C   -0.170067
     4  C   -0.300068
     5  C    1.208571
     6  F   -0.383085
     7  F   -0.372463
     8  F   -0.372700
     9  C    0.172858
    10  N   -0.778617
    11  C    0.181463
    12  S   -0.247242
    13  H    0.283071
    14  H    0.290108
    15  H    0.443317
    16  H    0.454349
    17  O   -0.882697
    18  H    0.429289
 Sum of Mulliken atomic charges =   0.00000
 Mulliken charges with hydrogens summed into heavy atoms:
              1
     1  F   -0.359264
     2  C    0.403177
     3  C    0.113004
     4  C   -0.300068
     5  C    1.208571
     6  F   -0.383085
     7  F   -0.372463
     8  F   -0.372700
     9  C    0.462965
    10  N   -0.335300
    11  C    0.181463
    12  S   -0.247242
    17  O    0.000940
 Sum of Mulliken charges with hydrogens summed into heavy atoms =   0.00000
 Electronic spatial extent (au):  <R**2>=           4699.7517
 Charge=              0.0000 electrons
 Dipole moment (field-independent basis, Debye):
    X=              5.4248    Y=             -2.4067    Z=              1.7107  Tot=              6.1763
 Quadrupole moment (field-independent basis, Debye-Ang):
   XX=           -126.7315   YY=            -72.0644   ZZ=            -80.2711
   XY=             -0.6688   XZ=            -13.7448   YZ=             -1.7736
 Traceless Quadrupole moment (field-independent basis, Debye-Ang):
   XX=            -33.7092   YY=             20.9579   ZZ=             12.7513
   XY=             -0.6688   XZ=            -13.7448   YZ=             -1.7736
 Octapole moment (field-independent basis, Debye-Ang**2):
  XXX=            460.4588  YYY=             13.1498  ZZZ=              0.4311  XYY=             80.2121
  XXY=             35.8900  XXZ=            108.6898  XZZ=             54.0603  YZZ=              9.2920
  YYZ=              1.4144  XYZ=             14.0805
 Hexadecapole moment (field-independent basis, Debye-Ang**3):
 XXXX=          -6765.0016 YYYY=           -492.5893 ZZZZ=           -143.1922 XXXY=           -411.1427
 XXXZ=           -854.6326 YYYX=           -165.6074 YYYZ=             -0.7386 ZZZX=             -3.8641
 ZZZY=             -0.5034 XXYY=           -957.3950 XXZZ=           -719.8645 YYZZ=           -117.3970
 XXYZ=           -111.0693 YYXZ=            -11.4722 ZZXY=            -52.0763
 N-N= 8.891793780305D+02 E-N=-4.516019714063D+03  KE= 1.152545042742D+03
 1\1\GINC-B1\FOpt\RHF\6-31G(d)\C6H5F4N1O1S1\ANA\24-Sep-2021\1\\#HF/6-31
 G* Opt=Z-matrix NoSymm\\water interaction with atom S12\\0,1\F,-1,-1.9
 693,2.05368,0.00007\C,-1,-1.22225,0.94423,0.00003\C,-1,0.14003,1.0574,
 -0.00002\C,-1,0.92795,-0.12364,-0.00008\C,-1,2.41466,-0.01865,-0.00001
 \F,-1,3.00708,-1.23461,-0.00056\F,-1,2.85829,0.65448,-1.08602\F,-1,2.8
 5827,0.6535,1.08665\C,-1,0.30654,-1.34149,-0.00009\N,-1,-1.05417,-1.38
 997,-0.00006\C,-1,-1.9305,-0.3121,0.\S,-1,-3.57098,-0.50661,0.00003\H,
 -1,0.59686,2.0431,-0.00002\H,-1,0.83176,-2.28899,-0.00015\H,-1,-1.5214
 8,-2.29639,-0.00009\X,12,RDUM,11,ADUM,2,DDUM,0\X,16,RDUM,12,ADUM,11,DD
 UM,0\H,12,RX,16,ADUM,17,DH1,0\X,18,RDUM,12,ADUM,16,DDUM,0\O,18,ROH,19,
 ADUM,12,DOH2,0\H,20,ROH,18,AHOH,16,DH2,0\\RX=3.05178052\RDUM=1.\ROH=0.
 9572\ADUM=90.\AHOH=104.52\DDUM=0.\DH1=180.\DOH2=180.\DH2=270.\\Version
 =EM64L-G09RevA.01\HF=-1154.6747189\RMSD=9.328e-09\RMSF=2.817e-03\Dipol
 e=2.1342823,-0.9468712,0.6730289\Quadrupole=-25.0619494,15.5817009,9.4
 802485,-0.4972664,-10.2189009,-1.3186538\PG=C01 [X(C6H5F4N1O1S1)]\\@


 I (ERNEST RUTHERFORD) CAME INTO THE ROOM, WHICH WAS HALF DARK, AND PRESENTLY
 SPOTTED LORD KELVIN IN THE AUDIENCE AND REALIZED I WAS IN TROUBLE AT
 THE LAST PART OF MY SPEECH DEALING THE AGE OF THE EARTH, WHERE MY VIEWS
 CONFLICTED WITH HIS.  TO MY RELIEF KELVIN FELL FAST ASLEEP, BUT AS I CAME
 TO THE IMPORTANT POINT, I SAW THE OLD BIRD SIT UP AND COCK A BALEFUL GLANCE
 AT ME! THEN A SUDDEN INSPIRATION CAME AND I SAID LORD KELVIN HAD LIMITED
 THE AGE OF THE EARTH PROVIDED NO NEW SOURCE WAS DISCOVERED. THAT
 PROPHETIC UTTERANCE REFERS TO WHAT WE ARE NOW CONSIDERING TONIGHT, RADIUM!
 BEHOLD!  THE OLD BOY BEAMED UPON ME.
 Job cpu time:  0 days  0 hours  3 minutes 39.0 seconds.
 File lengths (MBytes):  RWF=     33 Int=      0 D2E=      0 Chk=      3 Scr=      1
 Normal termination of Gaussian 09 at Fri Sep 24 08:23:36 2021.
