 Entering Gaussian System, Link 0=g16
 Initial command:
 /home/alexey/programs//g16/l1.exe "/home/alexey/tmp/Gau-1551472.inp" -scrdir="/home/alexey/tmp/"
 Entering Link 1 = /home/alexey/programs//g16/l1.exe PID=   1551474.
  
 Copyright (c) 1988-2021, Gaussian, Inc.  All Rights Reserved.
  
 This is part of the Gaussian(R) 16 program.  It is based on
 the Gaussian(R) 09 system (copyright 2009, Gaussian, Inc.),
 the Gaussian(R) 03 system (copyright 2003, Gaussian, Inc.),
 the Gaussian(R) 98 system (copyright 1998, Gaussian, Inc.),
 the Gaussian(R) 94 system (copyright 1995, Gaussian, Inc.),
 the Gaussian 92(TM) system (copyright 1992, Gaussian, Inc.),
 the Gaussian 90(TM) system (copyright 1990, Gaussian, Inc.),
 the Gaussian 88(TM) system (copyright 1988, Gaussian, Inc.),
 the Gaussian 86(TM) system (copyright 1986, Carnegie Mellon
 University), and the Gaussian 82(TM) system (copyright 1983,
 Carnegie Mellon University). Gaussian is a federally registered
 trademark of Gaussian, Inc.
  
 This software contains proprietary and confidential information,
 including trade secrets, belonging to Gaussian, Inc.
  
 This software is provided under written license and may be
 used, copied, transmitted, or stored only in accord with that
 written license.
  
 The following legend is applicable only to US Government
 contracts under FAR:
  
                    RESTRICTED RIGHTS LEGEND
  
 Use, reproduction and disclosure by the US Government is
 subject to restrictions as set forth in subparagraphs (a)
 and (c) of the Commercial Computer Software - Restricted
 Rights clause in FAR 52.227-19.
  
 Gaussian, Inc.
 340 Quinnipiac St., Bldg. 40, Wallingford CT 06492
  
  
 ---------------------------------------------------------------
 Warning -- This program may not be used in any manner that
 competes with the business of Gaussian, Inc. or will provide
 assistance to any competitor of Gaussian, Inc.  The licensee
 of this program is prohibited from giving any competitor of
 Gaussian, Inc. access to this program.  By using this program,
 the user acknowledges that Gaussian, Inc. is engaged in the
 business of creating and licensing software in the field of
 computational chemistry and represents and warrants to the
 licensee that it is not a competitor of Gaussian, Inc. and that
 it will not use this program in any manner prohibited above.
 ---------------------------------------------------------------
  

 Cite this work as:
 Gaussian 16, Revision C.02,
 M. J. Frisch, G. W. Trucks, H. B. Schlegel, G. E. Scuseria, 
 M. A. Robb, J. R. Cheeseman, G. Scalmani, V. Barone, 
 G. A. Petersson, H. Nakatsuji, X. Li, M. Caricato, A. V. Marenich, 
 J. Bloino, B. G. Janesko, R. Gomperts, B. Mennucci, H. P. Hratchian, 
 J. V. Ortiz, A. F. Izmaylov, J. L. Sonnenberg, D. Williams-Young, 
 F. Ding, F. Lipparini, F. Egidi, J. Goings, B. Peng, A. Petrone, 
 T. Henderson, D. Ranasinghe, V. G. Zakrzewski, J. Gao, N. Rega, 
 G. Zheng, W. Liang, M. Hada, M. Ehara, K. Toyota, R. Fukuda, 
 J. Hasegawa, M. Ishida, T. Nakajima, Y. Honda, O. Kitao, H. Nakai, 
 T. Vreven, K. Throssell, J. A. Montgomery, Jr., J. E. Peralta, 
 F. Ogliaro, M. J. Bearpark, J. J. Heyd, E. N. Brothers, K. N. Kudin, 
 V. N. Staroverov, T. A. Keith, R. Kobayashi, J. Normand, 
 K. Raghavachari, A. P. Rendell, J. C. Burant, S. S. Iyengar, 
 J. Tomasi, M. Cossi, J. M. Millam, M. Klene, C. Adamo, R. Cammi, 
 J. W. Ochterski, R. L. Martin, K. Morokuma, O. Farkas, 
 J. B. Foresman, and D. J. Fox, Gaussian, Inc., Wallingford CT, 2019.
 
 ******************************************
 Gaussian 16:  ES64L-G16RevC.02  7-Dec-2021
                 2-Jul-2023 
 ******************************************
 %mem=8GB
 %NPROCS=4
 Will use up to    4 processors via shared memory.
 %NoSave
 ---------------------------------------------------------
 #MP2/6-31G* SCF=Tight Opt=(ModRedun, MaxCycle=20 ) NoSymm
 ---------------------------------------------------------
 1/6=20,18=120,19=15,38=1/1,3;
 2/9=110,12=2,15=1,17=6,18=5,40=1/2;
 3/5=1,6=6,7=1,11=9,25=1,30=1,71=1/1,2,3;
 4//1;
 5/5=2,32=2,38=5/2;
 8/6=4,10=2/1;
 9/15=2,16=-3/6;
 10/5=1,31=1/2;
 6/7=2,8=2,9=2,10=2/1;
 7/12=2,30=1/1,2,3,16;
 1/6=20,18=20,19=15/3(2);
 2/9=110,15=1/2;
 99//99;
 2/9=110,15=1/2;
 3/5=1,6=6,7=1,11=9,25=1,30=1,71=1/1,2,3;
 4/5=5,16=3,69=1/1;
 5/5=2,32=2,38=5/2;
 8/6=4,10=2/1;
 9/15=2,16=-3/6;
 10/5=1,31=1/2;
 7/12=2,30=1/1,2,3,16;
 1/6=20,18=20,19=15/3(-8);
 2/9=110,15=1/2;
 6/7=2,8=2,9=2,10=2/1;
 99/9=10/99;
 --------
 MolName:
 --------
 Symbolic Z-matrix:
 Charge =  0 Multiplicity = 1
 8                    0    -3.65617  -1.34291  -0.43507 
 7                    0    -3.2447   -0.19231  -0.2964 
 8                    0    -3.97176   0.80034  -0.3546 
 6                    0    -1.74416   0.00607  -0.061 
 6                    0    -1.34201   1.3138    0.2353 
 7                    0    -0.08175   1.71187   0.58762 
 6                    0     1.20639   0.97477   0.45314 
 1                    0     1.91666   1.48015   1.15816 
 6                    0     1.86806   1.04261  -0.94569 
 6                    0     3.29909   0.47827  -0.8611 
 6                    0     3.30152  -0.94017  -0.26883 
 6                    0     2.54895  -0.99002   1.07863 
 6                    0     1.09044  -0.47555   0.93547 
 1                    0     0.6077   -0.52225   1.93961 
 7                    0     0.37741  -1.36021   0.01186 
 6                    0    -0.88638  -1.20403  -0.21042 
 1                    0    -2.10829   2.1065    0.24245 
 1                    0     0.15322   2.70681   0.62074 
 1                    0     1.27283   0.45844  -1.67939 
 1                    0     1.90963   2.095    -1.29835 
 1                    0     3.76183   0.46488  -1.87216 
 1                    0     3.91476   1.13934  -0.21113 
 1                    0     2.81126  -1.63406  -0.98851 
 1                    0     4.34776  -1.28901  -0.12799 
 1                    0     2.53325  -2.03788   1.45067 
 1                    0     3.08874  -0.37325   1.82735 
 1                    0    -1.41129  -2.05321  -0.67337 
 
 The following ModRedundant input section has been read:
 D       5       6       7      13 F                                           
 D       1       2       4      16 F                                           
 D       7      13      15      16 F                                           
 D       7       9      10      11 F                                           
 D       9      10      11      12 F                                           
 D       6       7      13      15 F                                           
 

 GradGradGradGradGradGradGradGradGradGradGradGradGradGradGradGradGradGrad
 Berny optimization.
 Initialization pass.
                           ----------------------------
                           !    Initial Parameters    !
                           ! (Angstroms and Degrees)  !
 --------------------------                            --------------------------
 ! Name  Definition              Value          Derivative Info.                !
 --------------------------------------------------------------------------------
 ! R1    R(1,2)                  1.2298         estimate D2E/DX2                !
 ! R2    R(2,3)                  1.2318         estimate D2E/DX2                !
 ! R3    R(2,4)                  1.5318         estimate D2E/DX2                !
 ! R4    R(4,5)                  1.3999         estimate D2E/DX2                !
 ! R5    R(4,16)                 1.4908         estimate D2E/DX2                !
 ! R6    R(5,6)                  1.3678         estimate D2E/DX2                !
 ! R7    R(5,17)                 1.1025         estimate D2E/DX2                !
 ! R8    R(6,7)                  1.4902         estimate D2E/DX2                !
 ! R9    R(6,18)                 1.0228         estimate D2E/DX2                !
 ! R10   R(7,8)                  1.1211         estimate D2E/DX2                !
 ! R11   R(7,9)                  1.5489         estimate D2E/DX2                !
 ! R12   R(7,13)                 1.5328         estimate D2E/DX2                !
 ! R13   R(9,10)                 1.5406         estimate D2E/DX2                !
 ! R14   R(9,19)                 1.1108         estimate D2E/DX2                !
 ! R15   R(9,20)                 1.1107         estimate D2E/DX2                !
 ! R16   R(10,11)                1.5371         estimate D2E/DX2                !
 ! R17   R(10,21)                1.112          estimate D2E/DX2                !
 ! R18   R(10,22)                1.1129         estimate D2E/DX2                !
 ! R19   R(11,12)                1.5442         estimate D2E/DX2                !
 ! R20   R(11,23)                1.1135         estimate D2E/DX2                !
 ! R21   R(11,24)                1.1118         estimate D2E/DX2                !
 ! R22   R(12,13)                1.5532         estimate D2E/DX2                !
 ! R23   R(12,25)                1.1121         estimate D2E/DX2                !
 ! R24   R(12,26)                1.1101         estimate D2E/DX2                !
 ! R25   R(13,14)                1.1151         estimate D2E/DX2                !
 ! R26   R(13,15)                1.4643         estimate D2E/DX2                !
 ! R27   R(15,16)                1.2927         estimate D2E/DX2                !
 ! R28   R(16,27)                1.1004         estimate D2E/DX2                !
 ! A1    A(1,2,3)              123.445          estimate D2E/DX2                !
 ! A2    A(1,2,4)              117.7912         estimate D2E/DX2                !
 ! A3    A(3,2,4)              118.7567         estimate D2E/DX2                !
 ! A4    A(2,4,5)              115.7804         estimate D2E/DX2                !
 ! A5    A(2,4,16)             116.3031         estimate D2E/DX2                !
 ! A6    A(5,4,16)             127.894          estimate D2E/DX2                !
 ! A7    A(4,5,6)              126.2339         estimate D2E/DX2                !
 ! A8    A(4,5,17)             118.2524         estimate D2E/DX2                !
 ! A9    A(6,5,17)             115.4331         estimate D2E/DX2                !
 ! A10   A(5,6,7)              128.995          estimate D2E/DX2                !
 ! A11   A(5,6,18)             120.205          estimate D2E/DX2                !
 ! A12   A(7,6,18)             106.5878         estimate D2E/DX2                !
 ! A13   A(6,7,8)              105.5399         estimate D2E/DX2                !
 ! A14   A(6,7,9)              115.4101         estimate D2E/DX2                !
 ! A15   A(6,7,13)             111.9765         estimate D2E/DX2                !
 ! A16   A(8,7,9)              106.1132         estimate D2E/DX2                !
 ! A17   A(8,7,13)             106.055          estimate D2E/DX2                !
 ! A18   A(9,7,13)             110.9734         estimate D2E/DX2                !
 ! A19   A(7,9,10)             109.3397         estimate D2E/DX2                !
 ! A20   A(7,9,19)             110.1557         estimate D2E/DX2                !
 ! A21   A(7,9,20)             110.1353         estimate D2E/DX2                !
 ! A22   A(10,9,19)            109.9603         estimate D2E/DX2                !
 ! A23   A(10,9,20)            109.2537         estimate D2E/DX2                !
 ! A24   A(19,9,20)            107.9767         estimate D2E/DX2                !
 ! A25   A(9,10,11)            111.1401         estimate D2E/DX2                !
 ! A26   A(9,10,21)            109.9391         estimate D2E/DX2                !
 ! A27   A(9,10,22)            109.1683         estimate D2E/DX2                !
 ! A28   A(11,10,21)           109.7894         estimate D2E/DX2                !
 ! A29   A(11,10,22)           108.7982         estimate D2E/DX2                !
 ! A30   A(21,10,22)           107.9365         estimate D2E/DX2                !
 ! A31   A(10,11,12)           111.4225         estimate D2E/DX2                !
 ! A32   A(10,11,23)           108.9854         estimate D2E/DX2                !
 ! A33   A(10,11,24)           109.8663         estimate D2E/DX2                !
 ! A34   A(12,11,23)           109.2265         estimate D2E/DX2                !
 ! A35   A(12,11,24)           109.7518         estimate D2E/DX2                !
 ! A36   A(23,11,24)           107.4986         estimate D2E/DX2                !
 ! A37   A(11,12,13)           111.5015         estimate D2E/DX2                !
 ! A38   A(11,12,25)           109.2221         estimate D2E/DX2                !
 ! A39   A(11,12,26)           109.4885         estimate D2E/DX2                !
 ! A40   A(13,12,25)           109.2499         estimate D2E/DX2                !
 ! A41   A(13,12,26)           109.5566         estimate D2E/DX2                !
 ! A42   A(25,12,26)           107.7427         estimate D2E/DX2                !
 ! A43   A(7,13,12)            105.7462         estimate D2E/DX2                !
 ! A44   A(7,13,14)            110.8377         estimate D2E/DX2                !
 ! A45   A(7,13,15)            114.205          estimate D2E/DX2                !
 ! A46   A(12,13,14)           108.0375         estimate D2E/DX2                !
 ! A47   A(12,13,15)           108.378          estimate D2E/DX2                !
 ! A48   A(14,13,15)           109.3829         estimate D2E/DX2                !
 ! A49   A(13,15,16)           120.7668         estimate D2E/DX2                !
 ! A50   A(4,16,15)            130.0439         estimate D2E/DX2                !
 ! A51   A(4,16,27)            113.2091         estimate D2E/DX2                !
 ! A52   A(15,16,27)           116.4525         estimate D2E/DX2                !
 ! D1    D(1,2,4,5)           -173.3279         estimate D2E/DX2                !
 ! D2    D(1,2,4,16)             8.2589         Frozen                          !
 ! D3    D(3,2,4,5)              7.6021         estimate D2E/DX2                !
 ! D4    D(3,2,4,16)          -170.8111         estimate D2E/DX2                !
 ! D5    D(2,4,5,6)            174.3409         estimate D2E/DX2                !
 ! D6    D(2,4,5,17)            -2.2337         estimate D2E/DX2                !
 ! D7    D(16,4,5,6)            -7.4617         estimate D2E/DX2                !
 ! D8    D(16,4,5,17)          175.9636         estimate D2E/DX2                !
 ! D9    D(2,4,16,15)         -174.7475         estimate D2E/DX2                !
 ! D10   D(2,4,16,27)           11.8051         estimate D2E/DX2                !
 ! D11   D(5,4,16,15)            7.0632         estimate D2E/DX2                !
 ! D12   D(5,4,16,27)         -166.3842         estimate D2E/DX2                !
 ! D13   D(4,5,6,7)             15.2619         estimate D2E/DX2                !
 ! D14   D(4,5,6,18)           168.9437         estimate D2E/DX2                !
 ! D15   D(17,5,6,7)          -168.0791         estimate D2E/DX2                !
 ! D16   D(17,5,6,18)          -14.3973         estimate D2E/DX2                !
 ! D17   D(5,6,7,8)           -161.0743         estimate D2E/DX2                !
 ! D18   D(5,6,7,9)             82.1166         estimate D2E/DX2                !
 ! D19   D(5,6,7,13)           -46.1284         Frozen                          !
 ! D20   D(18,6,7,8)            42.4914         estimate D2E/DX2                !
 ! D21   D(18,6,7,9)           -74.3176         estimate D2E/DX2                !
 ! D22   D(18,6,7,13)          157.4373         estimate D2E/DX2                !
 ! D23   D(6,7,9,10)           169.1493         estimate D2E/DX2                !
 ! D24   D(6,7,9,19)           -69.9061         estimate D2E/DX2                !
 ! D25   D(6,7,9,20)            49.0895         estimate D2E/DX2                !
 ! D26   D(8,7,9,10)            52.6642         estimate D2E/DX2                !
 ! D27   D(8,7,9,19)           173.6087         estimate D2E/DX2                !
 ! D28   D(8,7,9,20)           -67.3956         estimate D2E/DX2                !
 ! D29   D(13,7,9,10)          -62.1094         estimate D2E/DX2                !
 ! D30   D(13,7,9,19)           58.8351         estimate D2E/DX2                !
 ! D31   D(13,7,9,20)          177.8308         estimate D2E/DX2                !
 ! D32   D(6,7,13,12)         -165.9066         estimate D2E/DX2                !
 ! D33   D(6,7,13,14)          -49.0636         estimate D2E/DX2                !
 ! D34   D(6,7,13,15)           75.022          Frozen                          !
 ! D35   D(8,7,13,12)          -51.2763         estimate D2E/DX2                !
 ! D36   D(8,7,13,14)           65.5667         estimate D2E/DX2                !
 ! D37   D(8,7,13,15)         -170.3477         estimate D2E/DX2                !
 ! D38   D(9,7,13,12)           63.5337         estimate D2E/DX2                !
 ! D39   D(9,7,13,14)         -179.6234         estimate D2E/DX2                !
 ! D40   D(9,7,13,15)          -55.5377         estimate D2E/DX2                !
 ! D41   D(7,9,10,11)           54.8119         Frozen                          !
 ! D42   D(7,9,10,21)          176.5752         estimate D2E/DX2                !
 ! D43   D(7,9,10,22)          -65.1999         estimate D2E/DX2                !
 ! D44   D(19,9,10,11)         -66.2513         estimate D2E/DX2                !
 ! D45   D(19,9,10,21)          55.512          estimate D2E/DX2                !
 ! D46   D(19,9,10,22)         173.7368         estimate D2E/DX2                !
 ! D47   D(20,9,10,11)         175.4111         estimate D2E/DX2                !
 ! D48   D(20,9,10,21)         -62.8256         estimate D2E/DX2                !
 ! D49   D(20,9,10,22)          55.3993         estimate D2E/DX2                !
 ! D50   D(9,10,11,12)         -52.8224         Frozen                          !
 ! D51   D(9,10,11,23)          67.78           estimate D2E/DX2                !
 ! D52   D(9,10,11,24)        -174.677          estimate D2E/DX2                !
 ! D53   D(21,10,11,12)       -174.6729         estimate D2E/DX2                !
 ! D54   D(21,10,11,23)        -54.0705         estimate D2E/DX2                !
 ! D55   D(21,10,11,24)         63.4725         estimate D2E/DX2                !
 ! D56   D(22,10,11,12)         67.4089         estimate D2E/DX2                !
 ! D57   D(22,10,11,23)       -171.9888         estimate D2E/DX2                !
 ! D58   D(22,10,11,24)        -54.4457         estimate D2E/DX2                !
 ! D59   D(10,11,12,13)         56.6206         estimate D2E/DX2                !
 ! D60   D(10,11,12,25)        177.4596         estimate D2E/DX2                !
 ! D61   D(10,11,12,26)        -64.7823         estimate D2E/DX2                !
 ! D62   D(23,11,12,13)        -63.8402         estimate D2E/DX2                !
 ! D63   D(23,11,12,25)         56.9987         estimate D2E/DX2                !
 ! D64   D(23,11,12,26)        174.7569         estimate D2E/DX2                !
 ! D65   D(24,11,12,13)        178.5415         estimate D2E/DX2                !
 ! D66   D(24,11,12,25)        -60.6196         estimate D2E/DX2                !
 ! D67   D(24,11,12,26)         57.1386         estimate D2E/DX2                !
 ! D68   D(11,12,13,7)         -60.4633         estimate D2E/DX2                !
 ! D69   D(11,12,13,14)       -179.1822         estimate D2E/DX2                !
 ! D70   D(11,12,13,15)         62.3945         estimate D2E/DX2                !
 ! D71   D(25,12,13,7)         178.714          estimate D2E/DX2                !
 ! D72   D(25,12,13,14)         59.9952         estimate D2E/DX2                !
 ! D73   D(25,12,13,15)        -58.4281         estimate D2E/DX2                !
 ! D74   D(26,12,13,7)          60.9            estimate D2E/DX2                !
 ! D75   D(26,12,13,14)        -57.8189         estimate D2E/DX2                !
 ! D76   D(26,12,13,15)       -176.2421         estimate D2E/DX2                !
 ! D77   D(7,13,15,16)         -67.1599         Frozen                          !
 ! D78   D(12,13,15,16)        175.2676         estimate D2E/DX2                !
 ! D79   D(14,13,15,16)         57.7015         estimate D2E/DX2                !
 ! D80   D(13,15,16,4)          23.6496         estimate D2E/DX2                !
 ! D81   D(13,15,16,27)       -163.0777         estimate D2E/DX2                !
 --------------------------------------------------------------------------------
 Trust Radius=3.00D-01 FncErr=1.00D-07 GrdErr=1.00D-07 EigMax=2.50D+02 EigMin=1.00D-04
 Number of steps in this run=     20 maximum allowed number of steps=    162.
 GradGradGradGradGradGradGradGradGradGradGradGradGradGradGradGradGradGrad

                          Input orientation:                          
 ---------------------------------------------------------------------
 Center     Atomic      Atomic             Coordinates (Angstroms)
 Number     Number       Type             X           Y           Z
 ---------------------------------------------------------------------
      1          8           0       -3.656170   -1.342910   -0.435070
      2          7           0       -3.244700   -0.192310   -0.296400
      3          8           0       -3.971760    0.800340   -0.354600
      4          6           0       -1.744160    0.006070   -0.061000
      5          6           0       -1.342010    1.313800    0.235300
      6          7           0       -0.081750    1.711870    0.587620
      7          6           0        1.206390    0.974770    0.453140
      8          1           0        1.916660    1.480150    1.158160
      9          6           0        1.868060    1.042610   -0.945690
     10          6           0        3.299090    0.478270   -0.861100
     11          6           0        3.301520   -0.940170   -0.268830
     12          6           0        2.548950   -0.990020    1.078630
     13          6           0        1.090440   -0.475550    0.935470
     14          1           0        0.607700   -0.522250    1.939610
     15          7           0        0.377410   -1.360210    0.011860
     16          6           0       -0.886380   -1.204030   -0.210420
     17          1           0       -2.108290    2.106500    0.242450
     18          1           0        0.153220    2.706810    0.620740
     19          1           0        1.272830    0.458440   -1.679390
     20          1           0        1.909630    2.095000   -1.298350
     21          1           0        3.761830    0.464880   -1.872160
     22          1           0        3.914760    1.139340   -0.211130
     23          1           0        2.811260   -1.634060   -0.988510
     24          1           0        4.347760   -1.289010   -0.127990
     25          1           0        2.533250   -2.037880    1.450670
     26          1           0        3.088740   -0.373250    1.827350
     27          1           0       -1.411290   -2.053210   -0.673370
 ---------------------------------------------------------------------
                    Distance matrix (angstroms):
                    1          2          3          4          5
     1  O    0.000000
     2  N    1.229804   0.000000
     3  O    2.167854   1.231811   0.000000
     4  C    2.369696   1.531792   2.383121   0.000000
     5  C    3.586480   2.484210   2.743576   1.399884   0.000000
     6  N    4.811866   3.796267   4.104978   2.468617   1.367788
     7  C    5.459400   4.662198   5.243673   3.147771   2.580066
     8  H    6.447052   5.617162   6.117522   4.130480   3.390910
     9  C    6.038920   5.299709   5.874656   3.860729   3.431156
    10  C    7.202350   6.602253   7.295583   5.128109   4.841489
    11  C    6.971319   6.588858   7.479127   5.137845   5.186222
    12  C    6.396822   6.007781   6.912250   4.552114   4.599822
    13  C    5.016074   4.515658   5.377550   3.043003   3.099810
    14  H    4.949058   4.466496   5.290000   3.132540   3.174448
    15  N    4.058302   3.818206   4.870067   2.524498   3.186952
    16  C    2.782354   2.567614   3.682099   1.490790   2.597255
    17  H    3.841015   2.620365   2.352667   2.153248   1.102547
    18  H    5.659189   4.559814   4.647728   3.370284   2.079604
    19  H    5.393351   4.769089   5.420119   3.453412   3.351875
    20  H    6.598682   5.727374   6.095700   4.386895   3.679065
    21  H    7.769173   7.211545   7.888215   5.814356   5.586702
    22  H    7.970614   7.282749   7.895106   5.773233   5.278576
    23  H    6.497593   6.263570   7.234467   4.929721   5.238057
    24  H    8.010000   7.673106   8.580859   6.228419   6.267382
    25  H    6.507528   6.312138   7.323227   4.975853   5.265788
    26  H    7.180014   6.682478   7.482572   5.202564   5.001230
    27  H    2.366601   2.639403   3.847125   2.174036   3.488157
                    6          7          8          9         10
     6  N    0.000000
     7  C    1.490203   0.000000
     8  H    2.091137   1.121136   0.000000
     9  C    2.569184   1.548914   2.149416   0.000000
    10  C    3.879515   2.520542   2.644293   1.540611   0.000000
    11  C    4.383302   2.928789   3.132425   2.538575   1.537128
    12  C    3.802878   2.460509   2.551050   2.948401   2.545808
    13  C    2.505960   1.532813   2.134711   2.539344   3.002594
    14  H    2.700835   2.192964   2.516674   3.515999   4.011059
    15  N    3.159114   2.516757   3.427964   2.985378   3.560658
    16  C    3.128381   3.093084   4.115199   3.629732   4.557596
    17  H    2.093261   3.508890   4.175052   4.284262   5.754017
    18  H    1.022846   2.034016   2.214325   2.857261   4.130223
    19  H    2.923236   2.195153   3.083845   1.110797   2.185342
    20  H    2.769344   2.194807   2.532298   1.110685   2.176144
    21  H    4.730603   3.492461   3.690293   2.185974   1.112003
    22  H    4.115566   2.793494   2.446121   2.176675   1.112890
    23  H    4.695630   3.385256   3.886747   2.838313   2.171670
    24  H    5.397957   3.915433   3.902906   3.500571   2.181843
    25  H    4.652280   3.439721   3.583613   3.959096   3.501686
    26  H    3.992075   2.692369   2.292745   3.344319   2.827914
    27  H    4.187314   4.158117   5.187908   4.518008   5.350824
                   11         12         13         14         15
    11  C    0.000000
    12  C    1.544181   0.000000
    13  C    2.560290   1.553199   0.000000
    14  H    3.508352   2.174522   1.115130   0.000000
    15  N    2.967430   2.447575   1.464271   2.114576   0.000000
    16  C    4.196611   3.675451   2.398242   2.705500   1.292658
    17  H    6.229739   5.654867   4.168829   4.143342   4.271997
    18  H    4.899346   4.428966   3.332394   3.517499   4.118452
    19  H    2.839256   3.366481   2.782642   3.808059   2.639998
    20  H    3.494213   3.946658   3.502678   4.362271   4.000353
    21  H    2.180990   3.506419   3.987922   5.045052   4.281914
    22  H    2.168814   2.839558   3.449543   4.280562   4.337087
    23  H    1.113453   2.180977   2.829323   3.829580   2.645630
    24  H    1.111820   2.186560   3.521761   4.341767   3.973450
    25  H    2.179882   1.112057   2.188151   2.498788   2.679003
    26  H    2.181890   1.110117   2.190689   2.488044   3.409018
    27  H    4.859330   4.459078   3.366902   3.639756   2.036968
                   16         17         18         19         20
    16  C    0.000000
    17  H    3.557775   0.000000
    18  H    4.131134   2.370212   0.000000
    19  H    3.095782   4.223925   3.405773   0.000000
    20  H    4.459245   4.303240   2.672488   1.796951   0.000000
    21  H    5.210806   6.451728   4.925735   2.496462   2.533218
    22  H    5.342502   6.117047   4.159105   3.098259   2.473030
    23  H    3.803011   6.301510   5.338353   2.687497   3.849003
    24  H    5.235479   7.303923   5.841347   3.862074   4.331945
    25  H    3.892094   6.338736   5.372654   4.197326   5.002670
    26  H    4.543598   5.972453   4.422664   4.035649   4.153620
    27  H    1.100436   4.315985   5.174959   3.811163   5.350398
                   21         22         23         24         25
    21  H    0.000000
    22  H    1.799251   0.000000
    23  H    2.467786   3.084442   0.000000
    24  H    2.541962   2.468053   1.794544   0.000000
    25  H    4.337559   3.842509   2.487963   2.519012   0.000000
    26  H    3.852517   2.669389   3.097693   2.499420   1.794840
    27  H    5.876993   6.226785   4.254989   5.835075   4.480087
                   26         27
    26  H    0.000000
    27  H    5.415361   0.000000
 Symmetry turned off by external request.
 Stoichiometry    C9H13N3O2
 Framework group  C1[X(C9H13N3O2)]
 Deg. of freedom    75
 Full point group                 C1      NOp   1
 Rotational constants (GHZ):           1.6354809           0.4007408           0.3576903
 Standard basis: 6-31G(d) (6D, 7F)
   236 basis functions,   444 primitive gaussians,   236 cartesian basis functions
    52 alpha electrons       52 beta electrons
       nuclear repulsion energy       917.0470155778 Hartrees.
 NAtoms=   27 NActive=   27 NUniq=   27 SFac= 1.00D+00 NAtFMM=   60 NAOKFM=F Big=F
 Integral buffers will be    131072 words long.
 Raffenetti 1 integral format.
 Two-electron integral symmetry is turned off.
 One-electron integrals computed using PRISM.
 NBasis=   236 RedAO= T EigKep=  1.27D-03  NBF=   236
 NBsUse=   236 1.00D-06 EigRej= -1.00D+00 NBFU=   236
 ExpMin= 1.61D-01 ExpMax= 5.48D+03 ExpMxC= 8.25D+02 IAcc=3 IRadAn=         5 AccDes= 0.00D+00
 Harris functional with IExCor=  205 and IRadAn=       5 diagonalized for initial guess.
 HarFok:  IExCor=  205 AccDes= 0.00D+00 IRadAn=         5 IDoV= 1 UseB2=F ITyADJ=14
 ICtDFT=  3500011 ScaDFX=  1.000000  1.000000  1.000000  1.000000
 FoFCou: FMM=F IPFlag=           0 FMFlag=      100000 FMFlg1=           0
         NFxFlg=           0 DoJE=T BraDBF=F KetDBF=T FulRan=T
         wScrn=  0.000000 ICntrl=       500 IOpCl=  0 I1Cent=   200000004 NGrid=           0
         NMat0=    1 NMatS0=      1 NMatT0=    0 NMatD0=    1 NMtDS0=    0 NMtDT0=    0
 Symmetry not used in FoFCou.
 Keep R1 ints in memory in canonical form, NReq=397720213.
 Requested convergence on RMS density matrix=1.00D-08 within 128 cycles.
 Requested convergence on MAX density matrix=1.00D-06.
 Requested convergence on             energy=1.00D-06.
 No special actions if energy rises.
 SCF Done:  E(RHF) =  -661.279433017     A.U. after   16 cycles
            NFock= 16  Conv=0.66D-08     -V/T= 2.0037
 ExpMin= 1.61D-01 ExpMax= 5.48D+03 ExpMxC= 8.25D+02 IAcc=3 IRadAn=         5 AccDes= 0.00D+00
 HarFok:  IExCor=  205 AccDes= 0.00D+00 IRadAn=         5 IDoV=-2 UseB2=F ITyADJ=14
 ICtDFT= 12500011 ScaDFX=  1.000000  1.000000  1.000000  1.000000
 Range of M.O.s used for correlation:    15   236
 NBasis=   236 NAE=    52 NBE=    52 NFC=    14 NFV=     0
 NROrb=    222 NOA=    38 NOB=    38 NVA=   184 NVB=   184
 Fully direct method using O(ONN) memory.
 JobTyp=1 Pass  1:  I=  15 to  52 NPSUse=  4 ParTrn=T ParDer=T DoDerP=T.
 Spin components of T(2) and E(2):
     alpha-alpha T2 =       0.9210622604D-01 E2=     -0.2719217958D+00
     alpha-beta  T2 =       0.4995444838D+00 E2=     -0.1493591041D+01
     beta-beta   T2 =       0.9210622604D-01 E2=     -0.2719217958D+00
 ANorm=    0.1297596600D+01
 E2 =    -0.2037434633D+01 EUMP2 =    -0.66331686765024D+03
          IDoAtm=111111111111111111111111111
          Differentiating once with respect to electric field.
                with respect to dipole field.
          Differentiating once with respect to nuclear coordinates.
 Keep R1 ints in memory in canonical form, NReq=397723379.
          There are     1 degrees of freedom in the 1st order CPHF.  IDoFFX=0 NUNeed=     1.
 LinEq1:  Iter=  0 NonCon=     1 RMS=4.66D-03 Max=1.25D-01 NDo=     1
 AX will form     1 AO Fock derivatives at one time.
 LinEq1:  Iter=  1 NonCon=     1 RMS=1.59D-03 Max=3.92D-02 NDo=     1
 LinEq1:  Iter=  2 NonCon=     1 RMS=6.52D-04 Max=2.04D-02 NDo=     1
 LinEq1:  Iter=  3 NonCon=     1 RMS=2.97D-04 Max=9.63D-03 NDo=     1
 LinEq1:  Iter=  4 NonCon=     1 RMS=9.34D-05 Max=2.47D-03 NDo=     1
 LinEq1:  Iter=  5 NonCon=     1 RMS=3.86D-05 Max=1.81D-03 NDo=     1
 LinEq1:  Iter=  6 NonCon=     1 RMS=1.59D-05 Max=5.58D-04 NDo=     1
 LinEq1:  Iter=  7 NonCon=     1 RMS=6.03D-06 Max=7.34D-05 NDo=     1
 LinEq1:  Iter=  8 NonCon=     1 RMS=2.38D-06 Max=4.94D-05 NDo=     1
 LinEq1:  Iter=  9 NonCon=     1 RMS=8.75D-07 Max=2.46D-05 NDo=     1
 LinEq1:  Iter= 10 NonCon=     1 RMS=4.19D-07 Max=1.35D-05 NDo=     1
 LinEq1:  Iter= 11 NonCon=     1 RMS=1.56D-07 Max=5.57D-06 NDo=     1
 LinEq1:  Iter= 12 NonCon=     1 RMS=5.50D-08 Max=8.68D-07 NDo=     1
 LinEq1:  Iter= 13 NonCon=     1 RMS=1.71D-08 Max=3.24D-07 NDo=     1
 LinEq1:  Iter= 14 NonCon=     1 RMS=5.14D-09 Max=1.32D-07 NDo=     1
 LinEq1:  Iter= 15 NonCon=     1 RMS=1.81D-09 Max=6.27D-08 NDo=     1
 LinEq1:  Iter= 16 NonCon=     1 RMS=6.85D-10 Max=1.65D-08 NDo=     1
 LinEq1:  Iter= 17 NonCon=     1 RMS=2.28D-10 Max=3.76D-09 NDo=     1
 LinEq1:  Iter= 18 NonCon=     1 RMS=8.21D-11 Max=1.27D-09 NDo=     1
 LinEq1:  Iter= 19 NonCon=     0 RMS=2.80D-11 Max=5.66D-10 NDo=     1
 Linear equations converged to 1.000D-10 1.000D-09 after    19 iterations.
 End of Minotr F.D. properties file   721 does not exist.
 End of Minotr F.D. properties file   722 does not exist.
 End of Minotr F.D. properties file   788 does not exist.

 **********************************************************************

            Population analysis using the SCF Density.

 **********************************************************************

 Alpha  occ. eigenvalues --  -20.59760 -20.59386 -15.85277 -15.63821 -15.56160
 Alpha  occ. eigenvalues --  -11.35994 -11.30468 -11.30123 -11.30057 -11.27540
 Alpha  occ. eigenvalues --  -11.24679 -11.23916 -11.23287 -11.22853  -1.58452
 Alpha  occ. eigenvalues --   -1.37932  -1.28988  -1.22425  -1.13295  -1.08397
 Alpha  occ. eigenvalues --   -1.01735  -1.00743  -0.93710  -0.88898  -0.84926
 Alpha  occ. eigenvalues --   -0.81526  -0.77972  -0.77048  -0.74383  -0.71219
 Alpha  occ. eigenvalues --   -0.70251  -0.69783  -0.67352  -0.64104  -0.63319
 Alpha  occ. eigenvalues --   -0.61943  -0.59780  -0.57385  -0.56563  -0.54784
 Alpha  occ. eigenvalues --   -0.54167  -0.50519  -0.49837  -0.48561  -0.47880
 Alpha  occ. eigenvalues --   -0.47724  -0.46366  -0.45440  -0.44024  -0.42177
 Alpha  occ. eigenvalues --   -0.39018  -0.33568
 Alpha virt. eigenvalues --    0.07397   0.11578   0.17363   0.21517   0.23693
 Alpha virt. eigenvalues --    0.24957   0.26193   0.28055   0.28568   0.28874
 Alpha virt. eigenvalues --    0.29756   0.31402   0.31760   0.32402   0.33196
 Alpha virt. eigenvalues --    0.33919   0.34600   0.35689   0.37650   0.38749
 Alpha virt. eigenvalues --    0.40336   0.41178   0.43832   0.45174   0.45336
 Alpha virt. eigenvalues --    0.47024   0.49811   0.53258   0.57598   0.58972
 Alpha virt. eigenvalues --    0.63334   0.68392   0.69471   0.72416   0.74093
 Alpha virt. eigenvalues --    0.74887   0.75719   0.75781   0.78266   0.78493
 Alpha virt. eigenvalues --    0.80849   0.82732   0.84626   0.85124   0.87778
 Alpha virt. eigenvalues --    0.88555   0.90594   0.91549   0.92296   0.93832
 Alpha virt. eigenvalues --    0.94930   0.97394   0.99393   1.00933   1.01998
 Alpha virt. eigenvalues --    1.02963   1.04956   1.06146   1.07123   1.08618
 Alpha virt. eigenvalues --    1.09823   1.10599   1.11796   1.12668   1.13177
 Alpha virt. eigenvalues --    1.13543   1.14255   1.15412   1.15834   1.16732
 Alpha virt. eigenvalues --    1.17927   1.20335   1.21672   1.21926   1.22929
 Alpha virt. eigenvalues --    1.23678   1.24765   1.25496   1.27185   1.28153
 Alpha virt. eigenvalues --    1.29033   1.31678   1.34244   1.36526   1.38951
 Alpha virt. eigenvalues --    1.41848   1.47940   1.50526   1.52630   1.53242
 Alpha virt. eigenvalues --    1.55556   1.58370   1.60706   1.62434   1.65441
 Alpha virt. eigenvalues --    1.67485   1.69437   1.71679   1.72714   1.76731
 Alpha virt. eigenvalues --    1.79029   1.82078   1.84005   1.87633   1.91171
 Alpha virt. eigenvalues --    1.93659   1.95992   1.97827   1.99742   2.00918
 Alpha virt. eigenvalues --    2.02942   2.03377   2.05906   2.09538   2.11652
 Alpha virt. eigenvalues --    2.11815   2.13340   2.17010   2.18221   2.19790
 Alpha virt. eigenvalues --    2.20086   2.22074   2.23778   2.24814   2.25840
 Alpha virt. eigenvalues --    2.28987   2.31979   2.32897   2.35314   2.36719
 Alpha virt. eigenvalues --    2.39684   2.41691   2.42468   2.44599   2.45880
 Alpha virt. eigenvalues --    2.48919   2.50523   2.50709   2.56149   2.57110
 Alpha virt. eigenvalues --    2.60378   2.64524   2.65285   2.67863   2.68312
 Alpha virt. eigenvalues --    2.69164   2.70230   2.74201   2.75533   2.81347
 Alpha virt. eigenvalues --    2.84595   2.86381   2.90186   2.91308   2.94239
 Alpha virt. eigenvalues --    2.97639   2.97984   3.02184   3.05732   3.06605
 Alpha virt. eigenvalues --    3.07859   3.14671   3.18335   3.22891   3.27091
 Alpha virt. eigenvalues --    3.31776   3.32537   3.38162   3.42509   3.60735
 Alpha virt. eigenvalues --    4.10471   4.23320   4.32077   4.36895   4.44279
 Alpha virt. eigenvalues --    4.52143   4.59401   4.60152   4.70568   4.78255
 Alpha virt. eigenvalues --    4.96865   4.99208   5.04134   5.09266
          Condensed to atoms (all electrons):
               1          2          3          4          5          6
     1  O    8.301925   0.310932  -0.090331  -0.077761   0.003552  -0.000010
     2  N    0.310932   5.677322   0.311762   0.265351  -0.048612   0.000692
     3  O   -0.090331   0.311762   8.330253  -0.088302   0.008063   0.000486
     4  C   -0.077761   0.265351  -0.088302   5.257643   0.565047  -0.051294
     5  C    0.003552  -0.048612   0.008063   0.565047   4.684489   0.314337
     6  N   -0.000010   0.000692   0.000486  -0.051294   0.314337   7.156300
     7  C    0.000002  -0.000093   0.000002   0.005755  -0.029236   0.205752
     8  H   -0.000000   0.000001  -0.000000  -0.000270   0.003009  -0.045643
     9  C    0.000000  -0.000004   0.000000   0.000667   0.000455  -0.057889
    10  C   -0.000000   0.000000   0.000000  -0.000026  -0.000027   0.003354
    11  C   -0.000000  -0.000000  -0.000000  -0.000010   0.000011  -0.000153
    12  C   -0.000000   0.000001  -0.000000  -0.000246  -0.000149   0.003869
    13  C   -0.000010   0.000012  -0.000001  -0.007714  -0.000407  -0.052715
    14  H    0.000000  -0.000035   0.000000   0.001940   0.002978  -0.005220
    15  N    0.000399   0.001495  -0.000010  -0.062824  -0.004439   0.001895
    16  C    0.001853  -0.022638   0.002073   0.311148  -0.043861   0.000812
    17  H    0.000150  -0.004500   0.012901  -0.023742   0.374372  -0.031875
    18  H    0.000000  -0.000033   0.000008   0.001694  -0.026522   0.331421
    19  H    0.000000  -0.000003   0.000000  -0.001005   0.001280  -0.000252
    20  H    0.000000  -0.000000   0.000000  -0.000030  -0.000017  -0.000528
    21  H   -0.000000  -0.000000  -0.000000   0.000001   0.000001  -0.000062
    22  H   -0.000000   0.000000  -0.000000  -0.000000  -0.000001  -0.000091
    23  H    0.000000  -0.000000   0.000000   0.000025  -0.000001  -0.000024
    24  H    0.000000   0.000000   0.000000  -0.000000  -0.000000   0.000005
    25  H    0.000000  -0.000000   0.000000   0.000023  -0.000001  -0.000076
    26  H    0.000000  -0.000000   0.000000   0.000004  -0.000001  -0.000077
    27  H    0.006634  -0.000158   0.000050  -0.068380   0.001961  -0.000016
               7          8          9         10         11         12
     1  O    0.000002  -0.000000   0.000000  -0.000000  -0.000000  -0.000000
     2  N   -0.000093   0.000001  -0.000004   0.000000  -0.000000   0.000001
     3  O    0.000002  -0.000000   0.000000   0.000000  -0.000000  -0.000000
     4  C    0.005755  -0.000270   0.000667  -0.000026  -0.000010  -0.000246
     5  C   -0.029236   0.003009   0.000455  -0.000027   0.000011  -0.000149
     6  N    0.205752  -0.045643  -0.057889   0.003354  -0.000153   0.003869
     7  C    5.044045   0.413165   0.343085  -0.049292  -0.008093  -0.065519
     8  H    0.413165   0.543249  -0.057283   0.000725  -0.000211  -0.003140
     9  C    0.343085  -0.057283   5.173559   0.319684  -0.053681  -0.005387
    10  C   -0.049292   0.000725   0.319684   5.126626   0.332553  -0.060678
    11  C   -0.008093  -0.000211  -0.053681   0.332553   5.125026   0.330326
    12  C   -0.065519  -0.003140  -0.005387  -0.060678   0.330326   5.141727
    13  C    0.316286  -0.038051  -0.055000  -0.000869  -0.047056   0.368154
    14  H   -0.041389  -0.000889   0.003759  -0.000384   0.003955  -0.041238
    15  N   -0.062585   0.004023  -0.011869   0.001225  -0.007322  -0.075623
    16  C   -0.000761  -0.000122  -0.000191  -0.000077  -0.000007   0.002250
    17  H    0.001440  -0.000042  -0.000052   0.000001  -0.000000   0.000001
    18  H   -0.030335  -0.004171   0.001033  -0.000111   0.000010  -0.000158
    19  H   -0.035316   0.003972   0.388321  -0.033322  -0.002123   0.000539
    20  H   -0.042050  -0.001842   0.397062  -0.036894   0.004124  -0.000388
    21  H    0.004091  -0.000069  -0.035920   0.400074  -0.035746   0.004235
    22  H   -0.004502   0.003539  -0.045586   0.395785  -0.045538  -0.001222
    23  H    0.000498   0.000034  -0.002031  -0.040216   0.396535  -0.036722
    24  H   -0.000147  -0.000106   0.004409  -0.038482   0.400386  -0.037730
    25  H    0.005184  -0.000019  -0.000388   0.004104  -0.033661   0.394624
    26  H   -0.004387   0.001458   0.001102  -0.002428  -0.042583   0.394099
    27  H   -0.000391   0.000008  -0.000046   0.000003   0.000006  -0.000021
              13         14         15         16         17         18
     1  O   -0.000010   0.000000   0.000399   0.001853   0.000150   0.000000
     2  N    0.000012  -0.000035   0.001495  -0.022638  -0.004500  -0.000033
     3  O   -0.000001   0.000000  -0.000010   0.002073   0.012901   0.000008
     4  C   -0.007714   0.001940  -0.062824   0.311148  -0.023742   0.001694
     5  C   -0.000407   0.002978  -0.004439  -0.043861   0.374372  -0.026522
     6  N   -0.052715  -0.005220   0.001895   0.000812  -0.031875   0.331421
     7  C    0.316286  -0.041389  -0.062585  -0.000761   0.001440  -0.030335
     8  H   -0.038051  -0.000889   0.004023  -0.000122  -0.000042  -0.004171
     9  C   -0.055000   0.003759  -0.011869  -0.000191  -0.000052   0.001033
    10  C   -0.000869  -0.000384   0.001225  -0.000077   0.000001  -0.000111
    11  C   -0.047056   0.003955  -0.007322  -0.000007  -0.000000   0.000010
    12  C    0.368154  -0.041238  -0.075623   0.002250   0.000001  -0.000158
    13  C    5.017347   0.408027   0.248095  -0.066451  -0.000075   0.004114
    14  H    0.408027   0.515996  -0.034206  -0.006626   0.000016  -0.000011
    15  N    0.248095  -0.034206   6.960738   0.583074  -0.000048  -0.000126
    16  C   -0.066451  -0.006626   0.583074   4.703009   0.001448  -0.000180
    17  H   -0.000075   0.000016  -0.000048   0.001448   0.380152  -0.002588
    18  H    0.004114  -0.000011  -0.000126  -0.000180  -0.002588   0.327141
    19  H   -0.005820   0.000058   0.006566   0.001945   0.000008  -0.000128
    20  H    0.003950  -0.000052   0.000088  -0.000041  -0.000011   0.002045
    21  H   -0.000412   0.000009  -0.000035   0.000003  -0.000000   0.000000
    22  H    0.000315  -0.000042   0.000008  -0.000000   0.000000   0.000002
    23  H   -0.006024   0.000004   0.006850   0.000097   0.000000   0.000000
    24  H    0.004149  -0.000060   0.000016   0.000005   0.000000  -0.000000
    25  H   -0.034273  -0.002699   0.001385  -0.000063  -0.000000   0.000003
    26  H   -0.045171  -0.000895   0.004245  -0.000027   0.000000  -0.000001
    27  H    0.004686  -0.000145  -0.040979   0.404565  -0.000063   0.000001
              19         20         21         22         23         24
     1  O    0.000000   0.000000  -0.000000  -0.000000   0.000000   0.000000
     2  N   -0.000003  -0.000000  -0.000000   0.000000  -0.000000   0.000000
     3  O    0.000000   0.000000  -0.000000  -0.000000   0.000000   0.000000
     4  C   -0.001005  -0.000030   0.000001  -0.000000   0.000025  -0.000000
     5  C    0.001280  -0.000017   0.000001  -0.000001  -0.000001  -0.000000
     6  N   -0.000252  -0.000528  -0.000062  -0.000091  -0.000024   0.000005
     7  C   -0.035316  -0.042050   0.004091  -0.004502   0.000498  -0.000147
     8  H    0.003972  -0.001842  -0.000069   0.003539   0.000034  -0.000106
     9  C    0.388321   0.397062  -0.035920  -0.045586  -0.002031   0.004409
    10  C   -0.033322  -0.036894   0.400074   0.395785  -0.040216  -0.038482
    11  C   -0.002123   0.004124  -0.035746  -0.045538   0.396535   0.400386
    12  C    0.000539  -0.000388   0.004235  -0.001222  -0.036722  -0.037730
    13  C   -0.005820   0.003950  -0.000412   0.000315  -0.006024   0.004149
    14  H    0.000058  -0.000052   0.000009  -0.000042   0.000004  -0.000060
    15  N    0.006566   0.000088  -0.000035   0.000008   0.006850   0.000016
    16  C    0.001945  -0.000041   0.000003  -0.000000   0.000097   0.000005
    17  H    0.000008  -0.000011  -0.000000   0.000000   0.000000   0.000000
    18  H   -0.000128   0.002045   0.000000   0.000002   0.000000  -0.000000
    19  H    0.505752  -0.023766  -0.002561   0.003760   0.001675  -0.000074
    20  H   -0.023766   0.546958  -0.002658  -0.002931  -0.000049  -0.000090
    21  H   -0.002561  -0.002658   0.525431  -0.024669  -0.002820  -0.002065
    22  H    0.003760  -0.002931  -0.024669   0.569386   0.004067  -0.003556
    23  H    0.001675  -0.000049  -0.002820   0.004067   0.510062  -0.024906
    24  H   -0.000074  -0.000090  -0.002065  -0.003556  -0.024906   0.540559
    25  H   -0.000028   0.000011  -0.000086  -0.000083  -0.002061  -0.002408
    26  H    0.000022  -0.000035  -0.000072   0.002454   0.003845  -0.002760
    27  H    0.000065   0.000000  -0.000000   0.000000  -0.000022  -0.000000
              25         26         27
     1  O    0.000000   0.000000   0.006634
     2  N   -0.000000  -0.000000  -0.000158
     3  O    0.000000   0.000000   0.000050
     4  C    0.000023   0.000004  -0.068380
     5  C   -0.000001  -0.000001   0.001961
     6  N   -0.000076  -0.000077  -0.000016
     7  C    0.005184  -0.004387  -0.000391
     8  H   -0.000019   0.001458   0.000008
     9  C   -0.000388   0.001102  -0.000046
    10  C    0.004104  -0.002428   0.000003
    11  C   -0.033661  -0.042583   0.000006
    12  C    0.394624   0.394099  -0.000021
    13  C   -0.034273  -0.045171   0.004686
    14  H   -0.002699  -0.000895  -0.000145
    15  N    0.001385   0.004245  -0.040979
    16  C   -0.000063  -0.000027   0.404565
    17  H   -0.000000   0.000000  -0.000063
    18  H    0.000003  -0.000001   0.000001
    19  H   -0.000028   0.000022   0.000065
    20  H    0.000011  -0.000035   0.000000
    21  H   -0.000086  -0.000072  -0.000000
    22  H   -0.000083   0.002454   0.000000
    23  H   -0.002061   0.003845  -0.000022
    24  H   -0.002408  -0.002760  -0.000000
    25  H    0.509860  -0.023184  -0.000016
    26  H   -0.023184   0.564467   0.000001
    27  H   -0.000016   0.000001   0.443299
 Mulliken charges:
               1
     1  O   -0.457335
     2  N    0.508509
     3  O   -0.486953
     4  C   -0.027691
     5  C    0.193717
     6  N   -0.772997
     7  C    0.034794
     8  H    0.178677
     9  C   -0.307809
    10  C   -0.321328
    11  C   -0.316748
    12  C   -0.311607
    13  C   -0.015088
    14  H    0.197150
    15  N   -0.520038
    16  C    0.128764
    17  H    0.292506
    18  H    0.396891
    19  H    0.190435
    20  H    0.157144
    21  H    0.173331
    22  H    0.148905
    23  H    0.191183
    24  H    0.162855
    25  H    0.183851
    26  H    0.149924
    27  H    0.248958
 Sum of Mulliken charges =  -0.00000
 Mulliken charges with hydrogens summed into heavy atoms:
               1
     1  O   -0.457335
     2  N    0.508509
     3  O   -0.486953
     4  C   -0.027691
     5  C    0.486224
     6  N   -0.376107
     7  C    0.213471
     9  C    0.039770
    10  C    0.000908
    11  C    0.037290
    12  C    0.022168
    13  C    0.182062
    15  N   -0.520038
    16  C    0.377722
 Electronic spatial extent (au):  <R**2>=           3120.8591
 Charge=             -0.0000 electrons
 Dipole moment (field-independent basis, Debye):
    X=              5.4117    Y=              4.4936    Z=              1.3017  Tot=              7.1535
 Quadrupole moment (field-independent basis, Debye-Ang):
   XX=           -105.2620   YY=            -79.7053   ZZ=            -82.8032
   XY=             -0.7494   XZ=             -2.1056   YZ=              0.9939
 Traceless Quadrupole moment (field-independent basis, Debye-Ang):
   XX=            -16.0052   YY=              9.5516   ZZ=              6.4536
   XY=             -0.7494   XZ=             -2.1056   YZ=              0.9939
 Octapole moment (field-independent basis, Debye-Ang**2):
  XXX=             99.3129  YYY=             33.9640  ZZZ=              0.3449  XYY=             -2.9441
  XXY=              7.8167  XXZ=             15.6887  XZZ=             -5.7088  YZZ=             -2.1862
  YYZ=              6.3997  XYZ=             -0.2404
 Hexadecapole moment (field-independent basis, Debye-Ang**3):
 XXXX=          -3519.0129 YYYY=           -616.3287 ZZZZ=           -319.4721 XXXY=             -9.1975
 XXXZ=            -97.3902 YYYX=              5.5953 YYYZ=             23.7588 ZZZX=            -40.4051
 ZZZY=              8.3693 XXYY=           -651.2540 XXZZ=           -550.3461 YYZZ=           -167.6543
 XXYZ=              5.3998 YYXZ=            -12.7418 ZZXY=              7.9507
 N-N= 9.170470155778D+02 E-N=-3.380128386655D+03  KE= 6.588657734414D+02
 Calling FoFJK, ICntrl=  10002127 FMM=F ISym2X=0 I1Cent= 0 IOpClX= 0 NMat=1 NMatS=1 NMatT=0.
 -------------------------------------------------------------------
 Center     Atomic                   Forces (Hartrees/Bohr)
 Number     Number              X              Y              Z
 -------------------------------------------------------------------
      1        8           0.000972538   -0.018938189   -0.000212346
      2        7           0.039976830    0.009992566    0.003414824
      3        8          -0.003892843    0.016734554    0.001426073
      4        6          -0.003186624    0.003661533    0.009449248
      5        6           0.001803189   -0.015842849   -0.001433986
      6        7           0.017229381   -0.001222130   -0.011406640
      7        6          -0.004681006    0.004969910    0.005871641
      8        1          -0.012214595   -0.001651293   -0.006935556
      9        6          -0.004344272    0.001229527   -0.002198964
     10        6           0.002696884   -0.001333429    0.000796398
     11        6          -0.001192511   -0.004293681   -0.001935706
     12        6           0.000602618   -0.009516411   -0.002890332
     13        6           0.011487219   -0.000765976   -0.001121097
     14        1           0.001322216    0.003662913   -0.011031184
     15        7           0.000099361   -0.007910214    0.017326041
     16        6          -0.020629801    0.015143896   -0.011219840
     17        1           0.006923296   -0.008341896    0.000538049
     18        1          -0.018389584   -0.002396262   -0.000234049
     19        1           0.003307827    0.005674580    0.007391300
     20        1          -0.002967935   -0.007741146    0.002878661
     21        1          -0.003692657    0.002363945    0.009877165
     22        1          -0.004467162   -0.003980856   -0.007053977
     23        1           0.004435423    0.005976864    0.008890014
     24        1          -0.009579158    0.002386416   -0.001524440
     25        1          -0.001098773    0.010600012   -0.002470381
     26        1          -0.004935885   -0.004687431   -0.003993830
     27        1           0.004416027    0.006225045   -0.002197084
 -------------------------------------------------------------------
 Cartesian Forces:  Max     0.039976830 RMS     0.008843949

 GradGradGradGradGradGradGradGradGradGradGradGradGradGradGradGradGradGrad
 Berny optimization.
 FormGI is forming the generalized inverse of G from B-inverse, IUseBI=4.
 Internal  Forces:  Max     0.038020508 RMS     0.007030121
 Search for a local minimum.
 Step number   1 out of a maximum of   20
 All quantities printed in internal units (Hartrees-Bohrs-Radians)
 Mixed Optimization -- RFO/linear search
 Second derivative matrix not updated -- first step.
 ITU=  0
     Eigenvalues ---    0.00231   0.00780   0.01057   0.01159   0.01310
     Eigenvalues ---    0.01460   0.01544   0.01916   0.02008   0.02107
     Eigenvalues ---    0.02691   0.03647   0.04506   0.04663   0.04838
     Eigenvalues ---    0.05011   0.05136   0.05303   0.05846   0.06235
     Eigenvalues ---    0.06803   0.07572   0.07686   0.07768   0.07986
     Eigenvalues ---    0.08039   0.08049   0.10192   0.10635   0.11718
     Eigenvalues ---    0.12258   0.14166   0.15050   0.15958   0.15984
     Eigenvalues ---    0.19847   0.22286   0.23294   0.24991   0.25000
     Eigenvalues ---    0.25000   0.25312   0.26067   0.26643   0.27973
     Eigenvalues ---    0.28088   0.28517   0.29259   0.31449   0.32006
     Eigenvalues ---    0.32063   0.32237   0.32296   0.32383   0.32389
     Eigenvalues ---    0.32408   0.32516   0.32528   0.32588   0.33313
     Eigenvalues ---    0.33402   0.33634   0.35469   0.43887   0.44313
     Eigenvalues ---    0.50165   0.67326   0.90336   0.911681000.00000
     Eigenvalues --- 1000.000001000.000001000.000001000.000001000.00000
     Eigenvalues --- 1000.000001000.000001000.000001000.000001000.00000
     Eigenvalues --- 1000.000001000.000001000.000001000.000001000.00000
     Eigenvalues --- 1000.000001000.000001000.000001000.000001000.00000
     Eigenvalues --- 1000.000001000.000001000.000001000.000001000.00000
     Eigenvalues --- 1000.000001000.000001000.000001000.000001000.00000
     Eigenvalues --- 1000.000001000.000001000.000001000.000001000.00000
     Eigenvalues --- 1000.000001000.000001000.000001000.000001000.00000
     Eigenvalues --- 1000.000001000.000001000.000001000.000001000.00000
     Eigenvalues --- 1000.000001000.000001000.000001000.000001000.00000
     Eigenvalues --- 1000.000001000.000001000.000001000.000001000.00000
     Eigenvalues --- 1000.000001000.000001000.000001000.000001000.00000
     Eigenvalues --- 1000.000001000.000001000.000001000.000001000.00000
     Eigenvalues --- 1000.000001000.000001000.000001000.000001000.00000
     Eigenvalues --- 1000.000001000.000001000.000001000.000001000.00000
     Eigenvalues --- 1000.000001000.000001000.000001000.000001000.00000
     Eigenvalues --- 1000.000001000.000001000.000001000.000001000.00000
     Eigenvalues --- 1000.000001000.000001000.000001000.000001000.00000
     Eigenvalues --- 1000.00000
 RFO step:  Lambda=-2.46258477D-02 EMin= 2.30939636D-03
 Linear search not attempted -- first point.
 Iteration  1 RMS(Cart)=  0.06095295 RMS(Int)=  0.00130584
 Iteration  2 RMS(Cart)=  0.00146472 RMS(Int)=  0.00020530
 Iteration  3 RMS(Cart)=  0.00000086 RMS(Int)=  0.00020530
 Iteration  1 RMS(Cart)=  0.00004922 RMS(Int)=  0.00003670
 Iteration  2 RMS(Cart)=  0.00002863 RMS(Int)=  0.00004023
 Iteration  3 RMS(Cart)=  0.00001815 RMS(Int)=  0.00004513
 Iteration  4 RMS(Cart)=  0.00001241 RMS(Int)=  0.00004918
 Iteration  5 RMS(Cart)=  0.00000905 RMS(Int)=  0.00005241
 Iteration  6 RMS(Cart)=  0.00000699 RMS(Int)=  0.00005503
 Iteration  7 RMS(Cart)=  0.00000563 RMS(Int)=  0.00005720
 Iteration  8 RMS(Cart)=  0.00000469 RMS(Int)=  0.00005904
 Iteration  9 RMS(Cart)=  0.00000400 RMS(Int)=  0.00006062
 Iteration 10 RMS(Cart)=  0.00000346 RMS(Int)=  0.00006198
 Iteration 11 RMS(Cart)=  0.00000301 RMS(Int)=  0.00006317
 Iteration 12 RMS(Cart)=  0.00000264 RMS(Int)=  0.00006422
 Iteration 13 RMS(Cart)=  0.00000231 RMS(Int)=  0.00006514
 Iteration 14 RMS(Cart)=  0.00000204 RMS(Int)=  0.00006595
 Iteration 15 RMS(Cart)=  0.00000179 RMS(Int)=  0.00006666
 Iteration 16 RMS(Cart)=  0.00000158 RMS(Int)=  0.00006730
 Iteration 17 RMS(Cart)=  0.00000139 RMS(Int)=  0.00006786
 Iteration 18 RMS(Cart)=  0.00000122 RMS(Int)=  0.00006835
 Iteration 19 RMS(Cart)=  0.00000108 RMS(Int)=  0.00006879
 Iteration 20 RMS(Cart)=  0.00000095 RMS(Int)=  0.00006917
 Variable       Old X    -DE/DX   Delta X   Delta X   Delta X     New X
                                 (Linear)    (Quad)   (Total)
    R1        2.32399   0.01742   0.00000   0.01860   0.01860   2.34259
    R2        2.32778   0.01572   0.00000   0.01694   0.01694   2.34472
    R3        2.89467  -0.03802   0.00000  -0.11986  -0.11986   2.77481
    R4        2.64540  -0.03254   0.00000  -0.07062  -0.07037   2.57503
    R5        2.81718  -0.02538   0.00000  -0.07615  -0.07597   2.74122
    R6        2.58474  -0.02374   0.00000  -0.04419  -0.04405   2.54069
    R7        2.08351  -0.01081   0.00000  -0.03013  -0.03013   2.05338
    R8        2.81608  -0.01779   0.00000  -0.04457  -0.04466   2.77142
    R9        1.93290  -0.00656   0.00000  -0.01416  -0.01416   1.91874
   R10        2.11864  -0.01284   0.00000  -0.03788  -0.03788   2.08076
   R11        2.92702  -0.01300   0.00000  -0.04470  -0.04459   2.88244
   R12        2.89660  -0.00126   0.00000  -0.00138  -0.00151   2.89509
   R13        2.91133  -0.00422   0.00000  -0.01417  -0.01426   2.89708
   R14        2.09910  -0.00964   0.00000  -0.02756  -0.02756   2.07154
   R15        2.09889  -0.00836   0.00000  -0.02389  -0.02389   2.07500
   R16        2.90475  -0.00149   0.00000  -0.00635  -0.00645   2.89830
   R17        2.10138  -0.01055   0.00000  -0.03026  -0.03026   2.07112
   R18        2.10306  -0.00896   0.00000  -0.02577  -0.02577   2.07729
   R19        2.91808  -0.00940   0.00000  -0.02910  -0.02920   2.88888
   R20        2.10412  -0.01142   0.00000  -0.03292  -0.03292   2.07120
   R21        2.10104  -0.00996   0.00000  -0.02855  -0.02855   2.07248
   R22        2.93512  -0.01110   0.00000  -0.03683  -0.03673   2.89839
   R23        2.10148  -0.01080   0.00000  -0.03099  -0.03099   2.07049
   R24        2.09782  -0.00770   0.00000  -0.02196  -0.02196   2.07585
   R25        2.10729  -0.01066   0.00000  -0.03087  -0.03087   2.07642
   R26        2.76707  -0.00519   0.00000  -0.00839  -0.00860   2.75847
   R27        2.44277  -0.00231   0.00000  -0.00425  -0.00428   2.43850
   R28        2.07952  -0.00599   0.00000  -0.01658  -0.01658   2.06294
    A1        2.15452   0.01121   0.00000   0.04089   0.04081   2.19534
    A2        2.05584  -0.00610   0.00000  -0.02214  -0.02221   2.03363
    A3        2.07270  -0.00508   0.00000  -0.01842  -0.01850   2.05420
    A4        2.02075  -0.00955   0.00000  -0.02851  -0.02892   1.99183
    A5        2.02987  -0.00265   0.00000  -0.00352  -0.00397   2.02591
    A6        2.23217   0.01215   0.00000   0.03103   0.03124   2.26341
    A7        2.20320   0.00667   0.00000   0.01930   0.01965   2.22284
    A8        2.06389  -0.00400   0.00000  -0.01390  -0.01416   2.04973
    A9        2.01469  -0.00264   0.00000  -0.00653  -0.00683   2.00786
   A10        2.25139  -0.00763   0.00000  -0.01641  -0.01615   2.23524
   A11        2.09797  -0.01219   0.00000  -0.08243  -0.08243   2.01554
   A12        1.86031   0.02004   0.00000   0.09911   0.09909   1.95940
   A13        1.84202  -0.00266   0.00000  -0.01865  -0.01818   1.82384
   A14        2.01429  -0.00106   0.00000  -0.01317  -0.01342   2.00087
   A15        1.95436   0.00234   0.00000  -0.00825  -0.00905   1.94531
   A16        1.85203   0.00333   0.00000   0.02986   0.02953   1.88155
   A17        1.85101   0.00164   0.00000   0.02568   0.02556   1.87657
   A18        1.93685  -0.00320   0.00000  -0.00951  -0.00921   1.92764
   A19        1.90834   0.00031   0.00000  -0.00642  -0.00653   1.90180
   A20        1.92258  -0.00065   0.00000  -0.01436  -0.01434   1.90824
   A21        1.92222  -0.00192   0.00000  -0.00566  -0.00568   1.91654
   A22        1.91917  -0.00074   0.00000   0.00362   0.00345   1.92262
   A23        1.90684   0.00337   0.00000   0.02779   0.02786   1.93469
   A24        1.88455  -0.00034   0.00000  -0.00452  -0.00476   1.87979
   A25        1.93976  -0.00070   0.00000   0.00623   0.00601   1.94577
   A26        1.91880  -0.00081   0.00000  -0.00768  -0.00766   1.91114
   A27        1.90535   0.00027   0.00000  -0.00291  -0.00296   1.90238
   A28        1.91619   0.00051   0.00000   0.00650   0.00656   1.92275
   A29        1.89889   0.00194   0.00000   0.01170   0.01177   1.91066
   A30        1.88385  -0.00119   0.00000  -0.01430  -0.01441   1.86944
   A31        1.94469   0.00152   0.00000   0.00875   0.00903   1.95372
   A32        1.90215   0.00012   0.00000   0.00427   0.00422   1.90638
   A33        1.91753   0.00041   0.00000   0.00558   0.00547   1.92300
   A34        1.90636  -0.00142   0.00000  -0.01582  -0.01593   1.89043
   A35        1.91553  -0.00073   0.00000   0.00001  -0.00016   1.91537
   A36        1.87620   0.00004   0.00000  -0.00335  -0.00335   1.87285
   A37        1.94607  -0.00415   0.00000  -0.02034  -0.02045   1.92562
   A38        1.90628   0.00255   0.00000   0.01524   0.01506   1.92134
   A39        1.91093   0.00198   0.00000   0.01483   0.01486   1.92580
   A40        1.90677   0.00088   0.00000  -0.00175  -0.00159   1.90518
   A41        1.91212  -0.00017   0.00000  -0.00452  -0.00440   1.90772
   A42        1.88047  -0.00099   0.00000  -0.00286  -0.00305   1.87741
   A43        1.84562   0.00600   0.00000   0.02530   0.02533   1.87095
   A44        1.93448  -0.00486   0.00000  -0.02150  -0.02199   1.91249
   A45        1.99325   0.00005   0.00000  -0.00314  -0.00320   1.99006
   A46        1.88561   0.00195   0.00000   0.02849   0.02859   1.91420
   A47        1.89155  -0.00455   0.00000  -0.02941  -0.02920   1.86236
   A48        1.90909   0.00163   0.00000   0.00268   0.00283   1.91193
   A49        2.10778  -0.00505   0.00000   0.00677   0.00682   2.11460
   A50        2.26969  -0.00596   0.00000  -0.03473  -0.03522   2.23447
   A51        1.97587   0.00335   0.00000   0.01598   0.01518   1.99105
   A52        2.03248   0.00258   0.00000   0.01243   0.01161   2.04409
    D1       -3.02514   0.00024   0.00000  -0.03493  -0.03420  -3.05934
    D2        0.14414   0.00147   0.00000   0.00000   0.00000   0.14414
    D3        0.13268  -0.00169   0.00000  -0.05743  -0.05706   0.07562
    D4       -2.98122  -0.00046   0.00000  -0.02250  -0.02286  -3.00408
    D5        3.04282   0.00221   0.00000   0.01154   0.01143   3.05425
    D6       -0.03899   0.00154   0.00000   0.03576   0.03570  -0.00328
    D7       -0.13023   0.00046   0.00000  -0.02896  -0.02936  -0.15959
    D8        3.07115  -0.00021   0.00000  -0.00474  -0.00509   3.06606
    D9       -3.04992   0.00118   0.00000  -0.00931  -0.00992  -3.05984
   D10        0.20604   0.00122   0.00000   0.05933   0.05888   0.26492
   D11        0.12328   0.00304   0.00000   0.03175   0.03189   0.15517
   D12       -2.90395   0.00307   0.00000   0.10039   0.10070  -2.80325
   D13        0.26637  -0.00328   0.00000   0.01269   0.01249   0.27887
   D14        2.94862   0.00209   0.00000   0.03570   0.03580   2.98442
   D15       -2.93353  -0.00268   0.00000  -0.01119  -0.01153  -2.94506
   D16       -0.25128   0.00270   0.00000   0.01182   0.01177  -0.23951
   D17       -2.81128   0.00027   0.00000  -0.01567  -0.01546  -2.82673
   D18        1.43321  -0.00147   0.00000  -0.03280  -0.03243   1.40078
   D19       -0.80509   0.00185   0.00000   0.00000   0.00000  -0.80509
   D20        0.74161   0.00123   0.00000  -0.00216  -0.00213   0.73949
   D21       -1.29709  -0.00052   0.00000  -0.01928  -0.01910  -1.31618
   D22        2.74780   0.00281   0.00000   0.01352   0.01334   2.76113
   D23        2.95221   0.00239   0.00000   0.04011   0.04019   2.99240
   D24       -1.22009   0.00126   0.00000   0.03145   0.03150  -1.18859
   D25        0.85677  -0.00076   0.00000   0.01341   0.01351   0.87029
   D26        0.91916   0.00403   0.00000   0.05046   0.05061   0.96977
   D27        3.03004   0.00290   0.00000   0.04181   0.04193   3.07197
   D28       -1.17628   0.00088   0.00000   0.02376   0.02394  -1.15234
   D29       -1.08401   0.00183   0.00000   0.00828   0.00819  -1.07582
   D30        1.02687   0.00070   0.00000  -0.00038  -0.00049   1.02637
   D31        3.10373  -0.00132   0.00000  -0.01842  -0.01848   3.08525
   D32       -2.89562  -0.00072   0.00000  -0.02120  -0.02106  -2.91668
   D33       -0.85632   0.00254   0.00000   0.01602   0.01583  -0.84049
   D34        1.30938   0.00086   0.00000   0.00000   0.00001   1.30939
   D35       -0.89494  -0.00175   0.00000  -0.03273  -0.03269  -0.92763
   D36        1.14435   0.00150   0.00000   0.00449   0.00420   1.14856
   D37       -2.97313  -0.00018   0.00000  -0.01153  -0.01162  -2.98475
   D38        1.10887   0.00150   0.00000   0.01206   0.01217   1.12104
   D39       -3.13502   0.00476   0.00000   0.04927   0.04907  -3.08595
   D40       -0.96932   0.00308   0.00000   0.03326   0.03324  -0.93608
   D41        0.95665   0.00111   0.00000   0.00000   0.00001   0.95666
   D42        3.08182   0.00074   0.00000   0.00713   0.00707   3.08889
   D43       -1.13795  -0.00103   0.00000  -0.01653  -0.01650  -1.15445
   D44       -1.15630   0.00218   0.00000   0.01955   0.01964  -1.13666
   D45        0.96887   0.00180   0.00000   0.02668   0.02670   0.99557
   D46        3.03228   0.00004   0.00000   0.00302   0.00313   3.03541
   D47        3.06150   0.00101   0.00000   0.00620   0.00620   3.06770
   D48       -1.09651   0.00063   0.00000   0.01334   0.01326  -1.08325
   D49        0.96690  -0.00113   0.00000  -0.01032  -0.01031   0.95659
   D50       -0.92192  -0.00083   0.00000   0.00000   0.00001  -0.92191
   D51        1.18298  -0.00156   0.00000  -0.01137  -0.01136   1.17162
   D52       -3.04869  -0.00121   0.00000  -0.00969  -0.00975  -3.05844
   D53       -3.04862   0.00031   0.00000   0.00114   0.00118  -3.04744
   D54       -0.94371  -0.00042   0.00000  -0.01023  -0.01020  -0.95391
   D55        1.10780  -0.00007   0.00000  -0.00855  -0.00858   1.09922
   D56        1.17651   0.00032   0.00000   0.00781   0.00785   1.18435
   D57       -3.00177  -0.00042   0.00000  -0.00356  -0.00353  -3.00530
   D58       -0.95026  -0.00006   0.00000  -0.00188  -0.00191  -0.95217
   D59        0.98822  -0.00143   0.00000  -0.01465  -0.01464   0.97357
   D60        3.09725  -0.00129   0.00000  -0.01972  -0.01987   3.07738
   D61       -1.13066   0.00015   0.00000  -0.00568  -0.00563  -1.13630
   D62       -1.11422  -0.00160   0.00000  -0.01509  -0.01504  -1.12927
   D63        0.99482  -0.00147   0.00000  -0.02016  -0.02028   0.97454
   D64        3.05008  -0.00002   0.00000  -0.00612  -0.00603   3.04405
   D65        3.11614  -0.00039   0.00000  -0.00174  -0.00170   3.11444
   D66       -1.05801  -0.00025   0.00000  -0.00681  -0.00693  -1.06494
   D67        0.99726   0.00120   0.00000   0.00723   0.00731   1.00457
   D68       -1.05528  -0.00010   0.00000   0.00324   0.00333  -1.05195
   D69       -3.12732   0.00143   0.00000   0.00073   0.00028  -3.12704
   D70        1.08899   0.00092   0.00000  -0.00206  -0.00232   1.08667
   D71        3.11915  -0.00122   0.00000  -0.00161  -0.00138   3.11777
   D72        1.04711   0.00031   0.00000  -0.00412  -0.00443   1.04268
   D73       -1.01976  -0.00020   0.00000  -0.00692  -0.00703  -1.02679
   D74        1.06291  -0.00044   0.00000   0.00550   0.00577   1.06868
   D75       -1.00913   0.00109   0.00000   0.00299   0.00272  -1.00641
   D76       -3.07601   0.00058   0.00000   0.00020   0.00012  -3.07588
   D77       -1.17216   0.00752   0.00000   0.00000   0.00001  -1.17216
   D78        3.05900   0.00306   0.00000  -0.00980  -0.01001   3.04899
   D79        1.00708   0.00241   0.00000  -0.02866  -0.02905   0.97803
   D80        0.41276  -0.00578   0.00000  -0.01441  -0.01431   0.39846
   D81       -2.84624  -0.00579   0.00000  -0.08482  -0.08484  -2.93108
         Item               Value     Threshold  Converged?
 Maximum Force            0.038021     0.000450     NO 
 RMS     Force            0.006992     0.000300     NO 
 Maximum Displacement     0.309865     0.001800     NO 
 RMS     Displacement     0.061057     0.001200     NO 
 Predicted change in Energy=-1.386991D-02
 GradGradGradGradGradGradGradGradGradGradGradGradGradGradGradGradGradGrad

                          Input orientation:                          
 ---------------------------------------------------------------------
 Center     Atomic      Atomic             Coordinates (Angstroms)
 Number     Number       Type             X           Y           Z
 ---------------------------------------------------------------------
      1          8           0       -3.512607   -1.331602   -0.470502
      2          7           0       -3.106880   -0.172596   -0.300747
      3          8           0       -3.807787    0.851116   -0.316872
      4          6           0       -1.668943   -0.011342   -0.050882
      5          6           0       -1.292303    1.268010    0.228779
      6          7           0       -0.070316    1.698770    0.587673
      7          6           0        1.209737    0.993986    0.462882
      8          1           0        1.885263    1.525423    1.151101
      9          6           0        1.829697    1.043230   -0.929894
     10          6           0        3.246360    0.460807   -0.865551
     11          6           0        3.246987   -0.949721   -0.263306
     12          6           0        2.530657   -0.994814    1.086453
     13          6           0        1.101705   -0.454614    0.949663
     14          1           0        0.602122   -0.477976    1.928038
     15          7           0        0.404436   -1.342128    0.023968
     16          6           0       -0.855972   -1.201555   -0.214220
     17          1           0       -2.068778    2.028089    0.237292
     18          1           0        0.046730    2.706970    0.615497
     19          1           0        1.212424    0.459620   -1.622757
     20          1           0        1.849313    2.079643   -1.292056
     21          1           0        3.680328    0.442191   -1.871791
     22          1           0        3.877192    1.120891   -0.253422
     23          1           0        2.734451   -1.634866   -0.948265
     24          1           0        4.275866   -1.311809   -0.148952
     25          1           0        2.491648   -2.024998    1.457482
     26          1           0        3.075936   -0.395641    1.828311
     27          1           0       -1.354277   -2.011095   -0.750932
 ---------------------------------------------------------------------
                    Distance matrix (angstroms):
                    1          2          3          4          5
     1  O    0.000000
     2  N    1.239647   0.000000
     3  O    2.207938   1.240772   0.000000
     4  C    2.306136   1.468366   2.321473   0.000000
     5  C    3.489516   2.376643   2.607526   1.362648   0.000000
     6  N    4.706619   3.675871   3.937691   2.426489   1.344475
     7  C    5.346036   4.536213   5.079761   3.092157   2.527864
     8  H    6.318955   5.469244   5.917808   4.054478   3.318715
     9  C    5.864391   5.122876   5.673969   3.758360   3.337654
    10  C    7.003744   6.409670   7.086210   5.004679   4.737995
    11  C    6.773542   6.401325   7.281189   5.009197   5.075986
    12  C    6.249686   5.863632   6.749269   4.460648   4.524489
    13  C    4.906919   4.399460   5.235661   2.978938   3.036179
    14  H    4.838664   4.337907   5.123807   3.048214   3.086227
    15  N    3.948144   3.715184   4.761230   2.464852   3.119887
    16  C    2.672135   2.476456   3.596833   1.450589   2.546642
    17  H    3.724667   2.492019   2.171754   2.098140   1.086603
    18  H    5.491661   4.367684   4.378448   3.282806   2.003289
    19  H    5.182865   4.561118   5.202030   3.315852   3.217971
    20  H    6.407943   5.533455   5.870523   4.276781   3.583495
    21  H    7.539779   6.993736   7.658777   5.668872   5.460901
    22  H    7.789158   7.103001   7.689974   5.664150   5.194020
    23  H    6.272636   6.056292   7.027065   4.778180   5.101654
    24  H    7.795133   7.471665   8.369700   6.086180   6.148386
    25  H    6.344210   6.153558   7.148653   4.862149   5.164485
    26  H    7.040559   6.542924   7.317230   5.117903   4.940420
    27  H    2.280074   2.579605   3.794782   2.141984   3.422894
                    6          7          8          9         10
     6  N    0.000000
     7  C    1.466570   0.000000
     8  H    2.042496   1.101093   0.000000
     9  C    2.518490   1.525320   2.136852   0.000000
    10  C    3.826846   2.489347   2.655725   1.533066   0.000000
    11  C    4.329338   2.907875   3.159300   2.534740   1.533716
    12  C    3.777464   2.467589   2.602365   2.951376   2.537987
    13  C    2.478252   1.532015   2.138945   2.511223   2.955087
    14  H    2.643289   2.163920   2.502736   3.462482   3.959475
    15  N    3.128932   2.509698   3.418498   2.937883   3.481142
    16  C    3.110012   3.089663   4.100595   3.572683   4.474014
    17  H    2.055497   3.445130   4.089274   4.186929   5.650073
    18  H    1.015353   2.076100   2.250140   2.887080   4.180477
    19  H    2.840232   2.153008   3.046791   1.096214   2.170313
    20  H    2.713562   2.160443   2.505487   1.098042   2.180430
    21  H    4.657820   3.443690   3.678794   2.161771   1.095990
    22  H    4.077279   2.764872   2.470650   2.157750   1.099255
    23  H    4.619411   3.350665   3.887915   2.826856   2.158874
    24  H    5.338117   3.884865   3.931284   3.484225   2.171534
    25  H    4.602899   3.427360   3.614839   3.943573   3.485010
    26  H    3.978019   2.697806   2.359406   3.351291   2.831861
    27  H    4.147713   4.132557   5.159390   4.415724   5.223916
                   11         12         13         14         15
    11  C    0.000000
    12  C    1.528729   0.000000
    13  C    2.513695   1.533763   0.000000
    14  H    3.466965   2.166710   1.098793   0.000000
    15  N    2.883853   2.402148   1.459718   2.100314   0.000000
    16  C    4.110973   3.633695   2.396881   2.690515   1.290396
    17  H    6.113535   5.569005   4.089407   4.033942   4.185769
    18  H    4.938151   4.482733   3.349665   3.489285   4.107683
    19  H    2.823791   3.345584   2.732293   3.722862   2.571156
    20  H    3.491255   3.946367   3.465065   4.297197   3.940571
    21  H    2.170812   3.483954   3.926087   4.976018   4.184395
    22  H    2.164414   2.843348   3.410712   4.247497   4.266549
    23  H    1.096032   2.142726   2.767848   3.762757   2.541634
    24  H    1.096711   2.161588   3.466559   4.301808   3.875408
    25  H    2.165149   1.095657   2.157760   2.486968   2.622542
    26  H    2.170513   1.098495   2.161733   2.477192   3.359822
    27  H    4.747202   4.416053   3.368457   3.654426   2.034959
                   16         17         18         19         20
    16  C    0.000000
    17  H    3.479277   0.000000
    18  H    4.096324   2.253728   0.000000
    19  H    3.003622   4.084870   3.379232   0.000000
    20  H    4.387090   4.206305   2.698445   1.771853   0.000000
    21  H    5.101712   6.325783   4.951653   2.480498   2.523878
    22  H    5.272394   6.034764   4.235931   3.068118   2.471894
    23  H    3.690219   6.155794   5.340481   2.675514   3.833958
    24  H    5.133436   7.180432   5.883923   3.833371   4.323978
    25  H    3.831344   6.222047   5.392411   4.159040   4.982031
    26  H    4.503479   5.905412   4.502577   4.014227   4.167531
    27  H    1.091661   4.219254   5.107846   3.667761   5.223978
                   21         22         23         24         25
    21  H    0.000000
    22  H    1.765930   0.000000
    23  H    2.462062   3.063145   0.000000
    24  H    2.529695   2.467364   1.766133   0.000000
    25  H    4.310921   3.839732   2.449240   2.504536   0.000000
    26  H    3.841615   2.697312   3.059684   2.487722   1.770230
    27  H    5.711584   6.117608   4.110741   5.705251   4.434910
                   26         27
    26  H    0.000000
    27  H    5.374847   0.000000
 Symmetry turned off by external request.
 Stoichiometry    C9H13N3O2
 Framework group  C1[X(C9H13N3O2)]
 Deg. of freedom    75
 Full point group                 C1      NOp   1
 Rotational constants (GHZ):           1.6465090           0.4228503           0.3758938
 Standard basis: 6-31G(d) (6D, 7F)
   236 basis functions,   444 primitive gaussians,   236 cartesian basis functions
    52 alpha electrons       52 beta electrons
       nuclear repulsion energy       931.9950851914 Hartrees.
 NAtoms=   27 NActive=   27 NUniq=   27 SFac= 1.00D+00 NAtFMM=   60 NAOKFM=F Big=F
 Integral buffers will be    131072 words long.
 Raffenetti 1 integral format.
 Two-electron integral symmetry is turned off.
 One-electron integrals computed using PRISM.
 NBasis=   236 RedAO= T EigKep=  1.03D-03  NBF=   236
 NBsUse=   236 1.00D-06 EigRej= -1.00D+00 NBFU=   236
 Initial guess from the checkpoint file:  "/home/alexey/tmp/Gau-1551474.chk"
 B after Tr=     0.058824    0.005716    0.005585
         Rot=    0.999998   -0.001404    0.000681    0.000826 Ang=  -0.20 deg.
 ExpMin= 1.61D-01 ExpMax= 5.48D+03 ExpMxC= 8.25D+02 IAcc=3 IRadAn=         5 AccDes= 0.00D+00
 Harris functional with IExCor=  205 and IRadAn=       5 diagonalized for initial guess.
 HarFok:  IExCor=  205 AccDes= 0.00D+00 IRadAn=         5 IDoV= 1 UseB2=F ITyADJ=14
 ICtDFT=  3500011 ScaDFX=  1.000000  1.000000  1.000000  1.000000
 FoFCou: FMM=F IPFlag=           0 FMFlag=      100000 FMFlg1=           0
         NFxFlg=           0 DoJE=T BraDBF=F KetDBF=T FulRan=T
         wScrn=  0.000000 ICntrl=       500 IOpCl=  0 I1Cent=   200000004 NGrid=           0
         NMat0=    1 NMatS0=      1 NMatT0=    0 NMatD0=    1 NMtDS0=    0 NMtDT0=    0
 Symmetry not used in FoFCou.
 Keep R1 ints in memory in canonical form, NReq=397720213.
 Requested convergence on RMS density matrix=1.00D-08 within 128 cycles.
 Requested convergence on MAX density matrix=1.00D-06.
 Requested convergence on             energy=1.00D-06.
 No special actions if energy rises.
 SCF Done:  E(RHF) =  -661.296345651     A.U. after   15 cycles
            NFock= 15  Conv=0.44D-08     -V/T= 2.0024
 ExpMin= 1.61D-01 ExpMax= 5.48D+03 ExpMxC= 8.25D+02 IAcc=3 IRadAn=         5 AccDes= 0.00D+00
 HarFok:  IExCor=  205 AccDes= 0.00D+00 IRadAn=         5 IDoV=-2 UseB2=F ITyADJ=14
 ICtDFT= 12500011 ScaDFX=  1.000000  1.000000  1.000000  1.000000
 Range of M.O.s used for correlation:    15   236
 NBasis=   236 NAE=    52 NBE=    52 NFC=    14 NFV=     0
 NROrb=    222 NOA=    38 NOB=    38 NVA=   184 NVB=   184
 Fully direct method using O(ONN) memory.
 JobTyp=1 Pass  1:  I=  15 to  52 NPSUse=  4 ParTrn=T ParDer=T DoDerP=T.
 Spin components of T(2) and E(2):
     alpha-alpha T2 =       0.9142611303D-01 E2=     -0.2725379615D+00
     alpha-beta  T2 =       0.4915070039D+00 E2=     -0.1488172328D+01
     beta-beta   T2 =       0.9142611303D-01 E2=     -0.2725379615D+00
 ANorm=    0.1293970336D+01
 E2 =    -0.2033248251D+01 EUMP2 =    -0.66332959390131D+03
          IDoAtm=111111111111111111111111111
          Differentiating once with respect to electric field.
                with respect to dipole field.
          Differentiating once with respect to nuclear coordinates.
 Keep R1 ints in memory in canonical form, NReq=397723379.
          There are     1 degrees of freedom in the 1st order CPHF.  IDoFFX=0 NUNeed=     1.
 LinEq1:  Iter=  0 NonCon=     1 RMS=4.61D-03 Max=1.09D-01 NDo=     1
 AX will form     1 AO Fock derivatives at one time.
[...]
    23  H    3.667051   6.154547   5.389394   2.705981   3.844447
    24  H    5.122183   7.177534   5.927854   3.850423   4.317256
    25  H    3.831296   6.197518   5.386125   4.172624   4.988981
    26  H    4.520621   5.910361   4.523476   4.041225   4.190324
    27  H    1.090001   4.218086   5.096729   3.586624   5.170876
                   21         22         23         24         25
    21  H    0.000000
    22  H    1.758868   0.000000
    23  H    2.469580   3.062420   0.000000
    24  H    2.515971   2.459559   1.764445   0.000000
    25  H    4.312241   3.842228   2.441340   2.521202   0.000000
    26  H    3.849818   2.708987   3.060055   2.491285   1.768857
    27  H    5.627144   6.053262   4.038364   5.652179   4.421681
                   26         27
    26  H    0.000000
    27  H    5.374035   0.000000
 Symmetry turned off by external request.
 Stoichiometry    C9H13N3O2
 Framework group  C1[X(C9H13N3O2)]
 Deg. of freedom    75
 Full point group                 C1      NOp   1
 Rotational constants (GHZ):           1.6510321           0.4199407           0.3745562

 **********************************************************************

            Population analysis using the SCF Density.

 **********************************************************************

 Alpha  occ. eigenvalues --  -20.59298 -20.58958 -15.84773 -15.63998 -15.55819
 Alpha  occ. eigenvalues --  -11.34964 -11.29609 -11.29541 -11.28714 -11.27108
 Alpha  occ. eigenvalues --  -11.23930 -11.23317 -11.22629 -11.22115  -1.57179
 Alpha  occ. eigenvalues --   -1.36768  -1.30822  -1.22751  -1.14762  -1.09810
 Alpha  occ. eigenvalues --   -1.02803  -1.01400  -0.94452  -0.89700  -0.85679
 Alpha  occ. eigenvalues --   -0.82428  -0.78532  -0.77384  -0.75013  -0.71768
 Alpha  occ. eigenvalues --   -0.69758  -0.69486  -0.67945  -0.64766  -0.63882
 Alpha  occ. eigenvalues --   -0.62428  -0.60121  -0.57871  -0.56863  -0.55122
 Alpha  occ. eigenvalues --   -0.54536  -0.50792  -0.50397  -0.48727  -0.48158
 Alpha  occ. eigenvalues --   -0.47414  -0.46273  -0.45986  -0.43731  -0.41960
 Alpha  occ. eigenvalues --   -0.39069  -0.33718
 Alpha virt. eigenvalues --    0.07230   0.11574   0.17409   0.21956   0.24144
 Alpha virt. eigenvalues --    0.25812   0.27247   0.28658   0.29118   0.29524
 Alpha virt. eigenvalues --    0.30688   0.31808   0.32084   0.32812   0.33736
 Alpha virt. eigenvalues --    0.34349   0.36018   0.37535   0.38369   0.40366
 Alpha virt. eigenvalues --    0.41205   0.42245   0.44668   0.45944   0.46319
 Alpha virt. eigenvalues --    0.47571   0.48934   0.53823   0.57405   0.59145
 Alpha virt. eigenvalues --    0.63900   0.68999   0.69642   0.72908   0.73994
 Alpha virt. eigenvalues --    0.75226   0.75604   0.76382   0.78614   0.79280
 Alpha virt. eigenvalues --    0.81339   0.84013   0.85438   0.85814   0.88343
 Alpha virt. eigenvalues --    0.88599   0.91444   0.92038   0.92942   0.94561
 Alpha virt. eigenvalues --    0.95545   0.97923   0.99806   1.01552   1.02321
 Alpha virt. eigenvalues --    1.03174   1.05771   1.06932   1.08045   1.08960
 Alpha virt. eigenvalues --    1.10451   1.11814   1.12057   1.12772   1.13831
 Alpha virt. eigenvalues --    1.14611   1.15120   1.16015   1.17149   1.18427
 Alpha virt. eigenvalues --    1.18628   1.21562   1.23094   1.23751   1.24770
 Alpha virt. eigenvalues --    1.24974   1.25740   1.27005   1.27949   1.29813
 Alpha virt. eigenvalues --    1.30539   1.32546   1.35968   1.37236   1.40307
 Alpha virt. eigenvalues --    1.41260   1.46389   1.48809   1.52442   1.54706
 Alpha virt. eigenvalues --    1.57413   1.59658   1.61045   1.63135   1.65788
 Alpha virt. eigenvalues --    1.67921   1.69749   1.71951   1.75478   1.78798
 Alpha virt. eigenvalues --    1.81086   1.84022   1.86843   1.89450   1.92409
 Alpha virt. eigenvalues --    1.96039   1.96377   1.99736   2.01546   2.02414
 Alpha virt. eigenvalues --    2.04571   2.05727   2.09554   2.10039   2.11960
 Alpha virt. eigenvalues --    2.12481   2.15355   2.18836   2.20222   2.21147
 Alpha virt. eigenvalues --    2.22039   2.24638   2.24808   2.27521   2.28578
 Alpha virt. eigenvalues --    2.30836   2.33530   2.34368   2.36331   2.37820
 Alpha virt. eigenvalues --    2.41003   2.42479   2.44617   2.45093   2.48209
 Alpha virt. eigenvalues --    2.51010   2.52263   2.53571   2.55969   2.59810
 Alpha virt. eigenvalues --    2.62503   2.66391   2.67330   2.69290   2.70326
 Alpha virt. eigenvalues --    2.71296   2.71788   2.75759   2.77855   2.84187
 Alpha virt. eigenvalues --    2.87186   2.88446   2.92878   2.93355   2.96047
 Alpha virt. eigenvalues --    2.98677   3.01024   3.03793   3.06712   3.08516
 Alpha virt. eigenvalues --    3.09942   3.16591   3.20680   3.25252   3.27196
 Alpha virt. eigenvalues --    3.33453   3.37134   3.38390   3.51864   3.65883
 Alpha virt. eigenvalues --    4.13660   4.27989   4.33782   4.39208   4.46948
 Alpha virt. eigenvalues --    4.55503   4.61844   4.62202   4.72848   4.80508
 Alpha virt. eigenvalues --    4.99093   5.00657   5.05651   5.10762
          Condensed to atoms (all electrons):
               1          2          3          4          5          6
     1  O    8.315907   0.305460  -0.082472  -0.084291   0.004534  -0.000013
     2  N    0.305460   5.722102   0.302129   0.261017  -0.054530   0.000904
     3  O   -0.082472   0.302129   8.352086  -0.092104   0.002874   0.000772
     4  C   -0.084291   0.261017  -0.092104   5.236837   0.563335  -0.052427
     5  C    0.004534  -0.054530   0.002874   0.563335   4.717780   0.320333
     6  N   -0.000013   0.000904   0.000772  -0.052427   0.320333   7.170889
     7  C    0.000002  -0.000118   0.000002   0.005719  -0.029795   0.187696
     8  H   -0.000000   0.000002  -0.000000  -0.000299   0.003793  -0.047923
     9  C   -0.000000  -0.000008  -0.000000   0.000625  -0.000130  -0.062960
    10  C   -0.000000   0.000000   0.000000  -0.000040  -0.000017   0.003869
    11  C   -0.000000  -0.000000  -0.000000  -0.000019   0.000014  -0.000167
    12  C    0.000000   0.000002  -0.000000  -0.000260  -0.000156   0.003740
    13  C   -0.000016   0.000011  -0.000002  -0.007398  -0.001738  -0.057130
    14  H   -0.000000  -0.000068   0.000001   0.001767   0.003734  -0.006003
    15  N    0.000535   0.002261  -0.000016  -0.066046  -0.006129   0.001202
    16  C    0.000551  -0.025147   0.002600   0.318989  -0.051358  -0.000378
    17  H    0.000223  -0.006947   0.017324  -0.023572   0.375609  -0.033622
    18  H    0.000001  -0.000054   0.000014   0.002100  -0.033204   0.338577
    19  H    0.000001  -0.000011   0.000000  -0.001489   0.002085  -0.001139
    20  H    0.000000  -0.000000   0.000000  -0.000040  -0.000037   0.000132
    21  H   -0.000000  -0.000000  -0.000000   0.000002   0.000001  -0.000081
    22  H   -0.000000   0.000000  -0.000000  -0.000000  -0.000002  -0.000101
    23  H    0.000000  -0.000000   0.000000   0.000044  -0.000001  -0.000029
    24  H    0.000000   0.000000   0.000000   0.000000  -0.000000   0.000006
    25  H    0.000000  -0.000000   0.000000   0.000029  -0.000002  -0.000088
    26  H    0.000000  -0.000000   0.000000   0.000004  -0.000000  -0.000076
    27  H    0.006464  -0.000632   0.000029  -0.067769   0.002029  -0.000002
               7          8          9         10         11         12
     1  O    0.000002  -0.000000  -0.000000  -0.000000  -0.000000   0.000000
     2  N   -0.000118   0.000002  -0.000008   0.000000  -0.000000   0.000002
     3  O    0.000002  -0.000000  -0.000000   0.000000  -0.000000  -0.000000
     4  C    0.005719  -0.000299   0.000625  -0.000040  -0.000019  -0.000260
     5  C   -0.029795   0.003793  -0.000130  -0.000017   0.000014  -0.000156
     6  N    0.187696  -0.047923  -0.062960   0.003869  -0.000167   0.003740
     7  C    5.029185   0.415361   0.353892  -0.054614  -0.009301  -0.062584
     8  H    0.415361   0.531941  -0.052894   0.000367  -0.000153  -0.001708
     9  C    0.353892  -0.052894   5.159404   0.325776  -0.051040  -0.004943
    10  C   -0.054614   0.000367   0.325776   5.116651   0.337586  -0.060818
    11  C   -0.009301  -0.000153  -0.051040   0.337586   5.120886   0.335191
    12  C   -0.062584  -0.001708  -0.004943  -0.060818   0.335191   5.120739
    13  C    0.328976  -0.036374  -0.061141   0.000018  -0.049339   0.372603
    14  H   -0.044244  -0.001010   0.004224  -0.000399   0.004189  -0.037133
    15  N   -0.060427   0.003979  -0.015461   0.001339  -0.013499  -0.083424
    16  C   -0.001072  -0.000054  -0.000811  -0.000073   0.000004   0.002073
    17  H    0.001609  -0.000042  -0.000060   0.000001  -0.000000   0.000001
    18  H   -0.024668  -0.004569   0.001100  -0.000084   0.000006  -0.000119
    19  H   -0.036712   0.004207   0.391324  -0.032197  -0.002069   0.000717
    20  H   -0.043711  -0.002342   0.398977  -0.034622   0.003926  -0.000457
    21  H    0.004603  -0.000081  -0.036389   0.402315  -0.034870   0.004354
    22  H   -0.004750   0.003492  -0.047119   0.397764  -0.045186  -0.000943
    23  H    0.000682   0.000028  -0.002017  -0.039054   0.398879  -0.037876
    24  H   -0.000142  -0.000096   0.004419  -0.038499   0.402424  -0.038525
    25  H    0.005205  -0.000053  -0.000405   0.004162  -0.033360   0.397506
    26  H   -0.003394   0.001594   0.000959  -0.002164  -0.041631   0.396558
    27  H   -0.000419   0.000008  -0.000049   0.000005   0.000017  -0.000025
              13         14         15         16         17         18
     1  O   -0.000016  -0.000000   0.000535   0.000551   0.000223   0.000001
     2  N    0.000011  -0.000068   0.002261  -0.025147  -0.006947  -0.000054
     3  O   -0.000002   0.000001  -0.000016   0.002600   0.017324   0.000014
     4  C   -0.007398   0.001767  -0.066046   0.318989  -0.023572   0.002100
     5  C   -0.001738   0.003734  -0.006129  -0.051358   0.375609  -0.033204
     6  N   -0.057130  -0.006003   0.001202  -0.000378  -0.033622   0.338577
     7  C    0.328976  -0.044244  -0.060427  -0.001072   0.001609  -0.024668
     8  H   -0.036374  -0.001010   0.003979  -0.000054  -0.000042  -0.004569
     9  C   -0.061141   0.004224  -0.015461  -0.000811  -0.000060   0.001100
    10  C    0.000018  -0.000399   0.001339  -0.000073   0.000001  -0.000084
    11  C   -0.049339   0.004189  -0.013499   0.000004  -0.000000   0.000006
    12  C    0.372603  -0.037133  -0.083424   0.002073   0.000001  -0.000119
    13  C    5.033518   0.406950   0.242041  -0.065655  -0.000095   0.003804
    14  H    0.406950   0.515327  -0.035266  -0.004199   0.000039  -0.000064
    15  N    0.242041  -0.035266   6.987072   0.587093  -0.000038  -0.000157
    16  C   -0.065655  -0.004199   0.587093   4.704778   0.001962  -0.000214
    17  H   -0.000095   0.000039  -0.000038   0.001962   0.376385  -0.003505
    18  H    0.003804  -0.000064  -0.000157  -0.000214  -0.003505   0.319982
    19  H   -0.007600   0.000073   0.007269   0.002749   0.000022  -0.000151
    20  H    0.004503  -0.000064   0.000148  -0.000052  -0.000012   0.001308
    21  H   -0.000446   0.000010  -0.000054   0.000005  -0.000000   0.000001
    22  H   -0.000067  -0.000053   0.000032  -0.000001   0.000000   0.000002
    23  H   -0.007812  -0.000003   0.008964   0.000151   0.000000   0.000000
    24  H    0.004680  -0.000058   0.000133   0.000007   0.000000  -0.000000
    25  H   -0.035296  -0.002735   0.000875  -0.000050  -0.000000   0.000003
    26  H   -0.048056  -0.001019   0.005028  -0.000027   0.000000  -0.000000
    27  H    0.004715  -0.000161  -0.041547   0.407586  -0.000078   0.000001
              19         20         21         22         23         24
     1  O    0.000001   0.000000  -0.000000  -0.000000   0.000000   0.000000
     2  N   -0.000011  -0.000000  -0.000000   0.000000  -0.000000   0.000000
     3  O    0.000000   0.000000  -0.000000  -0.000000   0.000000   0.000000
     4  C   -0.001489  -0.000040   0.000002  -0.000000   0.000044   0.000000
     5  C    0.002085  -0.000037   0.000001  -0.000002  -0.000001  -0.000000
     6  N   -0.001139   0.000132  -0.000081  -0.000101  -0.000029   0.000006
     7  C   -0.036712  -0.043711   0.004603  -0.004750   0.000682  -0.000142
     8  H    0.004207  -0.002342  -0.000081   0.003492   0.000028  -0.000096
     9  C    0.391324   0.398977  -0.036389  -0.047119  -0.002017   0.004419
    10  C   -0.032197  -0.034622   0.402315   0.397764  -0.039054  -0.038499
    11  C   -0.002069   0.003926  -0.034870  -0.045186   0.398879   0.402424
    12  C    0.000717  -0.000457   0.004354  -0.000943  -0.037876  -0.038525
    13  C   -0.007600   0.004503  -0.000446  -0.000067  -0.007812   0.004680
    14  H    0.000073  -0.000064   0.000010  -0.000053  -0.000003  -0.000058
    15  N    0.007269   0.000148  -0.000054   0.000032   0.008964   0.000133
    16  C    0.002749  -0.000052   0.000005  -0.000001   0.000151   0.000007
    17  H    0.000022  -0.000012  -0.000000   0.000000   0.000000   0.000000
    18  H   -0.000151   0.001308   0.000001   0.000002   0.000000  -0.000000
    19  H    0.504966  -0.025302  -0.002808   0.003979   0.001515  -0.000069
    20  H   -0.025302   0.543551  -0.002734  -0.003021  -0.000042  -0.000084
    21  H   -0.002808  -0.002734   0.523730  -0.027395  -0.002905  -0.002245
    22  H    0.003979  -0.003021  -0.027395   0.570382   0.004138  -0.003652
    23  H    0.001515  -0.000042  -0.002905   0.004138   0.499272  -0.025475
    24  H   -0.000069  -0.000084  -0.002245  -0.003652  -0.025475   0.537675
    25  H   -0.000030   0.000012  -0.000086  -0.000082  -0.002306  -0.002275
    26  H    0.000022  -0.000029  -0.000081   0.002370   0.004086  -0.003048
    27  H    0.000078  -0.000000  -0.000000   0.000000  -0.000042  -0.000000
              25         26         27
     1  O    0.000000   0.000000   0.006464
     2  N   -0.000000  -0.000000  -0.000632
     3  O    0.000000   0.000000   0.000029
     4  C    0.000029   0.000004  -0.067769
     5  C   -0.000002  -0.000000   0.002029
     6  N   -0.000088  -0.000076  -0.000002
     7  C    0.005205  -0.003394  -0.000419
     8  H   -0.000053   0.001594   0.000008
     9  C   -0.000405   0.000959  -0.000049
    10  C    0.004162  -0.002164   0.000005
    11  C   -0.033360  -0.041631   0.000017
    12  C    0.397506   0.396558  -0.000025
    13  C   -0.035296  -0.048056   0.004715
    14  H   -0.002735  -0.001019  -0.000161
    15  N    0.000875   0.005028  -0.041547
    16  C   -0.000050  -0.000027   0.407586
    17  H   -0.000000   0.000000  -0.000078
    18  H    0.000003  -0.000000   0.000001
    19  H   -0.000030   0.000022   0.000078
    20  H    0.000012  -0.000029  -0.000000
    21  H   -0.000086  -0.000081  -0.000000
    22  H   -0.000082   0.002370   0.000000
    23  H   -0.002306   0.004086  -0.000042
    24  H   -0.002275  -0.003048  -0.000000
    25  H    0.506319  -0.023961  -0.000018
    26  H   -0.023961   0.562828   0.000001
    27  H   -0.000018   0.000001   0.438975
 Mulliken charges:
               1
     1  O   -0.466887
     2  N    0.493627
     3  O   -0.503237
     4  C    0.005286
     5  C    0.180979
     6  N   -0.765980
     7  C    0.043021
     8  H    0.182830
     9  C   -0.305272
    10  C   -0.327271
    11  C   -0.322487
    12  C   -0.304512
    13  C   -0.023655
    14  H    0.196166
    15  N   -0.525905
    16  C    0.120542
    17  H    0.294796
    18  H    0.399893
    19  H    0.190569
    20  H    0.159991
    21  H    0.175157
    22  H    0.150214
    23  H    0.199802
    24  H    0.164827
    25  H    0.186635
    26  H    0.150037
    27  H    0.250836
 Sum of Mulliken charges =  -0.00000
 Mulliken charges with hydrogens summed into heavy atoms:
               1
     1  O   -0.466887
     2  N    0.493627
     3  O   -0.503237
     4  C    0.005286
     5  C    0.475776
     6  N   -0.366087
     7  C    0.225851
     9  C    0.045288
    10  C   -0.001901
    11  C    0.042142
    12  C    0.032160
    13  C    0.172511
    15  N   -0.525905
    16  C    0.371379
 Electronic spatial extent (au):  <R**2>=           2999.6689
 Charge=             -0.0000 electrons
 Dipole moment (field-independent basis, Debye):
    X=              5.4578    Y=              4.6325    Z=              1.3961  Tot=              7.2936
 Quadrupole moment (field-independent basis, Debye-Ang):
   XX=           -105.6549   YY=            -79.0486   ZZ=            -82.0477
   XY=             -1.0761   XZ=             -1.9662   YZ=              1.3257
 Traceless Quadrupole moment (field-independent basis, Debye-Ang):
   XX=            -16.7378   YY=              9.8684   ZZ=              6.8694
   XY=             -1.0761   XZ=             -1.9662   YZ=              1.3257
 Octapole moment (field-independent basis, Debye-Ang**2):
  XXX=             90.0538  YYY=             33.7300  ZZZ=              0.1028  XYY=             -4.9387
  XXY=              6.9435  XXZ=             14.5576  XZZ=             -8.0204  YZZ=             -1.0480
  YYZ=              7.5214  XYZ=              0.7356
 Hexadecapole moment (field-independent basis, Debye-Ang**3):
 XXXX=          -3341.5735 YYYY=           -599.9545 ZZZZ=           -321.1170 XXXY=              0.2483
 XXXZ=            -92.1204 YYYX=              6.5953 YYYZ=             23.6907 ZZZX=            -39.5380
 ZZZY=              5.3411 XXYY=           -623.6433 XXZZ=           -527.8053 YYZZ=           -162.2522
 XXYZ=             -1.5472 YYXZ=            -13.8290 ZZXY=              8.1357
 N-N= 9.309979738653D+02 E-N=-3.408713287752D+03  KE= 6.596242285825D+02
 Unable to Open any file for archive entry.
 1\1\GINC-LOTUS\FOpt\RMP2-FC\6-31G(d)\C9H13N3O2\ALEXEY\02-Jul-2023\0\\#
 MP2/6-31G* SCF=Tight Opt=(ModRedun, MaxCycle=20 ) NoSymm\\MolName:\\0,
 1\O,-3.5142166676,-1.3392802821,-0.5229332424\N,-3.1095764179,-0.18431
 94473,-0.2872367088\O,-3.8564772742,0.8127969361,-0.2548707106\C,-1.68
 77953945,-0.0200907278,-0.0258089334\C,-1.2855730328,1.2662284822,0.22
 60543189\N,-0.0609044711,1.6994911959,0.5731737752\C,1.2215103407,1.01
 52691703,0.4522857432\H,1.8931743873,1.5582236052,1.1329398142\C,1.836
 7120451,1.0405946212,-0.9439720394\C,3.2446786273,0.4375690913,-0.8719
 907458\C,3.2423363828,-0.9639554876,-0.2551463289\C,2.5316199103,-0.99
 22493001,1.0997486272\C,1.1112654936,-0.4365062032,0.9586696118\H,0.58
 84748072,-0.4324339528,1.9255296957\N,0.4116804454,-1.3121789102,0.020
 9175721\C,-0.8467445024,-1.1808272641,-0.2448381191\H,-2.0644213847,2.
 0230628731,0.2554266392\H,0.0054484146,2.7047261457,0.6935557429\H,1.2
 005461672,0.4658766449,-1.6259211379\H,1.8762191204,2.0716463947,-1.31
 76330039\H,3.6871476431,0.4096771699,-1.8743724918\H,3.8801145048,1.10
 16631881,-0.2689019224\H,2.7248908738,-1.6574152702,-0.9256806566\H,4.
 2725193706,-1.3233248098,-0.1469014136\H,2.4724145141,-2.0189351665,1.
 4755067049\H,3.0874052127,-0.4012001614,1.8409853835\H,-1.2994591158,-
 1.9801185355,-0.8315961742\\Version=ES64L-G16RevC.02\HF=-661.2968321\M
 P2=-663.3314715\RMSD=5.389e-09\RMSF=3.041e-03\Dipole=1.9933458,1.62980
 77,0.5133355\PG=C01 [X(C9H13N3O2)]\\@
 The archive entry for this job was punched.


 CHARLIE BROWN.."I CAN'T GET THAT STUPID KITE IN THE
 AIR... I CAN'T... I C A N N O T..."
 LUCY.."OH COME NOW CHARLIE BROWN...THAT'S NO WAY TO TALK...
 THE TROUBLE WITH YOU IS YOU DON'T BELIEVE IN YOURSELF... YOU
 DON'T BELIEVE IN YOUR OWN ABILITIES...  YOU'VE GOT TO SAY TO
 YOURSELF...'I BELIEVE I CAN FLY THIS KITE.'... GO AHEAD SAY
 IT...."
 CHARLIE BROWN.."I BELIEVE THAT I CAN FLY THIS STUPID
 KITE.....I BELIEVE THAT I CAN FLY THIS KITE........
 I  A C T U A L L Y  B E L I E V E  T H A T  I  C A N ******"
 LUCY.."I'LL BET YOU TEN-TO-ONE YOU'RE WRONG......."    SCHULZ
 Job cpu time:       0 days  0 hours 56 minutes 28.9 seconds.
 Elapsed time:       0 days  0 hours 17 minutes  1.9 seconds.
 File lengths (MBytes):  RWF=     36 Int=      0 D2E=      0 Chk=      7 Scr=      1
 Normal termination of Gaussian 16 at Sun Jul  2 17:39:35 2023.
