 Entering Gaussian System, Link 0=g16
 Initial command:
 /home/alexey/programs//g16/l1.exe "/home/alexey/tmp/Gau-1541093.inp" -scrdir="/home/alexey/tmp/"
 Entering Link 1 = /home/alexey/programs//g16/l1.exe PID=   1541095.
  
 Copyright (c) 1988-2021, Gaussian, Inc.  All Rights Reserved.
  
 This is part of the Gaussian(R) 16 program.  It is based on
 the Gaussian(R) 09 system (copyright 2009, Gaussian, Inc.),
 the Gaussian(R) 03 system (copyright 2003, Gaussian, Inc.),
 the Gaussian(R) 98 system (copyright 1998, Gaussian, Inc.),
 the Gaussian(R) 94 system (copyright 1995, Gaussian, Inc.),
 the Gaussian 92(TM) system (copyright 1992, Gaussian, Inc.),
 the Gaussian 90(TM) system (copyright 1990, Gaussian, Inc.),
 the Gaussian 88(TM) system (copyright 1988, Gaussian, Inc.),
 the Gaussian 86(TM) system (copyright 1986, Carnegie Mellon
 University), and the Gaussian 82(TM) system (copyright 1983,
 Carnegie Mellon University). Gaussian is a federally registered
 trademark of Gaussian, Inc.
  
 This software contains proprietary and confidential information,
 including trade secrets, belonging to Gaussian, Inc.
  
 This software is provided under written license and may be
 used, copied, transmitted, or stored only in accord with that
 written license.
  
 The following legend is applicable only to US Government
 contracts under FAR:
  
                    RESTRICTED RIGHTS LEGEND
  
 Use, reproduction and disclosure by the US Government is
 subject to restrictions as set forth in subparagraphs (a)
 and (c) of the Commercial Computer Software - Restricted
 Rights clause in FAR 52.227-19.
  
 Gaussian, Inc.
 340 Quinnipiac St., Bldg. 40, Wallingford CT 06492
  
  
 ---------------------------------------------------------------
 Warning -- This program may not be used in any manner that
 competes with the business of Gaussian, Inc. or will provide
 assistance to any competitor of Gaussian, Inc.  The licensee
 of this program is prohibited from giving any competitor of
 Gaussian, Inc. access to this program.  By using this program,
 the user acknowledges that Gaussian, Inc. is engaged in the
 business of creating and licensing software in the field of
 computational chemistry and represents and warrants to the
 licensee that it is not a competitor of Gaussian, Inc. and that
 it will not use this program in any manner prohibited above.
 ---------------------------------------------------------------
  

 Cite this work as:
 Gaussian 16, Revision C.02,
 M. J. Frisch, G. W. Trucks, H. B. Schlegel, G. E. Scuseria, 
 M. A. Robb, J. R. Cheeseman, G. Scalmani, V. Barone, 
 G. A. Petersson, H. Nakatsuji, X. Li, M. Caricato, A. V. Marenich, 
 J. Bloino, B. G. Janesko, R. Gomperts, B. Mennucci, H. P. Hratchian, 
 J. V. Ortiz, A. F. Izmaylov, J. L. Sonnenberg, D. Williams-Young, 
 F. Ding, F. Lipparini, F. Egidi, J. Goings, B. Peng, A. Petrone, 
 T. Henderson, D. Ranasinghe, V. G. Zakrzewski, J. Gao, N. Rega, 
 G. Zheng, W. Liang, M. Hada, M. Ehara, K. Toyota, R. Fukuda, 
 J. Hasegawa, M. Ishida, T. Nakajima, Y. Honda, O. Kitao, H. Nakai, 
 T. Vreven, K. Throssell, J. A. Montgomery, Jr., J. E. Peralta, 
 F. Ogliaro, M. J. Bearpark, J. J. Heyd, E. N. Brothers, K. N. Kudin, 
 V. N. Staroverov, T. A. Keith, R. Kobayashi, J. Normand, 
 K. Raghavachari, A. P. Rendell, J. C. Burant, S. S. Iyengar, 
 J. Tomasi, M. Cossi, J. M. Millam, M. Klene, C. Adamo, R. Cammi, 
 J. W. Ochterski, R. L. Martin, K. Morokuma, O. Farkas, 
 J. B. Foresman, and D. J. Fox, Gaussian, Inc., Wallingford CT, 2019.
 
 ******************************************
 Gaussian 16:  ES64L-G16RevC.02  7-Dec-2021
                 2-Jul-2023 
 ******************************************
 %mem=8GB
 %NPROCS=4
 Will use up to    4 processors via shared memory.
 %NoSave
 ---------------------------------------------------------
 #MP2/6-31G* SCF=Tight Opt=(ModRedun, MaxCycle=20 ) NoSymm
 ---------------------------------------------------------
 1/6=20,18=120,19=15,38=1/1,3;
 2/9=110,12=2,15=1,17=6,18=5,40=1/2;
 3/5=1,6=6,7=1,11=9,25=1,30=1,71=1/1,2,3;
 4//1;
 5/5=2,32=2,38=5/2;
 8/6=4,10=2/1;
 9/15=2,16=-3/6;
 10/5=1,31=1/2;
 6/7=2,8=2,9=2,10=2/1;
 7/12=2,30=1/1,2,3,16;
 1/6=20,18=20,19=15/3(2);
 2/9=110,15=1/2;
 99//99;
 2/9=110,15=1/2;
 3/5=1,6=6,7=1,11=9,25=1,30=1,71=1/1,2,3;
 4/5=5,16=3,69=1/1;
 5/5=2,32=2,38=5/2;
 8/6=4,10=2/1;
 9/15=2,16=-3/6;
 10/5=1,31=1/2;
 7/12=2,30=1/1,2,3,16;
 1/6=20,18=20,19=15/3(-8);
 2/9=110,15=1/2;
 6/7=2,8=2,9=2,10=2/1;
 99/9=10/99;
 --------
 MolName:
 --------
 Symbolic Z-matrix:
 Charge =  0 Multiplicity = 1
 8                    0    -3.62061  -1.4428   -0.19091 
 7                    0    -3.25878  -0.27839  -0.03065 
 8                    0    -4.03742   0.66365   0.12142 
 6                    0    -1.75765   0.00623  -0.04188 
 6                    0    -1.36907   1.3142    0.26999 
 7                    0    -0.08125   1.76678   0.39623 
 6                    0     1.19828   0.9951    0.36387 
 1                    0     1.86307   1.49207   1.11735 
 6                    0     1.96074   1.04824  -0.98359 
 6                    0     3.37296   0.46134  -0.79704 
 6                    0     3.31165  -0.95551  -0.2047 
 6                    0     2.46514  -0.99097   1.08604 
 6                    0     1.02802  -0.45449   0.84201 
 1                    0     0.48012  -0.49471   1.81258 
 7                    0     0.37049  -1.32243  -0.13768 
 6                    0    -0.87125  -1.12094  -0.43445 
 1                    0    -2.15677   2.05577   0.48311 
 1                    0     0.15162   2.75017   0.23817 
 1                    0     1.41013   0.47291  -1.75797 
 1                    0     2.04665   2.09878  -1.33379 
 1                    0     3.9063    0.43876  -1.77254 
 1                    0     3.95111   1.11405  -0.1054 
 1                    0     2.86329  -1.64361  -0.95654 
 1                    0     4.33986  -1.31985   0.01037 
 1                    0     2.40698  -2.03784   1.45671 
 1                    0     2.96045  -0.38119   1.87046 
 1                    0    -1.37307  -1.87232  -1.06315 
 
 The following ModRedundant input section has been read:
 D       5       6       7      13 F                                           
 D       1       2       4      16 F                                           
 D       7      13      15      16 F                                           
 D       7       9      10      11 F                                           
 D       9      10      11      12 F                                           
 D       6       7      13      15 F                                           
 

 GradGradGradGradGradGradGradGradGradGradGradGradGradGradGradGradGradGrad
 Berny optimization.
 Initialization pass.
                           ----------------------------
                           !    Initial Parameters    !
                           ! (Angstroms and Degrees)  !
 --------------------------                            --------------------------
 ! Name  Definition              Value          Derivative Info.                !
 --------------------------------------------------------------------------------
 ! R1    R(1,2)                  1.2298         estimate D2E/DX2                !
 ! R2    R(2,3)                  1.2316         estimate D2E/DX2                !
 ! R3    R(2,4)                  1.5279         estimate D2E/DX2                !
 ! R4    R(4,5)                  1.3997         estimate D2E/DX2                !
 ! R5    R(4,16)                 1.4867         estimate D2E/DX2                !
 ! R6    R(5,6)                  1.3709         estimate D2E/DX2                !
 ! R7    R(5,17)                 1.1026         estimate D2E/DX2                !
 ! R8    R(6,7)                  1.4946         estimate D2E/DX2                !
 ! R9    R(6,18)                 1.0229         estimate D2E/DX2                !
 ! R10   R(7,8)                  1.121          estimate D2E/DX2                !
 ! R11   R(7,9)                  1.5491         estimate D2E/DX2                !
 ! R12   R(7,13)                 1.5359         estimate D2E/DX2                !
 ! R13   R(9,10)                 1.5407         estimate D2E/DX2                !
 ! R14   R(9,19)                 1.1108         estimate D2E/DX2                !
 ! R15   R(9,20)                 1.1107         estimate D2E/DX2                !
 ! R16   R(10,11)                1.5369         estimate D2E/DX2                !
 ! R17   R(10,21)                1.112          estimate D2E/DX2                !
 ! R18   R(10,22)                1.1129         estimate D2E/DX2                !
 ! R19   R(11,12)                1.544          estimate D2E/DX2                !
 ! R20   R(11,23)                1.1135         estimate D2E/DX2                !
 ! R21   R(11,24)                1.1119         estimate D2E/DX2                !
 ! R22   R(12,13)                1.5533         estimate D2E/DX2                !
 ! R23   R(12,25)                1.1121         estimate D2E/DX2                !
 ! R24   R(12,26)                1.1102         estimate D2E/DX2                !
 ! R25   R(13,14)                1.1153         estimate D2E/DX2                !
 ! R26   R(13,15)                1.4647         estimate D2E/DX2                !
 ! R27   R(15,16)                1.2925         estimate D2E/DX2                !
 ! R28   R(16,27)                1.1008         estimate D2E/DX2                !
 ! A1    A(1,2,3)              123.6619         estimate D2E/DX2                !
 ! A2    A(1,2,4)              117.676          estimate D2E/DX2                !
 ! A3    A(3,2,4)              118.6565         estimate D2E/DX2                !
 ! A4    A(2,4,5)              116.436          estimate D2E/DX2                !
 ! A5    A(2,4,16)             116.5175         estimate D2E/DX2                !
 ! A6    A(5,4,16)             126.9994         estimate D2E/DX2                !
 ! A7    A(4,5,6)              126.146          estimate D2E/DX2                !
 ! A8    A(4,5,17)             118.2436         estimate D2E/DX2                !
 ! A9    A(6,5,17)             115.5482         estimate D2E/DX2                !
 ! A10   A(5,6,7)              129.1837         estimate D2E/DX2                !
 ! A11   A(5,6,18)             121.1342         estimate D2E/DX2                !
 ! A12   A(7,6,18)             107.346          estimate D2E/DX2                !
 ! A13   A(6,7,8)              105.3225         estimate D2E/DX2                !
 ! A14   A(6,7,9)              114.9919         estimate D2E/DX2                !
 ! A15   A(6,7,13)             112.6853         estimate D2E/DX2                !
 ! A16   A(8,7,9)              106.1143         estimate D2E/DX2                !
 ! A17   A(8,7,13)             105.9567         estimate D2E/DX2                !
 ! A18   A(9,7,13)             110.9604         estimate D2E/DX2                !
 ! A19   A(7,9,10)             109.4367         estimate D2E/DX2                !
 ! A20   A(7,9,19)             110.1603         estimate D2E/DX2                !
 ! A21   A(7,9,20)             110.1674         estimate D2E/DX2                !
 ! A22   A(10,9,19)            109.9669         estimate D2E/DX2                !
 ! A23   A(10,9,20)            109.1224         estimate D2E/DX2                !
 ! A24   A(19,9,20)            107.9645         estimate D2E/DX2                !
 ! A25   A(9,10,11)            111.1791         estimate D2E/DX2                !
 ! A26   A(9,10,21)            109.947          estimate D2E/DX2                !
 ! A27   A(9,10,22)            109.1479         estimate D2E/DX2                !
 ! A28   A(11,10,21)           109.7862         estimate D2E/DX2                !
 ! A29   A(11,10,22)           108.7758         estimate D2E/DX2                !
 ! A30   A(21,10,22)           107.9339         estimate D2E/DX2                !
 ! A31   A(10,11,12)           111.4225         estimate D2E/DX2                !
 ! A32   A(10,11,23)           108.998          estimate D2E/DX2                !
 ! A33   A(10,11,24)           109.8616         estimate D2E/DX2                !
 ! A34   A(12,11,23)           109.2396         estimate D2E/DX2                !
 ! A35   A(12,11,24)           109.7422         estimate D2E/DX2                !
 ! A36   A(23,11,24)           107.487          estimate D2E/DX2                !
 ! A37   A(11,12,13)           111.5921         estimate D2E/DX2                !
 ! A38   A(11,12,25)           109.2044         estimate D2E/DX2                !
 ! A39   A(11,12,26)           109.4789         estimate D2E/DX2                !
 ! A40   A(13,12,25)           109.2149         estimate D2E/DX2                !
 ! A41   A(13,12,26)           109.5172         estimate D2E/DX2                !
 ! A42   A(25,12,26)           107.7511         estimate D2E/DX2                !
 ! A43   A(7,13,12)            105.8027         estimate D2E/DX2                !
 ! A44   A(7,13,14)            111.0646         estimate D2E/DX2                !
 ! A45   A(7,13,15)            113.6287         estimate D2E/DX2                !
 ! A46   A(12,13,14)           107.7795         estimate D2E/DX2                !
 ! A47   A(12,13,15)           108.4064         estimate D2E/DX2                !
 ! A48   A(14,13,15)           109.8871         estimate D2E/DX2                !
 ! A49   A(13,15,16)           119.5031         estimate D2E/DX2                !
 ! A50   A(4,16,15)            129.0762         estimate D2E/DX2                !
 ! A51   A(4,16,27)            113.3616         estimate D2E/DX2                !
 ! A52   A(15,16,27)           117.5621         estimate D2E/DX2                !
 ! D1    D(1,2,4,5)           -174.0597         estimate D2E/DX2                !
 ! D2    D(1,2,4,16)             8.2588         Frozen                          !
 ! D3    D(3,2,4,5)              6.7688         estimate D2E/DX2                !
 ! D4    D(3,2,4,16)          -170.9127         estimate D2E/DX2                !
 ! D5    D(2,4,5,6)            175.8535         estimate D2E/DX2                !
 ! D6    D(2,4,5,17)            -1.1404         estimate D2E/DX2                !
 ! D7    D(16,4,5,6)            -6.7443         estimate D2E/DX2                !
 ! D8    D(16,4,5,17)          176.2618         estimate D2E/DX2                !
 ! D9    D(2,4,16,15)         -155.4245         estimate D2E/DX2                !
 ! D10   D(2,4,16,27)           24.4306         estimate D2E/DX2                !
 ! D11   D(5,4,16,15)           27.1752         estimate D2E/DX2                !
 ! D12   D(5,4,16,27)         -152.9697         estimate D2E/DX2                !
 ! D13   D(4,5,6,7)             -6.1593         estimate D2E/DX2                !
 ! D14   D(4,5,6,18)           154.1845         estimate D2E/DX2                !
 ! D15   D(17,5,6,7)           170.9055         estimate D2E/DX2                !
 ! D16   D(17,5,6,18)          -28.7506         estimate D2E/DX2                !
 ! D17   D(5,6,7,8)           -143.175          estimate D2E/DX2                !
 ! D18   D(5,6,7,9)            100.3868         estimate D2E/DX2                !
 ! D19   D(5,6,7,13)           -28.1209         Frozen                          !
 ! D20   D(18,6,7,8)            54.3811         estimate D2E/DX2                !
 ! D21   D(18,6,7,9)           -62.057          estimate D2E/DX2                !
 ! D22   D(18,6,7,13)          169.4353         estimate D2E/DX2                !
 ! D23   D(6,7,9,10)           168.7286         estimate D2E/DX2                !
 ! D24   D(6,7,9,19)           -70.2536         estimate D2E/DX2                !
 ! D25   D(6,7,9,20)            48.7499         estimate D2E/DX2                !
 ! D26   D(8,7,9,10)            52.7431         estimate D2E/DX2                !
 ! D27   D(8,7,9,19)           173.7609         estimate D2E/DX2                !
 ! D28   D(8,7,9,20)           -67.2356         estimate D2E/DX2                !
 ! D29   D(13,7,9,10)          -61.9087         estimate D2E/DX2                !
 ! D30   D(13,7,9,19)           59.1091         estimate D2E/DX2                !
 ! D31   D(13,7,9,20)          178.1126         estimate D2E/DX2                !
 ! D32   D(6,7,13,12)         -166.1616         estimate D2E/DX2                !
 ! D33   D(6,7,13,14)          -49.4767         estimate D2E/DX2                !
 ! D34   D(6,7,13,15)           75.0218         Frozen                          !
 ! D35   D(8,7,13,12)          -51.4906         estimate D2E/DX2                !
 ! D36   D(8,7,13,14)           65.1943         estimate D2E/DX2                !
 ! D37   D(8,7,13,15)         -170.3071         estimate D2E/DX2                !
 ! D38   D(9,7,13,12)           63.2597         estimate D2E/DX2                !
 ! D39   D(9,7,13,14)          179.9446         estimate D2E/DX2                !
 ! D40   D(9,7,13,15)          -55.5568         estimate D2E/DX2                !
 ! D41   D(7,9,10,11)           54.8119         Frozen                          !
 ! D42   D(7,9,10,21)          176.6026         estimate D2E/DX2                !
 ! D43   D(7,9,10,22)          -65.1833         estimate D2E/DX2                !
 ! D44   D(19,9,10,11)         -66.3231         estimate D2E/DX2                !
 ! D45   D(19,9,10,21)          55.4676         estimate D2E/DX2                !
 ! D46   D(19,9,10,22)         173.6817         estimate D2E/DX2                !
 ! D47   D(20,9,10,11)         175.4291         estimate D2E/DX2                !
 ! D48   D(20,9,10,21)         -62.7802         estimate D2E/DX2                !
 ! D49   D(20,9,10,22)          55.4338         estimate D2E/DX2                !
 ! D50   D(9,10,11,12)         -52.8223         Frozen                          !
 ! D51   D(9,10,11,23)          67.8048         estimate D2E/DX2                !
 ! D52   D(9,10,11,24)        -174.6615         estimate D2E/DX2                !
 ! D53   D(21,10,11,12)       -174.7065         estimate D2E/DX2                !
 ! D54   D(21,10,11,23)        -54.0795         estimate D2E/DX2                !
 ! D55   D(21,10,11,24)         63.4542         estimate D2E/DX2                !
 ! D56   D(22,10,11,12)         67.3935         estimate D2E/DX2                !
 ! D57   D(22,10,11,23)       -171.9795         estimate D2E/DX2                !
 ! D58   D(22,10,11,24)        -54.4458         estimate D2E/DX2                !
 ! D59   D(10,11,12,13)         56.6028         estimate D2E/DX2                !
 ! D60   D(10,11,12,25)        177.4441         estimate D2E/DX2                !
 ! D61   D(10,11,12,26)        -64.8034         estimate D2E/DX2                !
 ! D62   D(23,11,12,13)        -63.8823         estimate D2E/DX2                !
 ! D63   D(23,11,12,25)         56.959          estimate D2E/DX2                !
 ! D64   D(23,11,12,26)        174.7115         estimate D2E/DX2                !
 ! D65   D(24,11,12,13)        178.5112         estimate D2E/DX2                !
 ! D66   D(24,11,12,25)        -60.6475         estimate D2E/DX2                !
 ! D67   D(24,11,12,26)         57.105          estimate D2E/DX2                !
 ! D68   D(11,12,13,7)         -60.3262         estimate D2E/DX2                !
 ! D69   D(11,12,13,14)       -179.2098         estimate D2E/DX2                !
 ! D70   D(11,12,13,15)         61.8954         estimate D2E/DX2                !
 ! D71   D(25,12,13,7)         178.8386         estimate D2E/DX2                !
 ! D72   D(25,12,13,14)         59.955          estimate D2E/DX2                !
 ! D73   D(25,12,13,15)        -58.9398         estimate D2E/DX2                !
 ! D74   D(26,12,13,7)          61.0578         estimate D2E/DX2                !
 ! D75   D(26,12,13,14)        -57.8258         estimate D2E/DX2                !
 ! D76   D(26,12,13,15)       -176.7206         estimate D2E/DX2                !
 ! D77   D(7,13,15,16)         -67.1605         Frozen                          !
 ! D78   D(12,13,15,16)        175.526          estimate D2E/DX2                !
 ! D79   D(14,13,15,16)         57.9704         estimate D2E/DX2                !
 ! D80   D(13,15,16,4)           8.25           estimate D2E/DX2                !
 ! D81   D(13,15,16,27)       -171.5999         estimate D2E/DX2                !
 --------------------------------------------------------------------------------
 Trust Radius=3.00D-01 FncErr=1.00D-07 GrdErr=1.00D-07 EigMax=2.50D+02 EigMin=1.00D-04
 Number of steps in this run=     20 maximum allowed number of steps=    162.
 GradGradGradGradGradGradGradGradGradGradGradGradGradGradGradGradGradGrad

                          Input orientation:                          
 ---------------------------------------------------------------------
 Center     Atomic      Atomic             Coordinates (Angstroms)
 Number     Number       Type             X           Y           Z
 ---------------------------------------------------------------------
      1          8           0       -3.620610   -1.442800   -0.190910
      2          7           0       -3.258780   -0.278390   -0.030650
      3          8           0       -4.037420    0.663650    0.121420
      4          6           0       -1.757650    0.006230   -0.041880
      5          6           0       -1.369070    1.314200    0.269990
      6          7           0       -0.081250    1.766780    0.396230
      7          6           0        1.198280    0.995100    0.363870
      8          1           0        1.863070    1.492070    1.117350
      9          6           0        1.960740    1.048240   -0.983590
     10          6           0        3.372960    0.461340   -0.797040
     11          6           0        3.311650   -0.955510   -0.204700
     12          6           0        2.465140   -0.990970    1.086040
     13          6           0        1.028020   -0.454490    0.842010
     14          1           0        0.480120   -0.494710    1.812580
     15          7           0        0.370490   -1.322430   -0.137680
     16          6           0       -0.871250   -1.120940   -0.434450
     17          1           0       -2.156770    2.055770    0.483110
     18          1           0        0.151620    2.750170    0.238170
     19          1           0        1.410130    0.472910   -1.757970
     20          1           0        2.046650    2.098780   -1.333790
     21          1           0        3.906300    0.438760   -1.772540
     22          1           0        3.951110    1.114050   -0.105400
     23          1           0        2.863290   -1.643610   -0.956540
     24          1           0        4.339860   -1.319850    0.010370
     25          1           0        2.406980   -2.037840    1.456710
     26          1           0        2.960450   -0.381190    1.870460
     27          1           0       -1.373070   -1.872320   -1.063150
 ---------------------------------------------------------------------
                    Distance matrix (angstroms):
                    1          2          3          4          5
     1  O    0.000000
     2  N    1.229819   0.000000
     3  O    2.169888   1.231603   0.000000
     4  C    2.364850   1.527916   2.378281   0.000000
     5  C    3.589277   2.489524   2.750524   1.399658   0.000000
     6  N    4.813856   3.802847   4.116272   2.470181   1.370856
     7  C    5.428889   4.652183   5.251780   3.143250   2.588808
     8  H    6.355765   5.539475   6.041021   4.081807   3.346100
     9  C    6.163204   5.469134   6.111209   3.974799   3.567889
    10  C    7.273456   6.716735   7.469821   5.205819   4.934853
    11  C    6.949379   6.607521   7.532388   5.162292   5.223605
    12  C    6.234670   5.875204   6.778757   4.483143   4.547627
    13  C    4.863480   4.378265   5.237191   2.958628   3.033399
    14  H    4.661420   4.174166   4.960845   2.949166   3.011850
    15  N    3.993270   3.777972   4.841623   2.510676   3.184977
    16  C    2.778828   2.563834   3.676736   1.486717   2.583402
    17  H    3.851899   2.631858   2.367628   2.153027   1.102641
    18  H    5.656397   4.568946   4.681373   3.354541   2.091774
    19  H    5.606600   5.034561   5.765786   3.632848   3.541799
    20  H    6.779882   5.957911   6.418188   4.529955   3.854195
    21  H    7.918093   7.408566   8.169477   5.938232   5.724321
    22  H    7.992230   7.343500   8.004431   5.815603   5.337162
    23  H    6.532034   6.340413   7.355627   4.991158   5.307154
    24  H    7.963963   7.669788   8.609612   6.240260   6.292655
    25  H    6.276987   6.116269   7.114165   4.875258   5.186813
    26  H    6.977579   6.504122   7.288417   5.105645   4.917377
    27  H    2.448821   2.676298   3.864338   2.172520   3.454155
                    6          7          8          9         10
     6  N    0.000000
     7  C    1.494568   0.000000
     8  H    2.091856   1.121007   0.000000
     9  C    2.567085   1.549134   2.149529   0.000000
    10  C    3.880674   2.522270   2.647085   1.540655   0.000000
    11  C    4.391327   2.931635   3.136375   2.539024   1.536909
    12  C    3.816428   2.463927   2.555182   2.948926   2.545453
    13  C    2.522546   1.535877   2.135935   2.541846   3.003993
    14  H    2.726815   2.198647   2.518569   3.520156   4.011567
    15  N    3.167388   2.511520   3.424077   2.977337   3.554071
    16  C    3.106937   3.065599   4.088082   3.609302   4.544051
    17  H    2.097343   3.520738   4.108422   4.485556   5.895668
    18  H    1.022872   2.047332   2.298877   2.768064   4.085026
    19  H    2.922138   2.195397   3.084041   1.110784   2.185457
    20  H    2.762454   2.195425   2.531775   1.110700   2.174490
    21  H    4.729456   3.493871   3.692657   2.186118   1.112008
    22  H    4.115534   2.795074   2.449067   2.176493   1.112948
    23  H    4.704366   3.387998   3.890238   2.839258   2.171640
    24  H    5.405773   3.918352   3.907274   3.500860   2.181615
    25  H    4.668087   3.442961   3.587655   3.959556   3.501201
    26  H    4.004881   2.696151   2.297938   3.344890   2.827645
    27  H    4.128152   4.107350   5.152310   4.432865   5.295431
                   11         12         13         14         15
    11  C    0.000000
    12  C    1.543971   0.000000
    13  C    2.561560   1.553279   0.000000
    14  H    3.507038   2.171276   1.115266   0.000000
    15  N    2.964717   2.448452   1.464738   2.121474   0.000000
    16  C    4.192470   3.668825   2.383429   2.695832   1.292513
    17  H    6.280486   5.568501   4.071007   3.902003   4.264347
    18  H    4.890193   4.479664   3.376766   3.621592   4.095759
    19  H    2.840565   3.368142   2.786750   3.814451   2.632382
    20  H    3.493388   3.946805   3.505838   4.368049   3.993103
    21  H    2.180761   3.506073   3.989770   5.046104   4.275103
    22  H    2.168375   2.838793   3.449980   4.279548   4.331087
    23  H    1.113450   2.180962   2.831432   3.829817   2.643433
    24  H    1.111852   2.186276   3.522607   4.338941   3.972131
    25  H    2.179484   1.112077   2.187781   2.494130   2.683502
    26  H    2.181622   1.110170   2.190289   2.483601   3.409758
    27  H    4.850163   4.486385   3.377145   3.688082   2.049116
                   16         17         18         19         20
    16  C    0.000000
    17  H    3.547670   0.000000
    18  H    4.060071   2.422984   0.000000
    19  H    3.081681   4.500073   3.279380   0.000000
    20  H    4.437291   4.579489   2.546862   1.796814   0.000000
    21  H    5.200782   6.668095   4.845946   2.496446   2.531100
    22  H    5.325280   6.208009   4.151030   3.098165   2.470952
    23  H    3.806908   6.399922   5.299603   2.689539   3.848987
    24  H    5.233842   7.336518   5.844511   3.863202   4.330428
    25  H    3.894096   6.207524   5.431071   4.199017   5.002834
    26  H    4.532302   5.835191   4.512129   4.037138   4.153613
    27  H    1.100754   4.293600   5.038405   3.705277   5.247606
                   21         22         23         24         25
    21  H    0.000000
    22  H    1.799272   0.000000
    23  H    2.467791   3.084231   0.000000
    24  H    2.541545   2.467468   1.794434   0.000000
    25  H    4.336999   3.841736   2.487451   2.518618   0.000000
    26  H    3.852064   2.668553   3.097592   2.498758   1.794995
    27  H    5.806554   6.179206   4.243869   5.839113   4.545973
                   26         27
    26  H    0.000000
    27  H    5.441409   0.000000
 Symmetry turned off by external request.
 Stoichiometry    C9H13N3O2
 Framework group  C1[X(C9H13N3O2)]
 Deg. of freedom    75
 Full point group                 C1      NOp   1
 Rotational constants (GHZ):           1.6751096           0.3999988           0.3550539
 Standard basis: 6-31G(d) (6D, 7F)
   236 basis functions,   444 primitive gaussians,   236 cartesian basis functions
    52 alpha electrons       52 beta electrons
       nuclear repulsion energy       917.3776908071 Hartrees.
 NAtoms=   27 NActive=   27 NUniq=   27 SFac= 1.00D+00 NAtFMM=   60 NAOKFM=F Big=F
 Integral buffers will be    131072 words long.
 Raffenetti 1 integral format.
 Two-electron integral symmetry is turned off.
 One-electron integrals computed using PRISM.
 NBasis=   236 RedAO= T EigKep=  1.27D-03  NBF=   236
 NBsUse=   236 1.00D-06 EigRej= -1.00D+00 NBFU=   236
 ExpMin= 1.61D-01 ExpMax= 5.48D+03 ExpMxC= 8.25D+02 IAcc=3 IRadAn=         5 AccDes= 0.00D+00
 Harris functional with IExCor=  205 and IRadAn=       5 diagonalized for initial guess.
 HarFok:  IExCor=  205 AccDes= 0.00D+00 IRadAn=         5 IDoV= 1 UseB2=F ITyADJ=14
 ICtDFT=  3500011 ScaDFX=  1.000000  1.000000  1.000000  1.000000
 FoFCou: FMM=F IPFlag=           0 FMFlag=      100000 FMFlg1=           0
         NFxFlg=           0 DoJE=T BraDBF=F KetDBF=T FulRan=T
         wScrn=  0.000000 ICntrl=       500 IOpCl=  0 I1Cent=   200000004 NGrid=           0
         NMat0=    1 NMatS0=      1 NMatT0=    0 NMatD0=    1 NMtDS0=    0 NMtDT0=    0
 Symmetry not used in FoFCou.
 Keep R1 ints in memory in canonical form, NReq=397720213.
 Requested convergence on RMS density matrix=1.00D-08 within 128 cycles.
 Requested convergence on MAX density matrix=1.00D-06.
 Requested convergence on             energy=1.00D-06.
 No special actions if energy rises.
 SCF Done:  E(RHF) =  -661.281224500     A.U. after   16 cycles
            NFock= 16  Conv=0.79D-08     -V/T= 2.0037
 ExpMin= 1.61D-01 ExpMax= 5.48D+03 ExpMxC= 8.25D+02 IAcc=3 IRadAn=         5 AccDes= 0.00D+00
 HarFok:  IExCor=  205 AccDes= 0.00D+00 IRadAn=         5 IDoV=-2 UseB2=F ITyADJ=14
 ICtDFT= 12500011 ScaDFX=  1.000000  1.000000  1.000000  1.000000
 Range of M.O.s used for correlation:    15   236
 NBasis=   236 NAE=    52 NBE=    52 NFC=    14 NFV=     0
 NROrb=    222 NOA=    38 NOB=    38 NVA=   184 NVB=   184
 Fully direct method using O(ONN) memory.
 JobTyp=1 Pass  1:  I=  15 to  52 NPSUse=  4 ParTrn=T ParDer=T DoDerP=T.
 Spin components of T(2) and E(2):
     alpha-alpha T2 =       0.9197579424D-01 E2=     -0.2717642961D+00
     alpha-beta  T2 =       0.4996572423D+00 E2=     -0.1493726477D+01
     beta-beta   T2 =       0.9197579424D-01 E2=     -0.2717642961D+00
 ANorm=    0.1297539530D+01
 E2 =    -0.2037255069D+01 EUMP2 =    -0.66331847956868D+03
          IDoAtm=111111111111111111111111111
          Differentiating once with respect to electric field.
                with respect to dipole field.
          Differentiating once with respect to nuclear coordinates.
 Keep R1 ints in memory in canonical form, NReq=397723379.
          There are     1 degrees of freedom in the 1st order CPHF.  IDoFFX=0 NUNeed=     1.
 LinEq1:  Iter=  0 NonCon=     1 RMS=4.61D-03 Max=1.12D-01 NDo=     1
 AX will form     1 AO Fock derivatives at one time.
 LinEq1:  Iter=  1 NonCon=     1 RMS=1.57D-03 Max=2.91D-02 NDo=     1
 LinEq1:  Iter=  2 NonCon=     1 RMS=6.41D-04 Max=1.80D-02 NDo=     1
 LinEq1:  Iter=  3 NonCon=     1 RMS=2.94D-04 Max=9.11D-03 NDo=     1
 LinEq1:  Iter=  4 NonCon=     1 RMS=9.03D-05 Max=2.10D-03 NDo=     1
 LinEq1:  Iter=  5 NonCon=     1 RMS=3.75D-05 Max=1.88D-03 NDo=     1
 LinEq1:  Iter=  6 NonCon=     1 RMS=1.54D-05 Max=5.83D-04 NDo=     1
 LinEq1:  Iter=  7 NonCon=     1 RMS=5.92D-06 Max=1.01D-04 NDo=     1
 LinEq1:  Iter=  8 NonCon=     1 RMS=2.36D-06 Max=5.97D-05 NDo=     1
 LinEq1:  Iter=  9 NonCon=     1 RMS=8.80D-07 Max=2.52D-05 NDo=     1
 LinEq1:  Iter= 10 NonCon=     1 RMS=4.32D-07 Max=1.50D-05 NDo=     1
 LinEq1:  Iter= 11 NonCon=     1 RMS=1.54D-07 Max=5.72D-06 NDo=     1
 LinEq1:  Iter= 12 NonCon=     1 RMS=5.40D-08 Max=7.67D-07 NDo=     1
 LinEq1:  Iter= 13 NonCon=     1 RMS=1.70D-08 Max=3.31D-07 NDo=     1
 LinEq1:  Iter= 14 NonCon=     1 RMS=5.38D-09 Max=1.41D-07 NDo=     1
 LinEq1:  Iter= 15 NonCon=     1 RMS=1.99D-09 Max=4.74D-08 NDo=     1
 LinEq1:  Iter= 16 NonCon=     1 RMS=7.50D-10 Max=1.30D-08 NDo=     1
 LinEq1:  Iter= 17 NonCon=     1 RMS=2.51D-10 Max=3.76D-09 NDo=     1
 LinEq1:  Iter= 18 NonCon=     1 RMS=8.71D-11 Max=1.05D-09 NDo=     1
 LinEq1:  Iter= 19 NonCon=     0 RMS=2.91D-11 Max=3.84D-10 NDo=     1
 Linear equations converged to 1.000D-10 1.000D-09 after    19 iterations.
 End of Minotr F.D. properties file   721 does not exist.
 End of Minotr F.D. properties file   722 does not exist.
 End of Minotr F.D. properties file   788 does not exist.

 **********************************************************************

            Population analysis using the SCF Density.

 **********************************************************************

 Alpha  occ. eigenvalues --  -20.59827 -20.59391 -15.85280 -15.63387 -15.56807
 Alpha  occ. eigenvalues --  -11.35882 -11.30465 -11.30088 -11.30078 -11.27687
 Alpha  occ. eigenvalues --  -11.24635 -11.23884 -11.23399 -11.22855  -1.58483
 Alpha  occ. eigenvalues --   -1.37984  -1.28607  -1.22718  -1.13282  -1.08375
 Alpha  occ. eigenvalues --   -1.01812  -1.00679  -0.93600  -0.88963  -0.84939
 Alpha  occ. eigenvalues --   -0.81541  -0.78020  -0.76968  -0.74329  -0.71129
 Alpha  occ. eigenvalues --   -0.70326  -0.69778  -0.67399  -0.64359  -0.63259
 Alpha  occ. eigenvalues --   -0.61658  -0.60342  -0.57426  -0.56484  -0.54884
 Alpha  occ. eigenvalues --   -0.53628  -0.50725  -0.49392  -0.48484  -0.47798
 Alpha  occ. eigenvalues --   -0.47689  -0.46157  -0.45690  -0.44010  -0.42099
 Alpha  occ. eigenvalues --   -0.39916  -0.33769
 Alpha virt. eigenvalues --    0.07380   0.11787   0.18119   0.21390   0.23422
 Alpha virt. eigenvalues --    0.24266   0.26298   0.27820   0.28555   0.28870
 Alpha virt. eigenvalues --    0.29916   0.31090   0.31845   0.32282   0.33335
 Alpha virt. eigenvalues --    0.33789   0.34242   0.35467   0.37584   0.38582
 Alpha virt. eigenvalues --    0.40612   0.41710   0.44400   0.45256   0.45643
 Alpha virt. eigenvalues --    0.46115   0.49722   0.53184   0.57576   0.58993
 Alpha virt. eigenvalues --    0.63302   0.69126   0.69215   0.72208   0.74028
 Alpha virt. eigenvalues --    0.74915   0.75681   0.75855   0.77802   0.79235
 Alpha virt. eigenvalues --    0.80548   0.83623   0.84977   0.85361   0.87969
 Alpha virt. eigenvalues --    0.89072   0.90194   0.90764   0.91855   0.93904
 Alpha virt. eigenvalues --    0.95150   0.97205   0.98888   1.00397   1.01957
 Alpha virt. eigenvalues --    1.02759   1.05084   1.06497   1.07012   1.08685
 Alpha virt. eigenvalues --    1.09588   1.10469   1.11370   1.11978   1.13252
 Alpha virt. eigenvalues --    1.13838   1.14157   1.15435   1.16350   1.17241
 Alpha virt. eigenvalues --    1.17992   1.20014   1.21260   1.22345   1.22989
 Alpha virt. eigenvalues --    1.23722   1.24282   1.25605   1.27042   1.27535
 Alpha virt. eigenvalues --    1.29393   1.31260   1.33049   1.36083   1.39659
 Alpha virt. eigenvalues --    1.42864   1.46275   1.47279   1.49443   1.52731
 Alpha virt. eigenvalues --    1.54843   1.55449   1.60367   1.61486   1.65970
 Alpha virt. eigenvalues --    1.68576   1.70314   1.72772   1.73440   1.76915
 Alpha virt. eigenvalues --    1.77756   1.80058   1.84365   1.89151   1.92543
 Alpha virt. eigenvalues --    1.93702   1.96106   1.97501   1.99033   2.00899
 Alpha virt. eigenvalues --    2.02942   2.03775   2.05982   2.08892   2.11898
 Alpha virt. eigenvalues --    2.12931   2.13618   2.17730   2.18848   2.19449
 Alpha virt. eigenvalues --    2.20702   2.22060   2.24074   2.25122   2.26332
 Alpha virt. eigenvalues --    2.29230   2.32222   2.33360   2.35534   2.35998
 Alpha virt. eigenvalues --    2.38625   2.39851   2.41656   2.43241   2.46358
 Alpha virt. eigenvalues --    2.48669   2.50383   2.50693   2.56757   2.57196
 Alpha virt. eigenvalues --    2.60732   2.62907   2.65897   2.68541   2.68838
 Alpha virt. eigenvalues --    2.69666   2.70102   2.74683   2.77071   2.80955
 Alpha virt. eigenvalues --    2.84715   2.86760   2.89975   2.91353   2.95206
 Alpha virt. eigenvalues --    2.97587   2.98426   3.02206   3.03661   3.05692
 Alpha virt. eigenvalues --    3.07051   3.12806   3.19146   3.22723   3.27191
 Alpha virt. eigenvalues --    3.30803   3.33804   3.37282   3.43370   3.59937
 Alpha virt. eigenvalues --    4.10035   4.23285   4.32035   4.36402   4.43172
 Alpha virt. eigenvalues --    4.52621   4.59629   4.60186   4.70832   4.77618
 Alpha virt. eigenvalues --    4.96461   4.99235   5.02861   5.09909
          Condensed to atoms (all electrons):
               1          2          3          4          5          6
     1  O    8.299861   0.313147  -0.089713  -0.079202   0.003517  -0.000013
     2  N    0.313147   5.682320   0.309146   0.265516  -0.046294   0.000844
     3  O   -0.089713   0.309146   8.331024  -0.087533   0.008014   0.000465
     4  C   -0.079202   0.265516  -0.087533   5.245643   0.567115  -0.047879
     5  C    0.003517  -0.046294   0.008014   0.567115   4.671408   0.307765
     6  N   -0.000013   0.000844   0.000465  -0.047879   0.307765   7.188048
     7  C    0.000003  -0.000093   0.000002   0.004243  -0.029211   0.198654
     8  H   -0.000000   0.000002  -0.000000  -0.000188   0.002352  -0.049718
     9  C   -0.000000  -0.000003   0.000000   0.000482   0.001602  -0.056315
    10  C   -0.000000   0.000000  -0.000000  -0.000019  -0.000061   0.003338
    11  C   -0.000000  -0.000000  -0.000000  -0.000014   0.000015  -0.000154
    12  C   -0.000000   0.000002  -0.000000  -0.000110  -0.000130   0.003607
    13  C   -0.000019  -0.000023  -0.000002  -0.010320   0.000448  -0.044669
    14  H   -0.000003  -0.000055   0.000000   0.002924   0.004723  -0.005561
    15  N    0.000189   0.001638  -0.000013  -0.061390  -0.003685   0.001862
    16  C    0.003382  -0.026645   0.001951   0.318076  -0.041323  -0.001184
    17  H    0.000127  -0.004149   0.012039  -0.026899   0.377096  -0.033814
    18  H    0.000000  -0.000035   0.000008   0.000978  -0.024487   0.328482
    19  H    0.000000   0.000000   0.000000  -0.000785   0.000690   0.000602
    20  H    0.000000  -0.000000   0.000000  -0.000027   0.000028  -0.001655
    21  H   -0.000000  -0.000000   0.000000   0.000000   0.000001  -0.000059
    22  H   -0.000000   0.000000  -0.000000  -0.000000  -0.000002  -0.000097
    23  H    0.000000  -0.000000   0.000000   0.000025  -0.000000  -0.000024
    24  H    0.000000   0.000000   0.000000   0.000000  -0.000000   0.000004
    25  H    0.000000  -0.000000   0.000000   0.000019  -0.000001  -0.000071
    26  H    0.000000  -0.000000   0.000000   0.000006  -0.000001  -0.000067
    27  H    0.005386  -0.000252   0.000003  -0.066295   0.002133   0.000041
               7          8          9         10         11         12
     1  O    0.000003  -0.000000  -0.000000  -0.000000  -0.000000  -0.000000
     2  N   -0.000093   0.000002  -0.000003   0.000000  -0.000000   0.000002
     3  O    0.000002  -0.000000   0.000000  -0.000000  -0.000000  -0.000000
     4  C    0.004243  -0.000188   0.000482  -0.000019  -0.000014  -0.000110
     5  C   -0.029211   0.002352   0.001602  -0.000061   0.000015  -0.000130
     6  N    0.198654  -0.049718  -0.056315   0.003338  -0.000154   0.003607
     7  C    5.005319   0.416541   0.340880  -0.049342  -0.007722  -0.064220
     8  H    0.416541   0.547022  -0.060410   0.001443  -0.000324  -0.002851
     9  C    0.340880  -0.060410   5.180971   0.317987  -0.053071  -0.006179
    10  C   -0.049342   0.001443   0.317987   5.126773   0.332748  -0.060180
    11  C   -0.007722  -0.000324  -0.053071   0.332748   5.124034   0.330631
    12  C   -0.064220  -0.002851  -0.006179  -0.060180   0.330631   5.137128
    13  C    0.331668  -0.040210  -0.050669  -0.001680  -0.047876   0.368333
    14  H   -0.040281  -0.000944   0.003862  -0.000391   0.003956  -0.040747
    15  N   -0.058346   0.004043  -0.012872   0.001452  -0.007738  -0.074228
    16  C   -0.002252   0.000017  -0.000866  -0.000028   0.000004   0.002473
    17  H    0.001421  -0.000020  -0.000065   0.000001   0.000000   0.000001
    18  H   -0.028567  -0.002741   0.000847  -0.000120   0.000011  -0.000137
    19  H   -0.035004   0.004089   0.386066  -0.032587  -0.002256   0.000625
    20  H   -0.041679  -0.001850   0.397226  -0.037351   0.004138  -0.000363
    21  H    0.004045  -0.000080  -0.035833   0.400136  -0.035834   0.004212
    22  H   -0.004232   0.003510  -0.045689   0.395967  -0.045623  -0.001226
    23  H    0.000432   0.000033  -0.002003  -0.040089   0.396688  -0.036614
    24  H   -0.000141  -0.000099   0.004396  -0.038483   0.400299  -0.037871
    25  H    0.004988  -0.000005  -0.000370   0.004097  -0.033907   0.395399
    26  H   -0.004451   0.001596   0.001045  -0.002404  -0.042325   0.394667
    27  H   -0.000401   0.000009  -0.000059   0.000005   0.000005  -0.000019
              13         14         15         16         17         18
     1  O   -0.000019  -0.000003   0.000189   0.003382   0.000127   0.000000
     2  N   -0.000023  -0.000055   0.001638  -0.026645  -0.004149  -0.000035
     3  O   -0.000002   0.000000  -0.000013   0.001951   0.012039   0.000008
     4  C   -0.010320   0.002924  -0.061390   0.318076  -0.026899   0.000978
     5  C    0.000448   0.004723  -0.003685  -0.041323   0.377096  -0.024487
     6  N   -0.044669  -0.005561   0.001862  -0.001184  -0.033814   0.328482
     7  C    0.331668  -0.040281  -0.058346  -0.002252   0.001421  -0.028567
     8  H   -0.040210  -0.000944   0.004043   0.000017  -0.000020  -0.002741
     9  C   -0.050669   0.003862  -0.012872  -0.000866  -0.000065   0.000847
    10  C   -0.001680  -0.000391   0.001452  -0.000028   0.000001  -0.000120
    11  C   -0.047876   0.003956  -0.007738   0.000004   0.000000   0.000011
    12  C    0.368333  -0.040747  -0.074228   0.002473   0.000001  -0.000137
    13  C    5.023438   0.402537   0.240100  -0.069603  -0.000042   0.003703
    14  H    0.402537   0.519112  -0.035791  -0.004845   0.000061   0.000009
    15  N    0.240100  -0.035791   6.937373   0.587792  -0.000058  -0.000119
    16  C   -0.069603  -0.004845   0.587792   4.699284   0.001651  -0.000212
    17  H   -0.000042   0.000061  -0.000058   0.001651   0.385747  -0.001906
    18  H    0.003703   0.000009  -0.000119  -0.000212  -0.001906   0.324677
    19  H   -0.006250   0.000065   0.006946   0.002521   0.000011  -0.000128
    20  H    0.003867  -0.000049   0.000080  -0.000031  -0.000002   0.002835
    21  H   -0.000378   0.000009  -0.000030   0.000002  -0.000000  -0.000000
    22  H    0.000318  -0.000044   0.000003  -0.000001   0.000000   0.000002
    23  H   -0.005875   0.000008   0.006780   0.000065   0.000000   0.000000
    24  H    0.004144  -0.000058   0.000043   0.000005   0.000000  -0.000000
    25  H   -0.034450  -0.002658   0.000791  -0.000061  -0.000000   0.000002
    26  H   -0.044835  -0.000902   0.004190  -0.000053   0.000000  -0.000001
    27  H    0.004872  -0.000173  -0.039841   0.402478  -0.000059   0.000002
              19         20         21         22         23         24
     1  O    0.000000   0.000000  -0.000000  -0.000000   0.000000   0.000000
     2  N    0.000000  -0.000000  -0.000000   0.000000  -0.000000   0.000000
     3  O    0.000000   0.000000   0.000000  -0.000000   0.000000   0.000000
     4  C   -0.000785  -0.000027   0.000000  -0.000000   0.000025   0.000000
     5  C    0.000690   0.000028   0.000001  -0.000002  -0.000000  -0.000000
     6  N    0.000602  -0.001655  -0.000059  -0.000097  -0.000024   0.000004
     7  C   -0.035004  -0.041679   0.004045  -0.004232   0.000432  -0.000141
     8  H    0.004089  -0.001850  -0.000080   0.003510   0.000033  -0.000099
     9  C    0.386066   0.397226  -0.035833  -0.045689  -0.002003   0.004396
    10  C   -0.032587  -0.037351   0.400136   0.395967  -0.040089  -0.038483
    11  C   -0.002256   0.004138  -0.035834  -0.045623   0.396688   0.400299
    12  C    0.000625  -0.000363   0.004212  -0.001226  -0.036614  -0.037871
    13  C   -0.006250   0.003867  -0.000378   0.000318  -0.005875   0.004144
    14  H    0.000065  -0.000049   0.000009  -0.000044   0.000008  -0.000058
    15  N    0.006946   0.000080  -0.000030   0.000003   0.006780   0.000043
    16  C    0.002521  -0.000031   0.000002  -0.000001   0.000065   0.000005
    17  H    0.000011  -0.000002  -0.000000   0.000000   0.000000   0.000000
    18  H   -0.000128   0.002835  -0.000000   0.000002   0.000000  -0.000000
    19  H    0.506714  -0.024010  -0.002592   0.003756   0.001641  -0.000070
    20  H   -0.024010   0.550046  -0.002617  -0.002965  -0.000049  -0.000090
    21  H   -0.002592  -0.002617   0.526034  -0.024691  -0.002812  -0.002060
    22  H    0.003756  -0.002965  -0.024691   0.568882   0.004061  -0.003596
    23  H    0.001641  -0.000049  -0.002812   0.004061   0.509565  -0.024988
    24  H   -0.000070  -0.000090  -0.002060  -0.003596  -0.024988   0.541026
    25  H   -0.000027   0.000011  -0.000086  -0.000082  -0.002090  -0.002381
    26  H    0.000023  -0.000035  -0.000074   0.002464   0.003821  -0.002766
    27  H    0.000075   0.000000  -0.000000   0.000000  -0.000022  -0.000000
              25         26         27
     1  O    0.000000   0.000000   0.005386
     2  N   -0.000000  -0.000000  -0.000252
     3  O    0.000000   0.000000   0.000003
     4  C    0.000019   0.000006  -0.066295
     5  C   -0.000001  -0.000001   0.002133
     6  N   -0.000071  -0.000067   0.000041
     7  C    0.004988  -0.004451  -0.000401
     8  H   -0.000005   0.001596   0.000009
     9  C   -0.000370   0.001045  -0.000059
    10  C    0.004097  -0.002404   0.000005
    11  C   -0.033907  -0.042325   0.000005
    12  C    0.395399   0.394667  -0.000019
    13  C   -0.034450  -0.044835   0.004872
    14  H   -0.002658  -0.000902  -0.000173
    15  N    0.000791   0.004190  -0.039841
    16  C   -0.000061  -0.000053   0.402478
    17  H   -0.000000   0.000000  -0.000059
    18  H    0.000002  -0.000001   0.000002
    19  H   -0.000027   0.000023   0.000075
    20  H    0.000011  -0.000035   0.000000
    21  H   -0.000086  -0.000074  -0.000000
    22  H   -0.000082   0.002464   0.000000
    23  H   -0.002090   0.003821  -0.000022
    24  H   -0.002381  -0.002766  -0.000000
    25  H    0.510304  -0.023099  -0.000010
    26  H   -0.023099   0.561084   0.000001
    27  H   -0.000010   0.000001   0.452024
 Mulliken charges:
               1
     1  O   -0.456664
     2  N    0.504936
     3  O   -0.485392
     4  C   -0.024366
     5  C    0.198287
     6  N   -0.792429
     7  C    0.057747
     8  H    0.178786
     9  C   -0.310960
    10  C   -0.321211
    11  C   -0.315683
    12  C   -0.312204
    13  C   -0.026525
    14  H    0.195236
    15  N   -0.499171
    16  C    0.127403
    17  H    0.288860
    18  H    0.396897
    19  H    0.189886
    20  H    0.154542
    21  H    0.172707
    22  H    0.149284
    23  H    0.191449
    24  H    0.162684
    25  H    0.183688
    26  H    0.152116
    27  H    0.240097
 Sum of Mulliken charges =  -0.00000
 Mulliken charges with hydrogens summed into heavy atoms:
               1
     1  O   -0.456664
     2  N    0.504936
     3  O   -0.485392
     4  C   -0.024366
     5  C    0.487147
     6  N   -0.395533
     7  C    0.236533
     9  C    0.033468
    10  C    0.000780
    11  C    0.038449
    12  C    0.023601
    13  C    0.168711
    15  N   -0.499171
    16  C    0.367501
 Electronic spatial extent (au):  <R**2>=           3126.9442
 Charge=             -0.0000 electrons
 Dipole moment (field-independent basis, Debye):
    X=              5.3686    Y=              4.5079    Z=              0.5241  Tot=              7.0297
 Quadrupole moment (field-independent basis, Debye-Ang):
   XX=           -105.4787   YY=            -80.2110   ZZ=            -82.2816
   XY=             -1.8307   XZ=              0.8448   YZ=              0.0799
 Traceless Quadrupole moment (field-independent basis, Debye-Ang):
   XX=            -16.1549   YY=              9.1128   ZZ=              7.0421
   XY=             -1.8307   XZ=              0.8448   YZ=              0.0799
 Octapole moment (field-independent basis, Debye-Ang**2):
  XXX=            101.6242  YYY=             36.7549  ZZZ=             -5.1506  XYY=             -1.4350
  XXY=             11.6440  XXZ=              0.0113  XZZ=             -8.2166  YZZ=             -2.8751
  YYZ=              0.9459  XYZ=             -1.3509
 Hexadecapole moment (field-independent basis, Debye-Ang**3):
 XXXX=          -3562.3453 YYYY=           -619.5198 ZZZZ=           -299.1661 XXXY=            -40.2395
 XXXZ=             22.8911 YYYX=            -19.9765 YYYZ=             11.8459 ZZZX=             19.5210
 ZZZY=              8.6426 XXYY=           -657.0653 XXZZ=           -543.7902 YYZZ=           -164.6161
 XXYZ=              2.3412 YYXZ=              9.6458 ZZXY=              2.5557
 N-N= 9.173776908071D+02 E-N=-3.380765686975D+03  KE= 6.588551559849D+02
 Calling FoFJK, ICntrl=  10002127 FMM=F ISym2X=0 I1Cent= 0 IOpClX= 0 NMat=1 NMatS=1 NMatT=0.
 -------------------------------------------------------------------
 Center     Atomic                   Forces (Hartrees/Bohr)
 Number     Number              X              Y              Z
 -------------------------------------------------------------------
      1        8           0.002351362   -0.019240530   -0.002998605
      2        7           0.039351290    0.013720476   -0.001743536
      3        8          -0.005218399    0.015854863    0.003553903
      4        6          -0.003081012    0.008396391    0.009320383
      5        6           0.003280877   -0.016538589   -0.004666152
      6        7           0.014735663   -0.009762892   -0.006803981
      7        6          -0.004737118    0.005153272    0.002945098
      8        1          -0.010214138   -0.001682580   -0.007636118
      9        6          -0.003934992    0.000245391   -0.002122999
     10        6           0.002830780   -0.000897908    0.000975012
     11        6          -0.001028430   -0.004602897   -0.002399676
     12        6           0.000786293   -0.008789960   -0.002894596
     13        6           0.008804804   -0.001914435    0.004474414
     14        1           0.000926304    0.004433630   -0.009860992
     15        7           0.000259313    0.000522119    0.001879853
     16        6          -0.021045514    0.007805514    0.003179892
     17        1           0.007224105   -0.006097012   -0.005948845
     18        1          -0.017662597   -0.001734938    0.005881391
     19        1           0.003111593    0.005868454    0.007691217
     20        1          -0.003235708   -0.007360114    0.002611739
     21        1          -0.004334259    0.002402836    0.009627919
     22        1          -0.004007935   -0.003974754   -0.007391509
     23        1           0.003997467    0.006129564    0.009292442
     24        1          -0.009387388    0.002616457   -0.002107028
     25        1          -0.000787328    0.010593313   -0.002410253
     26        1          -0.004783129   -0.004797693   -0.004353415
     27        1           0.005798097    0.003652022    0.001904444
 -------------------------------------------------------------------
 Cartesian Forces:  Max     0.039351290 RMS     0.008372246

 GradGradGradGradGradGradGradGradGradGradGradGradGradGradGradGradGradGrad
 Berny optimization.
 FormGI is forming the generalized inverse of G from B-inverse, IUseBI=4.
 Internal  Forces:  Max     0.037778557 RMS     0.006895773
 Search for a local minimum.
 Step number   1 out of a maximum of   20
 All quantities printed in internal units (Hartrees-Bohrs-Radians)
 Mixed Optimization -- RFO/linear search
 Second derivative matrix not updated -- first step.
 ITU=  0
     Eigenvalues ---    0.00231   0.00772   0.01054   0.01156   0.01234
     Eigenvalues ---    0.01524   0.01542   0.01963   0.01993   0.02088
     Eigenvalues ---    0.02664   0.03631   0.04502   0.04664   0.04838
     Eigenvalues ---    0.04998   0.05135   0.05297   0.05851   0.06254
     Eigenvalues ---    0.06948   0.07639   0.07703   0.07792   0.07993
     Eigenvalues ---    0.08050   0.08054   0.10398   0.11463   0.11739
     Eigenvalues ---    0.12280   0.14651   0.15394   0.15985   0.16000
     Eigenvalues ---    0.19855   0.21856   0.23155   0.24980   0.25000
     Eigenvalues ---    0.25000   0.25292   0.25923   0.26640   0.27977
     Eigenvalues ---    0.28081   0.28472   0.29617   0.31462   0.31551
     Eigenvalues ---    0.32049   0.32237   0.32290   0.32381   0.32388
     Eigenvalues ---    0.32405   0.32517   0.32526   0.32582   0.33316
     Eigenvalues ---    0.33392   0.33599   0.35327   0.43883   0.44240
     Eigenvalues ---    0.49119   0.67026   0.90422   0.911621000.00000
     Eigenvalues --- 1000.000001000.000001000.000001000.000001000.00000
     Eigenvalues --- 1000.000001000.000001000.000001000.000001000.00000
     Eigenvalues --- 1000.000001000.000001000.000001000.000001000.00000
     Eigenvalues --- 1000.000001000.000001000.000001000.000001000.00000
     Eigenvalues --- 1000.000001000.000001000.000001000.000001000.00000
     Eigenvalues --- 1000.000001000.000001000.000001000.000001000.00000
     Eigenvalues --- 1000.000001000.000001000.000001000.000001000.00000
     Eigenvalues --- 1000.000001000.000001000.000001000.000001000.00000
     Eigenvalues --- 1000.000001000.000001000.000001000.000001000.00000
     Eigenvalues --- 1000.000001000.000001000.000001000.000001000.00000
     Eigenvalues --- 1000.000001000.000001000.000001000.000001000.00000
     Eigenvalues --- 1000.000001000.000001000.000001000.000001000.00000
     Eigenvalues --- 1000.000001000.000001000.000001000.000001000.00000
     Eigenvalues --- 1000.000001000.000001000.000001000.000001000.00000
     Eigenvalues --- 1000.000001000.000001000.000001000.000001000.00000
     Eigenvalues --- 1000.000001000.000001000.000001000.000001000.00000
     Eigenvalues --- 1000.000001000.000001000.000001000.000001000.00000
     Eigenvalues --- 1000.000001000.000001000.000001000.000001000.00000
     Eigenvalues --- 1000.00000
 RFO step:  Lambda=-2.38440897D-02 EMin= 2.30752559D-03
 Linear search not attempted -- first point.
 Iteration  1 RMS(Cart)=  0.05574029 RMS(Int)=  0.00105444
 Iteration  2 RMS(Cart)=  0.00113111 RMS(Int)=  0.00023885
 Iteration  3 RMS(Cart)=  0.00000082 RMS(Int)=  0.00023885
 Iteration  1 RMS(Cart)=  0.00002880 RMS(Int)=  0.00002320
 Iteration  2 RMS(Cart)=  0.00001409 RMS(Int)=  0.00002578
 Iteration  3 RMS(Cart)=  0.00000755 RMS(Int)=  0.00002860
 Iteration  4 RMS(Cart)=  0.00000458 RMS(Int)=  0.00003035
 Iteration  5 RMS(Cart)=  0.00000317 RMS(Int)=  0.00003141
 Iteration  6 RMS(Cart)=  0.00000242 RMS(Int)=  0.00003211
 Iteration  7 RMS(Cart)=  0.00000198 RMS(Int)=  0.00003261
 Iteration  8 RMS(Cart)=  0.00000168 RMS(Int)=  0.00003300
 Iteration  9 RMS(Cart)=  0.00000145 RMS(Int)=  0.00003333
 Iteration 10 RMS(Cart)=  0.00000128 RMS(Int)=  0.00003362
 Iteration 11 RMS(Cart)=  0.00000114 RMS(Int)=  0.00003389
 Iteration 12 RMS(Cart)=  0.00000102 RMS(Int)=  0.00003413
 Iteration 13 RMS(Cart)=  0.00000091 RMS(Int)=  0.00003436
 Variable       Old X    -DE/DX   Delta X   Delta X   Delta X     New X
                                 (Linear)    (Quad)   (Total)
    R1        2.32402   0.01792   0.00000   0.01915   0.01915   2.34317
    R2        2.32739   0.01587   0.00000   0.01709   0.01709   2.34449
    R3        2.88734  -0.03778   0.00000  -0.11805  -0.11805   2.76929
    R4        2.64497  -0.03463   0.00000  -0.07476  -0.07450   2.57047
    R5        2.80949  -0.02193   0.00000  -0.06280  -0.06255   2.74694
    R6        2.59054  -0.02470   0.00000  -0.04780  -0.04771   2.54283
    R7        2.08369  -0.01041   0.00000  -0.02910  -0.02910   2.05459
    R8        2.82432  -0.01942   0.00000  -0.05386  -0.05397   2.77035
    R9        1.93295  -0.00660   0.00000  -0.01426  -0.01426   1.91869
   R10        2.11840  -0.01194   0.00000  -0.03526  -0.03526   2.08313
   R11        2.92744  -0.01298   0.00000  -0.04415  -0.04417   2.88327
   R12        2.90239  -0.00426   0.00000  -0.00811  -0.00814   2.89425
   R13        2.91142  -0.00462   0.00000  -0.01434  -0.01437   2.89705
   R14        2.09908  -0.00994   0.00000  -0.02849  -0.02849   2.07059
   R15        2.09892  -0.00804   0.00000  -0.02302  -0.02302   2.07590
   R16        2.90434  -0.00182   0.00000  -0.00716  -0.00721   2.89713
   R17        2.10139  -0.01057   0.00000  -0.03041  -0.03041   2.07098
   R18        2.10317  -0.00901   0.00000  -0.02597  -0.02597   2.07719
   R19        2.91768  -0.00909   0.00000  -0.02886  -0.02883   2.88885
   R20        2.10412  -0.01167   0.00000  -0.03371  -0.03371   2.07040
   R21        2.10110  -0.00995   0.00000  -0.02859  -0.02859   2.07251
   R22        2.93527  -0.01059   0.00000  -0.03641  -0.03639   2.89888
   R23        2.10152  -0.01073   0.00000  -0.03088  -0.03088   2.07064
   R24        2.09792  -0.00785   0.00000  -0.02244  -0.02244   2.07548
   R25        2.10755  -0.00920   0.00000  -0.02671  -0.02671   2.08084
   R26        2.76795  -0.00528   0.00000  -0.01116  -0.01150   2.75645
   R27        2.44249  -0.00558   0.00000  -0.00760  -0.00763   2.43486
   R28        2.08012  -0.00622   0.00000  -0.01730  -0.01730   2.06283
    A1        2.15831   0.01097   0.00000   0.04018   0.04004   2.19835
    A2        2.05383  -0.00758   0.00000  -0.02758  -0.02771   2.02612
    A3        2.07095  -0.00338   0.00000  -0.01221  -0.01235   2.05860
    A4        2.03219  -0.00761   0.00000  -0.02533  -0.02573   2.00646
    A5        2.03361  -0.00301   0.00000  -0.00850  -0.00893   2.02468
    A6        2.21656   0.01057   0.00000   0.03245   0.03271   2.24927
    A7        2.20166   0.00616   0.00000   0.01902   0.01936   2.22103
    A8        2.06374  -0.00330   0.00000  -0.01040  -0.01067   2.05307
    A9        2.01670  -0.00281   0.00000  -0.00766  -0.00795   2.00875
   A10        2.25468  -0.00567   0.00000  -0.01974  -0.01979   2.23489
   A11        2.11419  -0.01249   0.00000  -0.07127  -0.07169   2.04250
   A12        1.87354   0.01836   0.00000   0.09928   0.09943   1.97297
   A13        1.83823  -0.00171   0.00000  -0.01802  -0.01783   1.82039
   A14        2.00699  -0.00107   0.00000  -0.01293  -0.01296   1.99402
   A15        1.96673   0.00110   0.00000   0.00184   0.00137   1.96810
   A16        1.85204   0.00271   0.00000   0.02395   0.02380   1.87584
   A17        1.84929   0.00087   0.00000   0.01913   0.01893   1.86822
   A18        1.93662  -0.00158   0.00000  -0.00961  -0.00929   1.92733
   A19        1.91003   0.00016   0.00000  -0.00474  -0.00487   1.90516
   A20        1.92266  -0.00074   0.00000  -0.01309  -0.01306   1.90960
   A21        1.92278  -0.00166   0.00000  -0.00698  -0.00697   1.91581
   A22        1.91928  -0.00041   0.00000   0.00558   0.00554   1.92482
   A23        1.90454   0.00306   0.00000   0.02456   0.02457   1.92912
   A24        1.88434  -0.00038   0.00000  -0.00491  -0.00517   1.87917
   A25        1.94044  -0.00086   0.00000   0.00563   0.00552   1.94596
   A26        1.91894  -0.00071   0.00000  -0.00687  -0.00689   1.91205
   A27        1.90499   0.00030   0.00000  -0.00296  -0.00303   1.90196
   A28        1.91613   0.00077   0.00000   0.00707   0.00711   1.92324
   A29        1.89850   0.00172   0.00000   0.01117   0.01120   1.90970
   A30        1.88380  -0.00122   0.00000  -0.01452  -0.01460   1.86920
   A31        1.94469   0.00068   0.00000   0.00517   0.00528   1.94997
   A32        1.90237   0.00060   0.00000   0.00591   0.00587   1.90824
   A33        1.91745   0.00038   0.00000   0.00522   0.00519   1.92264
   A34        1.90659  -0.00115   0.00000  -0.01422  -0.01426   1.89233
   A35        1.91536  -0.00048   0.00000   0.00013   0.00005   1.91541
   A36        1.87600  -0.00006   0.00000  -0.00259  -0.00262   1.87338
   A37        1.94765  -0.00301   0.00000  -0.01825  -0.01827   1.92938
   A38        1.90598   0.00253   0.00000   0.01682   0.01667   1.92265
   A39        1.91077   0.00141   0.00000   0.01332   0.01328   1.92405
   A40        1.90616   0.00022   0.00000  -0.00293  -0.00278   1.90338
   A41        1.91144  -0.00021   0.00000  -0.00464  -0.00458   1.90685
   A42        1.88061  -0.00087   0.00000  -0.00382  -0.00400   1.87661
   A43        1.84661   0.00461   0.00000   0.02344   0.02347   1.87008
   A44        1.93844  -0.00435   0.00000  -0.03099  -0.03140   1.90705
   A45        1.98319   0.00083   0.00000   0.01175   0.01200   1.99519
   A46        1.88111   0.00221   0.00000   0.02972   0.03002   1.91113
   A47        1.89205  -0.00397   0.00000  -0.02872  -0.02879   1.86326
   A48        1.91789   0.00088   0.00000  -0.00297  -0.00285   1.91504
   A49        2.08572  -0.00631   0.00000  -0.01531  -0.01572   2.07000
   A50        2.25281  -0.00506   0.00000  -0.02155  -0.02154   2.23126
   A51        1.97853   0.00554   0.00000   0.02716   0.02668   2.00522
   A52        2.05184  -0.00047   0.00000  -0.00552  -0.00598   2.04586
    D1       -3.03792  -0.00070   0.00000  -0.03301  -0.03235  -3.07027
    D2        0.14414   0.00044   0.00000   0.00000  -0.00000   0.14414
    D3        0.11814  -0.00176   0.00000  -0.06219  -0.06186   0.05628
    D4       -2.98299  -0.00062   0.00000  -0.02918  -0.02951  -3.01250
    D5        3.06922   0.00074   0.00000   0.01935   0.01940   3.08862
    D6       -0.01990  -0.00030   0.00000  -0.00349  -0.00355  -0.02346
    D7       -0.11771  -0.00097   0.00000  -0.01895  -0.01934  -0.13705
    D8        3.07635  -0.00201   0.00000  -0.04179  -0.04230   3.03405
    D9       -2.71267  -0.00194   0.00000  -0.04285  -0.04340  -2.75607
   D10        0.42639   0.00042   0.00000   0.00527   0.00499   0.43138
   D11        0.47430  -0.00013   0.00000  -0.00415  -0.00395   0.47034
   D12       -2.66983   0.00223   0.00000   0.04398   0.04444  -2.62539
   D13       -0.10750  -0.00032   0.00000   0.01500   0.01520  -0.09230
   D14        2.69103   0.00370   0.00000   0.06590   0.06481   2.75584
   D15        2.98286   0.00067   0.00000   0.03720   0.03756   3.02042
   D16       -0.50179   0.00469   0.00000   0.08811   0.08717  -0.41462
   D17       -2.49888  -0.00065   0.00000  -0.01311  -0.01272  -2.51159
   D18        1.75208  -0.00228   0.00000  -0.02372  -0.02339   1.72869
   D19       -0.49080  -0.00007   0.00000   0.00000  -0.00001  -0.49081
   D20        0.94913  -0.00001   0.00000  -0.03477  -0.03532   0.91381
   D21       -1.08310  -0.00164   0.00000  -0.04538  -0.04600  -1.12910
   D22        2.95720   0.00057   0.00000  -0.02166  -0.02262   2.93458
   D23        2.94487   0.00231   0.00000   0.02572   0.02560   2.97047
   D24       -1.22616   0.00143   0.00000   0.02132   0.02122  -1.20493
   D25        0.85085  -0.00053   0.00000   0.00275   0.00272   0.85357
   D26        0.92054   0.00321   0.00000   0.03923   0.03922   0.95976
   D27        3.03270   0.00233   0.00000   0.03483   0.03484   3.06754
   D28       -1.17348   0.00037   0.00000   0.01625   0.01633  -1.15715
   D29       -1.08051   0.00146   0.00000   0.00814   0.00814  -1.07237
   D30        1.03165   0.00058   0.00000   0.00374   0.00376   1.03541
   D31        3.10865  -0.00138   0.00000  -0.01483  -0.01474   3.09391
   D32       -2.90007  -0.00096   0.00000  -0.01331  -0.01308  -2.91315
   D33       -0.86353   0.00208   0.00000   0.01959   0.01944  -0.84409
   D34        1.30938   0.00043   0.00000   0.00000  -0.00001   1.30936
   D35       -0.89868  -0.00193   0.00000  -0.02262  -0.02252  -0.92120
   D36        1.13785   0.00111   0.00000   0.01028   0.01000   1.14785
   D37       -2.97242  -0.00054   0.00000  -0.00932  -0.00946  -2.98188
   D38        1.10409   0.00097   0.00000   0.01147   0.01157   1.11566
   D39        3.14063   0.00401   0.00000   0.04437   0.04409  -3.09847
   D40       -0.96965   0.00236   0.00000   0.02477   0.02463  -0.94502
   D41        0.95665   0.00068   0.00000   0.00000   0.00000   0.95665
   D42        3.08230   0.00060   0.00000   0.00800   0.00796   3.09026
   D43       -1.13766  -0.00112   0.00000  -0.01546  -0.01543  -1.15310
   D44       -1.15756   0.00175   0.00000   0.01569   0.01576  -1.14180
   D45        0.96809   0.00167   0.00000   0.02370   0.02372   0.99181
   D46        3.03132  -0.00005   0.00000   0.00023   0.00032   3.03164
   D47        3.06182   0.00062   0.00000   0.00367   0.00364   3.06545
   D48       -1.09572   0.00055   0.00000   0.01168   0.01159  -1.08413
   D49        0.96750  -0.00117   0.00000  -0.01179  -0.01180   0.95570
   D50       -0.92192  -0.00080   0.00000   0.00000   0.00000  -0.92192
   D51        1.18342  -0.00141   0.00000  -0.01055  -0.01056   1.17285
   D52       -3.04842  -0.00090   0.00000  -0.00721  -0.00724  -3.05566
   D53       -3.04920   0.00014   0.00000   0.00012   0.00014  -3.04906
   D54       -0.94386  -0.00047   0.00000  -0.01043  -0.01043  -0.95429
   D55        1.10749   0.00003   0.00000  -0.00709  -0.00711   1.10038
   D56        1.17624   0.00016   0.00000   0.00704   0.00707   1.18331
   D57       -3.00161  -0.00046   0.00000  -0.00352  -0.00350  -3.00511
   D58       -0.95026   0.00005   0.00000  -0.00017  -0.00018  -0.95043
   D59        0.98791  -0.00085   0.00000  -0.01155  -0.01159   0.97632
   D60        3.09698  -0.00082   0.00000  -0.01569  -0.01583   3.08115
   D61       -1.13103   0.00042   0.00000  -0.00278  -0.00275  -1.13378
   D62       -1.11496  -0.00127   0.00000  -0.01282  -0.01281  -1.12777
   D63        0.99412  -0.00124   0.00000  -0.01696  -0.01705   0.97707
   D64        3.04929   0.00000   0.00000  -0.00405  -0.00397   3.04532
   D65        3.11561  -0.00025   0.00000  -0.00141  -0.00141   3.11420
   D66       -1.05850  -0.00021   0.00000  -0.00555  -0.00565  -1.06415
   D67        0.99667   0.00103   0.00000   0.00736   0.00743   1.00410
   D68       -1.05289   0.00003   0.00000  -0.00056  -0.00048  -1.05337
   D69       -3.12780   0.00158   0.00000   0.00837   0.00802  -3.11978
   D70        1.08028   0.00148   0.00000   0.01114   0.01108   1.09136
   D71        3.12132  -0.00136   0.00000  -0.00795  -0.00781   3.11352
   D72        1.04641   0.00020   0.00000   0.00098   0.00070   1.04711
   D73       -1.02869   0.00010   0.00000   0.00376   0.00376  -1.02494
   D74        1.06566  -0.00031   0.00000   0.00108   0.00126   1.06692
   D75       -1.00925   0.00124   0.00000   0.01001   0.00976  -0.99949
   D76       -3.08436   0.00115   0.00000   0.01278   0.01282  -3.07154
   D77       -1.17217   0.00391   0.00000   0.00000  -0.00001  -1.17218
   D78        3.06351   0.00032   0.00000  -0.01718  -0.01705   3.04645
   D79        1.01178  -0.00053   0.00000  -0.03457  -0.03482   0.97696
   D80        0.14399   0.00156   0.00000   0.01592   0.01565   0.15964
   D81       -2.99498  -0.00089   0.00000  -0.03395  -0.03375  -3.02873
         Item               Value     Threshold  Converged?
 Maximum Force            0.037779     0.000450     NO 
 RMS     Force            0.006987     0.000300     NO 
 Maximum Displacement     0.294228     0.001800     NO 
 RMS     Displacement     0.055866     0.001200     NO 
 Predicted change in Energy=-1.331757D-02
 GradGradGradGradGradGradGradGradGradGradGradGradGradGradGradGradGradGrad

                          Input orientation:                          
 ---------------------------------------------------------------------
 Center     Atomic      Atomic             Coordinates (Angstroms)
 Number     Number       Type             X           Y           Z
 ---------------------------------------------------------------------
      1          8           0       -3.482352   -1.421672   -0.231974
      2          7           0       -3.128013   -0.247848   -0.047405
      3          8           0       -3.881721    0.720076    0.137682
      4          6           0       -1.682758   -0.006018   -0.030618
      5          6           0       -1.317894    1.271809    0.259664
      6          7           0       -0.067932    1.751064    0.395950
      7          6           0        1.193602    1.004661    0.371696
      8          1           0        1.828241    1.518420    1.112272
      9          6           0        1.923227    1.050581   -0.967511
     10          6           0        3.324227    0.451669   -0.797931
     11          6           0        3.263361   -0.960773   -0.204901
     12          6           0        2.444437   -0.997916    1.085428
     13          6           0        1.034588   -0.443421    0.844434
     14          1           0        0.467844   -0.457282    1.788416
     15          7           0        0.396016   -1.325405   -0.126128
     16          6           0       -0.844094   -1.129162   -0.415573
     17          1           0       -2.110560    1.996499    0.428781
     18          1           0        0.059188    2.750565    0.270553
     19          1           0        1.354563    0.481949   -1.711724
     20          1           0        1.988235    2.089057   -1.319772
     21          1           0        3.835033    0.433257   -1.767349
     22          1           0        3.912792    1.101370   -0.134811
     23          1           0        2.798806   -1.638687   -0.929458
     24          1           0        4.276521   -1.333515   -0.011581
     25          1           0        2.366035   -2.027021    1.453447
     26          1           0        2.938533   -0.404255    1.866257
     27          1           0       -1.328935   -1.865004   -1.059823
 ---------------------------------------------------------------------
                    Distance matrix (angstroms):
                    1          2          3          4          5
     1  O    0.000000
     2  N    1.239954   0.000000
     3  O    2.209803   1.240649   0.000000
     4  C    2.298512   1.465444   2.321848   0.000000
     5  C    3.490190   2.383313   2.625357   1.360232   0.000000
     6  N    4.703064   3.681890   3.959120   2.424245   1.345610
     7  C    5.302458   4.518936   5.088680   3.075187   2.528148
     8  H    6.217197   5.387858   5.847294   3.994649   3.268933
     9  C    5.989435   5.295993   5.918456   3.872635   3.472718
    10  C    7.082318   6.533301   7.271389   5.086073   4.831193
    11  C    6.761495   6.432942   7.348117   5.040439   5.117436
    12  C    6.086210   5.735688   6.623443   4.388982   4.470870
    13  C    4.745353   4.261558   5.101306   2.888080   2.969536
    14  H    4.540493   4.042808   4.798939   2.852650   2.918168
    15  N    3.881006   3.685934   4.748960   2.463981   3.135577
    16  C    2.660766   2.475591   3.599021   1.453616   2.538719
    17  H    3.741966   2.509793   2.202501   2.098604   1.087242
    18  H    5.495690   4.387463   4.435235   3.274726   2.020692
    19  H    5.404552   4.836947   5.558389   3.505645   3.413544
    20  H    6.590587   5.766805   6.201183   4.418987   3.754065
    21  H    7.703392   7.204590   7.953597   5.801311   5.600411
    22  H    7.814303   7.169447   7.808590   5.705028   5.248308
    23  H    6.323490   6.151393   7.164635   4.853652   5.179982
    24  H    7.762503   7.483788   8.414062   6.105376   6.177278
    25  H    6.116430   5.966790   6.950701   4.762313   5.087114
    26  H    6.831213   6.363140   7.125164   5.011293   4.848454
    27  H    2.349272   2.622378   3.825360   2.154131   3.403052
                    6          7          8          9         10
     6  N    0.000000
     7  C    1.466006   0.000000
     8  H    2.040273   1.102346   0.000000
     9  C    2.512851   1.525758   2.133868   0.000000
    10  C    3.823679   2.492667   2.650435   1.533053   0.000000
    11  C    4.337349   2.911924   3.152921   2.534379   1.533095
    12  C    3.787383   2.466641   2.590823   2.946618   2.534239
    13  C    2.496489   1.531571   2.133176   2.510950   2.956517
    14  H    2.665110   2.161272   2.492238   3.462214   3.959079
    15  N    3.154755   2.512605   3.416466   2.947136   3.490520
    16  C    3.091391   3.053719   4.060218   3.565667   4.474385
    17  H    2.057582   3.450288   4.026149   4.372166   5.781715
    18  H    1.015326   2.084540   2.314351   2.810230   4.133649
    19  H    2.841907   2.154014   3.045258   1.095707   2.171522
    20  H    2.699215   2.160653   2.503210   1.098520   2.176748
    21  H    4.652914   3.446617   3.673827   2.162366   1.095917
    22  H    4.068166   2.767652   2.464650   2.157391   1.099203
    23  H    4.633066   3.355141   3.883037   2.828470   2.159388
    24  H    5.343686   3.888233   3.923092   3.483633   2.170735
    25  H    4.616971   3.425767   3.602190   3.940653   3.482921
    26  H    3.980708   2.695095   2.344764   3.343297   2.824759
    27  H    4.096993   4.080125   5.112075   4.368720   5.204563
                   11         12         13         14         15
    11  C    0.000000
    12  C    1.528714   0.000000
    13  C    2.517179   1.534020   0.000000
    14  H    3.470121   2.166425   1.101132   0.000000
    15  N    2.891511   2.402322   1.458650   2.103396   0.000000
    16  C    4.116300   3.617274   2.363748   2.651447   1.288473
    17  H    6.166526   5.490511   4.002241   3.810225   4.198320
    18  H    4.926136   4.517139   3.388554   3.572281   4.109056
    19  H    2.827627   3.346922   2.737269   3.730873   2.588331
    20  H    3.488602   3.939862   3.465065   4.296075   3.952025
    21  H    2.170570   3.481430   3.928418   4.977398   4.196825
    22  H    2.163124   2.837613   3.410185   4.242154   4.272824
    23  H    1.095610   2.143812   2.772691   3.770403   2.552819
    24  H    1.096723   2.161617   3.469172   4.302766   3.882204
    25  H    2.166148   1.095738   2.156719   2.485843   2.620744
    26  H    2.169084   1.098298   2.161172   2.472484   3.358945
    27  H    4.757910   4.426317   3.351617   3.650009   2.034308
                   16         17         18         19         20
    16  C    0.000000
    17  H    3.476583   0.000000
    18  H    4.042149   2.302490   0.000000
    19  H    3.018241   4.345423   3.279335   0.000000
    20  H    4.381392   4.457143   2.586107   1.771429   0.000000
    21  H    5.114947   6.528153   4.876470   2.481571   2.520448
    22  H    5.261375   6.115526   4.211227   3.068366   2.466491
    23  H    3.714083   6.257896   5.311409   2.682326   3.834768
    24  H    5.140590   7.216489   5.877517   3.837216   4.319909
    25  H    3.821559   6.105617   5.435633   4.163690   4.977507
    26  H    4.476662   5.772633   4.559582   4.012016   4.155773
    27  H    1.091601   4.211661   5.000027   3.624131   5.167764
                   21         22         23         24         25
    21  H    0.000000
    22  H    1.765673   0.000000
    23  H    2.463489   3.062734   0.000000
    24  H    2.529647   2.464984   1.766145   0.000000
    25  H    4.310969   3.834299   2.452821   2.505437   0.000000
    26  H    3.835132   2.687073   3.059309   2.485963   1.769615
    27  H    5.696417   6.093498   4.135996   5.727340   4.471641
                   26         27
    26  H    0.000000
    27  H    5.376525   0.000000
 Symmetry turned off by external request.
 Stoichiometry    C9H13N3O2
 Framework group  C1[X(C9H13N3O2)]
 Deg. of freedom    75
 Full point group                 C1      NOp   1
 Rotational constants (GHZ):           1.6865120           0.4216473           0.3722561
 Standard basis: 6-31G(d) (6D, 7F)
   236 basis functions,   444 primitive gaussians,   236 cartesian basis functions
    52 alpha electrons       52 beta electrons
       nuclear repulsion energy       932.1267586024 Hartrees.
 NAtoms=   27 NActive=   27 NUniq=   27 SFac= 1.00D+00 NAtFMM=   60 NAOKFM=F Big=F
 Integral buffers will be    131072 words long.
 Raffenetti 1 integral format.
 Two-electron integral symmetry is turned off.
 One-electron integrals computed using PRISM.
 NBasis=   236 RedAO= T EigKep=  1.01D-03  NBF=   236
 NBsUse=   236 1.00D-06 EigRej= -1.00D+00 NBFU=   236
 Initial guess from the checkpoint file:  "/home/alexey/tmp/Gau-1541095.chk"
 B after Tr=     0.055929    0.005478    0.000376
         Rot=    0.999999   -0.001096    0.000589    0.001147 Ang=  -0.19 deg.
 ExpMin= 1.61D-01 ExpMax= 5.48D+03 ExpMxC= 8.25D+02 IAcc=3 IRadAn=         5 AccDes= 0.00D+00
 Harris functional with IExCor=  205 and IRadAn=       5 diagonalized for initial guess.
 HarFok:  IExCor=  205 AccDes= 0.00D+00 IRadAn=         5 IDoV= 1 UseB2=F ITyADJ=14
 ICtDFT=  3500011 ScaDFX=  1.000000  1.000000  1.000000  1.000000
 FoFCou: FMM=F IPFlag=           0 FMFlag=      100000 FMFlg1=           0
         NFxFlg=           0 DoJE=T BraDBF=F KetDBF=T FulRan=T
         wScrn=  0.000000 ICntrl=       500 IOpCl=  0 I1Cent=   200000004 NGrid=           0
         NMat0=    1 NMatS0=      1 NMatT0=    0 NMatD0=    1 NMtDS0=    0 NMtDT0=    0
 Symmetry not used in FoFCou.
 Keep R1 ints in memory in canonical form, NReq=397720213.
 Requested convergence on RMS density matrix=1.00D-08 within 128 cycles.
 Requested convergence on MAX density matrix=1.00D-06.
 Requested convergence on             energy=1.00D-06.
 No special actions if energy rises.
 SCF Done:  E(RHF) =  -661.298420476     A.U. after   15 cycles
            NFock= 15  Conv=0.38D-08     -V/T= 2.0024
 ExpMin= 1.61D-01 ExpMax= 5.48D+03 ExpMxC= 8.25D+02 IAcc=3 IRadAn=         5 AccDes= 0.00D+00
 HarFok:  IExCor=  205 AccDes= 0.00D+00 IRadAn=         5 IDoV=-2 UseB2=F ITyADJ=14
 ICtDFT= 12500011 ScaDFX=  1.000000  1.000000  1.000000  1.000000
 Range of M.O.s used for correlation:    15   236
 NBasis=   236 NAE=    52 NBE=    52 NFC=    14 NFV=     0
 NROrb=    222 NOA=    38 NOB=    38 NVA=   184 NVB=   184
 Fully direct method using O(ONN) memory.
 JobTyp=1 Pass  1:  I=  15 to  52 NPSUse=  4 ParTrn=T ParDer=T DoDerP=T.
 Spin components of T(2) and E(2):
     alpha-alpha T2 =       0.9124811891D-01 E2=     -0.2723325747D+00
     alpha-beta  T2 =       0.4912391473D+00 E2=     -0.1487997554D+01
     beta-beta   T2 =       0.9124811891D-01 E2=     -0.2723325747D+00
 ANorm=    0.1293729255D+01
 E2 =    -0.2032662704D+01 EUMP2 =    -0.66333108317977D+03
          IDoAtm=111111111111111111111111111
          Differentiating once with respect to electric field.
                with respect to dipole field.
          Differentiating once with respect to nuclear coordinates.
 Keep R1 ints in memory in canonical form, NReq=397723379.
          There are     1 degrees of freedom in the 1st order CPHF.  IDoFFX=0 NUNeed=     1.
 LinEq1:  Iter=  0 NonCon=     1 RMS=4.57D-03 Max=1.05D-01 NDo=     1
 AX will form     1 AO Fock derivatives at one time.
 LinEq1:  Iter=  1 NonCon=     1 RMS=1.53D-03 Max=2.74D-02 NDo=     1
 LinEq1:  Iter=  2 NonCon=     1 RMS=6.42D-04 Max=1.78D-02 NDo=     1
 LinEq1:  Iter=  3 NonCon=     1 RMS=2.80D-04 Max=8.21D-03 NDo=     1
 LinEq1:  Iter=  4 NonCon=     1 RMS=8.71D-05 Max=1.94D-03 NDo=     1
 LinEq1:  Iter=  5 NonCon=     1 RMS=3.64D-05 Max=1.79D-03 NDo=     1
 LinEq1:  Iter=  6 NonCon=     1 RMS=1.41D-05 Max=5.33D-04 NDo=     1
[...]
    27  H    4.723832   4.418737   3.356766   3.656895   2.029395
                   16         17         18         19         20
    16  C    0.000000
    17  H    3.463935   0.000000
    18  H    4.088136   2.236024   0.000000
    19  H    2.990629   4.303649   3.511936   0.000000
    20  H    4.374925   4.449329   2.881861   1.768529   0.000000
    21  H    5.096441   6.511412   5.086424   2.499117   2.521078
    22  H    5.248600   6.100710   4.313124   3.070198   2.461409
    23  H    3.694987   6.235247   5.421115   2.704247   3.842937
    24  H    5.133768   7.201047   5.936507   3.849631   4.317088
    25  H    3.821529   6.088433   5.369461   4.171600   4.984973
    26  H    4.495155   5.781358   4.484957   4.036023   4.182130
    27  H    1.089710   4.215136   5.078926   3.582654   5.147194
                   21         22         23         24         25
    21  H    0.000000
    22  H    1.758853   0.000000
    23  H    2.469436   3.062266   0.000000
    24  H    2.517360   2.459866   1.764578   0.000000
    25  H    4.312031   3.839495   2.444186   2.519699   0.000000
    26  H    3.846701   2.704335   3.060473   2.491731   1.767981
    27  H    5.652373   6.060049   4.090243   5.694622   4.454788
                   26         27
    26  H    0.000000
    27  H    5.378607   0.000000
 Symmetry turned off by external request.
 Stoichiometry    C9H13N3O2
 Framework group  C1[X(C9H13N3O2)]
 Deg. of freedom    75
 Full point group                 C1      NOp   1
 Rotational constants (GHZ):           1.6800978           0.4193394           0.3721488

 **********************************************************************

            Population analysis using the SCF Density.

 **********************************************************************

 Alpha  occ. eigenvalues --  -20.59236 -20.58902 -15.84722 -15.64136 -15.56112
 Alpha  occ. eigenvalues --  -11.35018 -11.29624 -11.29558 -11.28625 -11.27133
 Alpha  occ. eigenvalues --  -11.23728 -11.23208 -11.22692 -11.22089  -1.57120
 Alpha  occ. eigenvalues --   -1.36712  -1.30976  -1.23065  -1.14703  -1.09819
 Alpha  occ. eigenvalues --   -1.02805  -1.01309  -0.94481  -0.89683  -0.85566
 Alpha  occ. eigenvalues --   -0.82448  -0.78609  -0.77411  -0.75202  -0.72019
 Alpha  occ. eigenvalues --   -0.69773  -0.69440  -0.67821  -0.64892  -0.63778
 Alpha  occ. eigenvalues --   -0.62367  -0.60279  -0.57700  -0.57002  -0.55077
 Alpha  occ. eigenvalues --   -0.54582  -0.50762  -0.50109  -0.48656  -0.48103
 Alpha  occ. eigenvalues --   -0.47372  -0.46146  -0.46045  -0.43678  -0.41695
 Alpha  occ. eigenvalues --   -0.39848  -0.33830
 Alpha virt. eigenvalues --    0.07466   0.11802   0.17308   0.21848   0.24112
 Alpha virt. eigenvalues --    0.25663   0.27134   0.28694   0.29044   0.29636
 Alpha virt. eigenvalues --    0.30683   0.31799   0.32035   0.32767   0.33951
 Alpha virt. eigenvalues --    0.34386   0.35849   0.37314   0.38579   0.40292
 Alpha virt. eigenvalues --    0.41388   0.42445   0.45027   0.46117   0.46731
 Alpha virt. eigenvalues --    0.47076   0.49002   0.53997   0.57579   0.59405
 Alpha virt. eigenvalues --    0.63917   0.69542   0.69909   0.72861   0.74243
 Alpha virt. eigenvalues --    0.74870   0.75780   0.76678   0.78662   0.79439
 Alpha virt. eigenvalues --    0.81386   0.84697   0.85720   0.85808   0.88529
 Alpha virt. eigenvalues --    0.89425   0.91051   0.92114   0.92856   0.94527
 Alpha virt. eigenvalues --    0.95644   0.98038   0.99636   1.01675   1.02470
 Alpha virt. eigenvalues --    1.03153   1.05872   1.06969   1.07897   1.09012
 Alpha virt. eigenvalues --    1.10281   1.11418   1.11855   1.12443   1.13916
 Alpha virt. eigenvalues --    1.14766   1.14989   1.15832   1.16903   1.18725
 Alpha virt. eigenvalues --    1.19138   1.21337   1.22575   1.23913   1.24529
 Alpha virt. eigenvalues --    1.24834   1.26035   1.26911   1.27490   1.29558
 Alpha virt. eigenvalues --    1.30009   1.33127   1.36069   1.37181   1.40862
 Alpha virt. eigenvalues --    1.41842   1.46477   1.48739   1.51709   1.54287
 Alpha virt. eigenvalues --    1.56377   1.58774   1.59552   1.63467   1.65634
 Alpha virt. eigenvalues --    1.68033   1.68627   1.72994   1.75217   1.77378
 Alpha virt. eigenvalues --    1.81583   1.84599   1.87693   1.90649   1.93498
 Alpha virt. eigenvalues --    1.95815   1.96959   1.99721   2.01573   2.02522
 Alpha virt. eigenvalues --    2.05103   2.05610   2.08499   2.09563   2.12396
 Alpha virt. eigenvalues --    2.13263   2.15297   2.18826   2.20018   2.22454
 Alpha virt. eigenvalues --    2.22639   2.24496   2.25495   2.28214   2.29549
 Alpha virt. eigenvalues --    2.31992   2.33722   2.34698   2.36398   2.38466
 Alpha virt. eigenvalues --    2.40482   2.41925   2.43872   2.45135   2.47364
 Alpha virt. eigenvalues --    2.50723   2.51951   2.53115   2.55572   2.61511
 Alpha virt. eigenvalues --    2.62310   2.65192   2.67625   2.70317   2.70495
 Alpha virt. eigenvalues --    2.72271   2.72655   2.76984   2.78446   2.83815
 Alpha virt. eigenvalues --    2.88562   2.88950   2.92946   2.93140   2.96062
 Alpha virt. eigenvalues --    2.99439   3.01346   3.04318   3.05729   3.07679
 Alpha virt. eigenvalues --    3.09414   3.15047   3.21217   3.25220   3.27457
 Alpha virt. eigenvalues --    3.33454   3.37794   3.38789   3.52174   3.65795
 Alpha virt. eigenvalues --    4.13682   4.28081   4.34716   4.38925   4.46302
 Alpha virt. eigenvalues --    4.56310   4.61874   4.62354   4.73465   4.79747
 Alpha virt. eigenvalues --    4.99413   5.00898   5.05021   5.11168
          Condensed to atoms (all electrons):
               1          2          3          4          5          6
     1  O    8.316126   0.307005  -0.082545  -0.085492   0.004640  -0.000016
     2  N    0.307005   5.722189   0.301267   0.264198  -0.053627   0.000970
     3  O   -0.082545   0.301267   8.353678  -0.092685   0.003641   0.000785
     4  C   -0.085492   0.264198  -0.092685   5.225749   0.560328  -0.047292
     5  C    0.004640  -0.053627   0.003641   0.560328   4.709909   0.317410
     6  N   -0.000016   0.000970   0.000785  -0.047292   0.317410   7.195593
     7  C    0.000004  -0.000140   0.000002   0.004637  -0.030194   0.169301
     8  H   -0.000000   0.000002  -0.000000  -0.000262   0.003095  -0.050658
     9  C   -0.000000  -0.000004  -0.000000   0.000856   0.000625  -0.061652
    10  C    0.000000   0.000000   0.000000  -0.000038  -0.000052   0.003748
    11  C   -0.000000  -0.000000  -0.000000  -0.000028   0.000025  -0.000190
    12  C   -0.000000   0.000002  -0.000000  -0.000127  -0.000176   0.003874
    13  C   -0.000025  -0.000039  -0.000004  -0.011564  -0.000579  -0.047700
    14  H   -0.000004  -0.000105   0.000001   0.002646   0.006072  -0.006958
    15  N    0.000383   0.002362  -0.000016  -0.063511  -0.006388   0.001594
    16  C    0.000840  -0.027280   0.002548   0.328466  -0.050328  -0.001863
    17  H    0.000220  -0.007229   0.017384  -0.023144   0.374513  -0.034187
    18  H    0.000001  -0.000050   0.000012   0.001506  -0.031439   0.338677
    19  H    0.000001  -0.000004   0.000000  -0.001225   0.001232  -0.000352
    20  H    0.000000  -0.000000   0.000000  -0.000079   0.000153  -0.000429
    21  H   -0.000000   0.000000   0.000000   0.000001   0.000001  -0.000077
    22  H   -0.000000   0.000000  -0.000000  -0.000000  -0.000003  -0.000117
    23  H    0.000000  -0.000000   0.000000   0.000040  -0.000000  -0.000030
    24  H    0.000000   0.000000   0.000000   0.000000  -0.000000   0.000006
    25  H    0.000000  -0.000000   0.000000   0.000024   0.000000  -0.000090
    26  H    0.000000  -0.000000   0.000000   0.000006  -0.000002  -0.000060
    27  H    0.006123  -0.000879   0.000018  -0.063430   0.002215   0.000017
               7          8          9         10         11         12
     1  O    0.000004  -0.000000  -0.000000   0.000000  -0.000000  -0.000000
     2  N   -0.000140   0.000002  -0.000004   0.000000  -0.000000   0.000002
     3  O    0.000002  -0.000000  -0.000000   0.000000  -0.000000  -0.000000
     4  C    0.004637  -0.000262   0.000856  -0.000038  -0.000028  -0.000127
     5  C   -0.030194   0.003095   0.000625  -0.000052   0.000025  -0.000176
     6  N    0.169301  -0.050658  -0.061652   0.003748  -0.000190   0.003874
     7  C    5.017536   0.418411   0.350535  -0.054673  -0.009031  -0.061083
     8  H    0.418411   0.538081  -0.055055   0.000778  -0.000325  -0.002228
     9  C    0.350535  -0.055055   5.158244   0.324770  -0.050416  -0.005345
    10  C   -0.054673   0.000778   0.324770   5.119325   0.337002  -0.060993
    11  C   -0.009031  -0.000325  -0.050416   0.337002   5.119916   0.335977
    12  C   -0.061083  -0.002228  -0.005345  -0.060993   0.335977   5.118640
    13  C    0.338605  -0.037931  -0.060239  -0.000285  -0.050685   0.371979
    14  H   -0.046585  -0.000746   0.004423  -0.000405   0.004196  -0.036325
    15  N   -0.057953   0.003900  -0.014626   0.001561  -0.013059  -0.082049
    16  C   -0.001781   0.000010  -0.001273  -0.000029   0.000029   0.002608
    17  H    0.001616  -0.000045  -0.000070   0.000001   0.000000   0.000000
    18  H   -0.021221  -0.004473   0.001328  -0.000083   0.000004  -0.000114
    19  H   -0.036843   0.004361   0.390227  -0.032070  -0.002212   0.000689
    20  H   -0.042420  -0.002079   0.399486  -0.035304   0.003931  -0.000415
    21  H    0.004599  -0.000076  -0.036354   0.402432  -0.034895   0.004349
    22  H   -0.004846   0.003559  -0.046956   0.397754  -0.045405  -0.001020
    23  H    0.000577   0.000035  -0.001958  -0.039017   0.399176  -0.037857
    24  H   -0.000130  -0.000102   0.004388  -0.038437   0.402340  -0.038692
    25  H    0.005153  -0.000025  -0.000423   0.004190  -0.033396   0.398274
    26  H   -0.003907   0.001686   0.000969  -0.002232  -0.041481   0.396738
    27  H   -0.000408   0.000009  -0.000058   0.000007   0.000012  -0.000036
              13         14         15         16         17         18
     1  O   -0.000025  -0.000004   0.000383   0.000840   0.000220   0.000001
     2  N   -0.000039  -0.000105   0.002362  -0.027280  -0.007229  -0.000050
     3  O   -0.000004   0.000001  -0.000016   0.002548   0.017384   0.000012
     4  C   -0.011564   0.002646  -0.063511   0.328466  -0.023144   0.001506
     5  C   -0.000579   0.006072  -0.006388  -0.050328   0.374513  -0.031439
     6  N   -0.047700  -0.006958   0.001594  -0.001863  -0.034187   0.338677
     7  C    0.338605  -0.046585  -0.057953  -0.001781   0.001616  -0.021221
     8  H   -0.037931  -0.000746   0.003900   0.000010  -0.000045  -0.004473
     9  C   -0.060239   0.004423  -0.014626  -0.001273  -0.000070   0.001328
    10  C   -0.000285  -0.000405   0.001561  -0.000029   0.000001  -0.000083
    11  C   -0.050685   0.004196  -0.013059   0.000029   0.000000   0.000004
    12  C    0.371979  -0.036325  -0.082049   0.002608   0.000000  -0.000114
    13  C    5.040247   0.403080   0.244769  -0.071092  -0.000009   0.002971
    14  H    0.403080   0.526764  -0.037368  -0.004529   0.000093  -0.000108
    15  N    0.244769  -0.037368   6.965094   0.585213  -0.000080  -0.000132
    16  C   -0.071092  -0.004529   0.585213   4.709911   0.002014  -0.000197
    17  H   -0.000009   0.000093  -0.000080   0.002014   0.376507  -0.002818
    18  H    0.002971  -0.000108  -0.000132  -0.000197  -0.002818   0.310608
    19  H   -0.007544   0.000106   0.007691   0.003002   0.000016  -0.000149
    20  H    0.004341  -0.000066   0.000126  -0.000036   0.000002   0.000807
    21  H   -0.000433   0.000010  -0.000041   0.000004  -0.000000   0.000001
    22  H    0.000045  -0.000055   0.000019  -0.000002   0.000000   0.000001
    23  H   -0.007522   0.000003   0.008588   0.000106   0.000000   0.000000
    24  H    0.004700  -0.000057   0.000136   0.000007   0.000000  -0.000000
    25  H   -0.035564  -0.002818   0.000407  -0.000022  -0.000000   0.000002
    26  H   -0.047423  -0.001047   0.004900  -0.000061   0.000000  -0.000000
    27  H    0.005062  -0.000174  -0.040320   0.403686  -0.000079   0.000001
              19         20         21         22         23         24
     1  O    0.000001   0.000000  -0.000000  -0.000000   0.000000   0.000000
     2  N   -0.000004  -0.000000   0.000000   0.000000  -0.000000   0.000000
     3  O    0.000000   0.000000   0.000000  -0.000000   0.000000   0.000000
     4  C   -0.001225  -0.000079   0.000001  -0.000000   0.000040   0.000000
     5  C    0.001232   0.000153   0.000001  -0.000003  -0.000000  -0.000000
     6  N   -0.000352  -0.000429  -0.000077  -0.000117  -0.000030   0.000006
     7  C   -0.036843  -0.042420   0.004599  -0.004846   0.000577  -0.000130
     8  H    0.004361  -0.002079  -0.000076   0.003559   0.000035  -0.000102
     9  C    0.390227   0.399486  -0.036354  -0.046956  -0.001958   0.004388
    10  C   -0.032070  -0.035304   0.402432   0.397754  -0.039017  -0.038437
    11  C   -0.002212   0.003931  -0.034895  -0.045405   0.399176   0.402340
    12  C    0.000689  -0.000415   0.004349  -0.001020  -0.037857  -0.038692
    13  C   -0.007544   0.004341  -0.000433   0.000045  -0.007522   0.004700
    14  H    0.000106  -0.000066   0.000010  -0.000055   0.000003  -0.000057
    15  N    0.007691   0.000126  -0.000041   0.000019   0.008588   0.000136
    16  C    0.003002  -0.000036   0.000004  -0.000002   0.000106   0.000007
    17  H    0.000016   0.000002  -0.000000   0.000000   0.000000   0.000000
    18  H   -0.000149   0.000807   0.000001   0.000001   0.000000  -0.000000
    19  H    0.504913  -0.024735  -0.002788   0.003959   0.001514  -0.000066
    20  H   -0.024735   0.541168  -0.002691  -0.002991  -0.000045  -0.000083
    21  H   -0.002788  -0.002691   0.524017  -0.027402  -0.002898  -0.002241
    22  H    0.003959  -0.002991  -0.027402   0.571321   0.004137  -0.003656
    23  H    0.001514  -0.000045  -0.002898   0.004137   0.498946  -0.025450
    24  H   -0.000066  -0.000083  -0.002241  -0.003656  -0.025450   0.538124
    25  H   -0.000029   0.000012  -0.000087  -0.000080  -0.002317  -0.002291
    26  H    0.000019  -0.000030  -0.000081   0.002380   0.004066  -0.003035
    27  H    0.000083   0.000000  -0.000000   0.000000  -0.000035  -0.000000
              25         26         27
     1  O    0.000000   0.000000   0.006123
     2  N   -0.000000  -0.000000  -0.000879
     3  O    0.000000   0.000000   0.000018
     4  C    0.000024   0.000006  -0.063430
     5  C    0.000000  -0.000002   0.002215
     6  N   -0.000090  -0.000060   0.000017
     7  C    0.005153  -0.003907  -0.000408
     8  H   -0.000025   0.001686   0.000009
     9  C   -0.000423   0.000969  -0.000058
    10  C    0.004190  -0.002232   0.000007
    11  C   -0.033396  -0.041481   0.000012
    12  C    0.398274   0.396738  -0.000036
    13  C   -0.035564  -0.047423   0.005062
    14  H   -0.002818  -0.001047  -0.000174
    15  N    0.000407   0.004900  -0.040320
    16  C   -0.000022  -0.000061   0.403686
    17  H   -0.000000   0.000000  -0.000079
    18  H    0.000002  -0.000000   0.000001
    19  H   -0.000029   0.000019   0.000083
    20  H    0.000012  -0.000030   0.000000
    21  H   -0.000087  -0.000081  -0.000000
    22  H   -0.000080   0.002380   0.000000
    23  H   -0.002317   0.004066  -0.000035
    24  H   -0.002291  -0.003035  -0.000000
    25  H    0.506110  -0.024079  -0.000013
    26  H   -0.024079   0.562326   0.000001
    27  H   -0.000013   0.000001   0.439345
 Mulliken charges:
               1
     1  O   -0.467260
     2  N    0.491363
     3  O   -0.504085
     4  C    0.000420
     5  C    0.188930
     6  N   -0.780305
     7  C    0.060241
     8  H    0.180078
     9  C   -0.301420
    10  C   -0.327949
    11  C   -0.321486
    12  C   -0.306669
    13  C   -0.037164
    14  H    0.189958
    15  N   -0.511199
    16  C    0.120050
    17  H    0.295292
    18  H    0.404866
    19  H    0.190205
    20  H    0.161378
    21  H    0.174651
    22  H    0.149360
    23  H    0.199943
    24  H    0.164541
    25  H    0.187061
    26  H    0.150347
    27  H    0.248854
 Sum of Mulliken charges =  -0.00000
 Mulliken charges with hydrogens summed into heavy atoms:
               1
     1  O   -0.467260
     2  N    0.491363
     3  O   -0.504085
     4  C    0.000420
     5  C    0.484222
     6  N   -0.375439
     7  C    0.240319
     9  C    0.050163
    10  C   -0.003939
    11  C    0.042997
    12  C    0.030739
    13  C    0.152794
    15  N   -0.511199
    16  C    0.368904
 Electronic spatial extent (au):  <R**2>=           3005.3174
 Charge=              0.0000 electrons
 Dipole moment (field-independent basis, Debye):
    X=              5.4162    Y=              4.7961    Z=              1.2829  Tot=              7.3474
 Quadrupole moment (field-independent basis, Debye-Ang):
   XX=           -106.1385   YY=            -79.2270   ZZ=            -81.4998
   XY=             -1.7671   XZ=             -0.1375   YZ=              1.8555
 Traceless Quadrupole moment (field-independent basis, Debye-Ang):
   XX=            -17.1833   YY=              9.7281   ZZ=              7.4553
   XY=             -1.7671   XZ=             -0.1375   YZ=              1.8555
 Octapole moment (field-independent basis, Debye-Ang**2):
  XXX=             92.3933  YYY=             36.2889  ZZZ=             -1.4818  XYY=             -4.5743
  XXY=              9.5378  XXZ=              4.9525  XZZ=             -9.7562  YZZ=             -0.3888
  YYZ=              8.0075  XYZ=              0.2592
 Hexadecapole moment (field-independent basis, Debye-Ang**3):
 XXXX=          -3382.0120 YYYY=           -601.0282 ZZZZ=           -303.8440 XXXY=            -20.9025
 XXXZ=            -13.6873 YYYX=             -8.9811 YYYZ=             24.9756 ZZZX=              1.7710
 ZZZY=              7.0584 XXYY=           -627.7442 XXZZ=           -523.8185 YYZZ=           -157.3138
 XXYZ=             -4.3190 YYXZ=              1.6377 ZZXY=              4.6854
 N-N= 9.312423864788D+02 E-N=-3.409201624625D+03  KE= 6.596294278024D+02
 Unable to Open any file for archive entry.
 1\1\GINC-LOTUS\FOpt\RMP2-FC\6-31G(d)\C9H13N3O2\ALEXEY\02-Jul-2023\0\\#
 MP2/6-31G* SCF=Tight Opt=(ModRedun, MaxCycle=20 ) NoSymm\\MolName:\\0,
 1\O,-3.5066147839,-1.3904343632,-0.371948423\N,-3.1211044806,-0.232464
 0603,-0.1187152233\O,-3.8954415354,0.7284654135,0.0554031346\C,-1.6867
 912457,-0.023910366,-0.0094221885\C,-1.3015902904,1.2606058334,0.27546
 45952\N,-0.0573305431,1.7500650037,0.3864447926\C,1.2056115426,1.02389
 88726,0.3594340774\H,1.8534029557,1.5530016986,1.0747058498\C,1.909050
 7542,1.0350192977,-0.9964467634\C,3.3074591027,0.4284240772,-0.8324285
 233\C,3.2595034703,-0.9676835212,-0.2058246879\C,2.4645233961,-0.97823
 89389,1.1016686626\C,1.0548473192,-0.4246079801,0.8652714793\H,0.47829
 63925,-0.4033990959,1.8036751286\N,0.4083149281,-1.3178622526,-0.09110
 5113\C,-0.838966462,-1.1379935313,-0.3864774592\H,-2.0963445819,1.9875
 563126,0.4189958834\H,0.0017826927,2.7351624808,0.6158494056\H,1.31488
 47104,0.4575986973,-1.7127032538\H,1.9749909622,2.0629889648,-1.374063
 4434\H,3.8113918386,0.3903299164,-1.8049658405\H,3.9072447016,1.094732
 3256,-0.1961793374\H,2.7818496884,-1.6644761052,-0.9016782846\H,4.2786
 731683,-1.3311529313,-0.0286652216\H,2.379118973,-2.0001184439,1.48562
 10721\H,2.9744564044,-0.3802880254,1.8696495084\H,-1.3002290779,-1.892
 2192787,-1.0235398267\\Version=ES64L-G16RevC.02\HF=-661.3003812\MP2=-6
 63.3346493\RMSD=5.039e-09\RMSF=2.646e-05\Dipole=1.9793866,1.6919124,0.
 4717279\PG=C01 [X(C9H13N3O2)]\\@
 The archive entry for this job was punched.


 HERE WE GO......
 SLIDING DOWN THE RAZOR BLADE OF LIFE......
                                 TOM LEHRER
 Job cpu time:       0 days  1 hours 12 minutes 54.9 seconds.
 Elapsed time:       0 days  0 hours 21 minutes 46.6 seconds.
 File lengths (MBytes):  RWF=     36 Int=      0 D2E=      0 Chk=      7 Scr=      1
 Normal termination of Gaussian 16 at Sun Jul  2 16:21:48 2023.
