 Entering Gaussian System, Link 0=g16
 Initial command:
 /home/alexey/programs//g16/l1.exe "/home/alexey/tmp/Gau-1543794.inp" -scrdir="/home/alexey/tmp/"
 Entering Link 1 = /home/alexey/programs//g16/l1.exe PID=   1543796.
  
 Copyright (c) 1988-2021, Gaussian, Inc.  All Rights Reserved.
  
 This is part of the Gaussian(R) 16 program.  It is based on
 the Gaussian(R) 09 system (copyright 2009, Gaussian, Inc.),
 the Gaussian(R) 03 system (copyright 2003, Gaussian, Inc.),
 the Gaussian(R) 98 system (copyright 1998, Gaussian, Inc.),
 the Gaussian(R) 94 system (copyright 1995, Gaussian, Inc.),
 the Gaussian 92(TM) system (copyright 1992, Gaussian, Inc.),
 the Gaussian 90(TM) system (copyright 1990, Gaussian, Inc.),
 the Gaussian 88(TM) system (copyright 1988, Gaussian, Inc.),
 the Gaussian 86(TM) system (copyright 1986, Carnegie Mellon
 University), and the Gaussian 82(TM) system (copyright 1983,
 Carnegie Mellon University). Gaussian is a federally registered
 trademark of Gaussian, Inc.
  
 This software contains proprietary and confidential information,
 including trade secrets, belonging to Gaussian, Inc.
  
 This software is provided under written license and may be
 used, copied, transmitted, or stored only in accord with that
 written license.
  
 The following legend is applicable only to US Government
 contracts under FAR:
  
                    RESTRICTED RIGHTS LEGEND
  
 Use, reproduction and disclosure by the US Government is
 subject to restrictions as set forth in subparagraphs (a)
 and (c) of the Commercial Computer Software - Restricted
 Rights clause in FAR 52.227-19.
  
 Gaussian, Inc.
 340 Quinnipiac St., Bldg. 40, Wallingford CT 06492
  
  
 ---------------------------------------------------------------
 Warning -- This program may not be used in any manner that
 competes with the business of Gaussian, Inc. or will provide
 assistance to any competitor of Gaussian, Inc.  The licensee
 of this program is prohibited from giving any competitor of
 Gaussian, Inc. access to this program.  By using this program,
 the user acknowledges that Gaussian, Inc. is engaged in the
 business of creating and licensing software in the field of
 computational chemistry and represents and warrants to the
 licensee that it is not a competitor of Gaussian, Inc. and that
 it will not use this program in any manner prohibited above.
 ---------------------------------------------------------------
  

 Cite this work as:
 Gaussian 16, Revision C.02,
 M. J. Frisch, G. W. Trucks, H. B. Schlegel, G. E. Scuseria, 
 M. A. Robb, J. R. Cheeseman, G. Scalmani, V. Barone, 
 G. A. Petersson, H. Nakatsuji, X. Li, M. Caricato, A. V. Marenich, 
 J. Bloino, B. G. Janesko, R. Gomperts, B. Mennucci, H. P. Hratchian, 
 J. V. Ortiz, A. F. Izmaylov, J. L. Sonnenberg, D. Williams-Young, 
 F. Ding, F. Lipparini, F. Egidi, J. Goings, B. Peng, A. Petrone, 
 T. Henderson, D. Ranasinghe, V. G. Zakrzewski, J. Gao, N. Rega, 
 G. Zheng, W. Liang, M. Hada, M. Ehara, K. Toyota, R. Fukuda, 
 J. Hasegawa, M. Ishida, T. Nakajima, Y. Honda, O. Kitao, H. Nakai, 
 T. Vreven, K. Throssell, J. A. Montgomery, Jr., J. E. Peralta, 
 F. Ogliaro, M. J. Bearpark, J. J. Heyd, E. N. Brothers, K. N. Kudin, 
 V. N. Staroverov, T. A. Keith, R. Kobayashi, J. Normand, 
 K. Raghavachari, A. P. Rendell, J. C. Burant, S. S. Iyengar, 
 J. Tomasi, M. Cossi, J. M. Millam, M. Klene, C. Adamo, R. Cammi, 
 J. W. Ochterski, R. L. Martin, K. Morokuma, O. Farkas, 
 J. B. Foresman, and D. J. Fox, Gaussian, Inc., Wallingford CT, 2019.
 
 ******************************************
 Gaussian 16:  ES64L-G16RevC.02  7-Dec-2021
                 2-Jul-2023 
 ******************************************
 %mem=8GB
 %NPROCS=4
 Will use up to    4 processors via shared memory.
 %NoSave
 ---------------------------------------------------------
 #MP2/6-31G* SCF=Tight Opt=(ModRedun, MaxCycle=20 ) NoSymm
 ---------------------------------------------------------
 1/6=20,18=120,19=15,38=1/1,3;
 2/9=110,12=2,15=1,17=6,18=5,40=1/2;
 3/5=1,6=6,7=1,11=9,25=1,30=1,71=1/1,2,3;
 4//1;
 5/5=2,32=2,38=5/2;
 8/6=4,10=2/1;
 9/15=2,16=-3/6;
 10/5=1,31=1/2;
 6/7=2,8=2,9=2,10=2/1;
 7/12=2,30=1/1,2,3,16;
 1/6=20,18=20,19=15/3(2);
 2/9=110,15=1/2;
 99//99;
 2/9=110,15=1/2;
 3/5=1,6=6,7=1,11=9,25=1,30=1,71=1/1,2,3;
 4/5=5,16=3,69=1/1;
 5/5=2,32=2,38=5/2;
 8/6=4,10=2/1;
 9/15=2,16=-3/6;
 10/5=1,31=1/2;
 7/12=2,30=1/1,2,3,16;
 1/6=20,18=20,19=15/3(-8);
 2/9=110,15=1/2;
 6/7=2,8=2,9=2,10=2/1;
 99/9=10/99;
 --------
 MolName:
 --------
 Symbolic Z-matrix:
 Charge =  0 Multiplicity = 1
 8                    0    -3.5925   -1.47553  -0.12334 
 7                    0    -3.24732  -0.30875   0.05483 
 8                    0    -4.03443   0.6114    0.27932 
 6                    0    -1.75789   0.00997  -0.03391 
 6                    0    -1.37164   1.31041   0.31314 
 7                    0    -0.08435   1.78268   0.31026 
 6                    0     1.19023   1.00159   0.32134 
 1                    0     1.83336   1.498     1.09399 
 6                    0     1.99616   1.04855  -1.00045 
 6                    0     3.3989    0.45566  -0.76857 
 6                    0     3.312    -0.95983  -0.17655 
 6                    0     2.42478  -0.98926   1.08681 
 6                    0     0.99755  -0.44593   0.80127 
 1                    0     0.42811  -0.48244   1.7598 
 7                    0     0.36502  -1.31204  -0.19662 
 6                    0    -0.86815  -1.08203  -0.51519 
 1                    0    -2.14921   2.02333   0.63432 
 1                    0     0.13655   2.75181   0.06868 
 1                    0     1.46784   0.47384  -1.79079 
 1                    0     2.0986    2.09788  -1.34991 
 1                    0     3.96283   0.42905  -1.72662 
 1                    0     3.95789   1.10673  -0.05981 
 1                    0     2.88354  -1.64672  -0.94104 
 1                    0     4.331    -1.32918   0.07124 
 1                    0     2.35046  -2.03536   1.45686 
 1                    0     2.89924  -0.38107   1.88534 
 1                    0    -1.36758  -1.78776  -1.1964 
 
 The following ModRedundant input section has been read:
 D       5       6       7      13 F                                           
 D       1       2       4      16 F                                           
 D       7      13      15      16 F                                           
 D       7       9      10      11 F                                           
 D       9      10      11      12 F                                           
 D       6       7      13      15 F                                           
 

 GradGradGradGradGradGradGradGradGradGradGradGradGradGradGradGradGradGrad
 Berny optimization.
 Initialization pass.
                           ----------------------------
                           !    Initial Parameters    !
                           ! (Angstroms and Degrees)  !
 --------------------------                            --------------------------
 ! Name  Definition              Value          Derivative Info.                !
 --------------------------------------------------------------------------------
 ! R1    R(1,2)                  1.2297         estimate D2E/DX2                !
 ! R2    R(2,3)                  1.2315         estimate D2E/DX2                !
 ! R3    R(2,4)                  1.5257         estimate D2E/DX2                !
 ! R4    R(4,5)                  1.4003         estimate D2E/DX2                !
 ! R5    R(4,16)                 1.4885         estimate D2E/DX2                !
 ! R6    R(5,6)                  1.3712         estimate D2E/DX2                !
 ! R7    R(5,17)                 1.1027         estimate D2E/DX2                !
 ! R8    R(6,7)                  1.4949         estimate D2E/DX2                !
 ! R9    R(6,18)                 1.0229         estimate D2E/DX2                !
 ! R10   R(7,8)                  1.1212         estimate D2E/DX2                !
 ! R11   R(7,9)                  1.5488         estimate D2E/DX2                !
 ! R12   R(7,13)                 1.5371         estimate D2E/DX2                !
 ! R13   R(9,10)                 1.5404         estimate D2E/DX2                !
 ! R14   R(9,19)                 1.1109         estimate D2E/DX2                !
 ! R15   R(9,20)                 1.1107         estimate D2E/DX2                !
 ! R16   R(10,11)                1.5368         estimate D2E/DX2                !
 ! R17   R(10,21)                1.112          estimate D2E/DX2                !
 ! R18   R(10,22)                1.113          estimate D2E/DX2                !
 ! R19   R(11,12)                1.5441         estimate D2E/DX2                !
 ! R20   R(11,23)                1.1135         estimate D2E/DX2                !
 ! R21   R(11,24)                1.1118         estimate D2E/DX2                !
 ! R22   R(12,13)                1.5536         estimate D2E/DX2                !
 ! R23   R(12,25)                1.1121         estimate D2E/DX2                !
 ! R24   R(12,26)                1.1103         estimate D2E/DX2                !
 ! R25   R(13,14)                1.1155         estimate D2E/DX2                !
 ! R26   R(13,15)                1.4649         estimate D2E/DX2                !
 ! R27   R(15,16)                1.2943         estimate D2E/DX2                !
 ! R28   R(16,27)                1.1007         estimate D2E/DX2                !
 ! A1    A(1,2,3)              123.7745         estimate D2E/DX2                !
 ! A2    A(1,2,4)              117.6318         estimate D2E/DX2                !
 ! A3    A(3,2,4)              118.5846         estimate D2E/DX2                !
 ! A4    A(2,4,5)              116.6707         estimate D2E/DX2                !
 ! A5    A(2,4,16)             116.6837         estimate D2E/DX2                !
 ! A6    A(5,4,16)             126.624          estimate D2E/DX2                !
 ! A7    A(4,5,6)              125.3315         estimate D2E/DX2                !
 ! A8    A(4,5,17)             118.5608         estimate D2E/DX2                !
 ! A9    A(6,5,17)             116.0991         estimate D2E/DX2                !
 ! A10   A(5,6,7)              128.35           estimate D2E/DX2                !
 ! A11   A(5,6,18)             121.9746         estimate D2E/DX2                !
 ! A12   A(7,6,18)             108.219          estimate D2E/DX2                !
 ! A13   A(6,7,8)              105.2388         estimate D2E/DX2                !
 ! A14   A(6,7,9)              114.9285         estimate D2E/DX2                !
 ! A15   A(6,7,13)             112.7975         estimate D2E/DX2                !
 ! A16   A(8,7,9)              106.0346         estimate D2E/DX2                !
 ! A17   A(8,7,13)             105.8836         estimate D2E/DX2                !
 ! A18   A(9,7,13)             111.1146         estimate D2E/DX2                !
 ! A19   A(7,9,10)             109.4936         estimate D2E/DX2                !
 ! A20   A(7,9,19)             110.1213         estimate D2E/DX2                !
 ! A21   A(7,9,20)             110.1903         estimate D2E/DX2                !
 ! A22   A(10,9,19)            109.9408         estimate D2E/DX2                !
 ! A23   A(10,9,20)            109.0858         estimate D2E/DX2                !
 ! A24   A(19,9,20)            107.9853         estimate D2E/DX2                !
 ! A25   A(9,10,11)            111.162          estimate D2E/DX2                !
 ! A26   A(9,10,21)            109.9569         estimate D2E/DX2                !
 ! A27   A(9,10,22)            109.1512         estimate D2E/DX2                !
 ! A28   A(11,10,21)           109.7875         estimate D2E/DX2                !
 ! A29   A(11,10,22)           108.7775         estimate D2E/DX2                !
 ! A30   A(21,10,22)           107.9352         estimate D2E/DX2                !
 ! A31   A(10,11,12)           111.4232         estimate D2E/DX2                !
 ! A32   A(10,11,23)           108.9938         estimate D2E/DX2                !
 ! A33   A(10,11,24)           109.8776         estimate D2E/DX2                !
 ! A34   A(12,11,23)           109.2021         estimate D2E/DX2                !
 ! A35   A(12,11,24)           109.7516         estimate D2E/DX2                !
 ! A36   A(23,11,24)           107.5026         estimate D2E/DX2                !
 ! A37   A(11,12,13)           111.7659         estimate D2E/DX2                !
 ! A38   A(11,12,25)           109.1829         estimate D2E/DX2                !
 ! A39   A(11,12,26)           109.4199         estimate D2E/DX2                !
 ! A40   A(13,12,25)           109.1915         estimate D2E/DX2                !
 ! A41   A(13,12,26)           109.4627         estimate D2E/DX2                !
 ! A42   A(25,12,26)           107.7291         estimate D2E/DX2                !
 ! A43   A(7,13,12)            105.7573         estimate D2E/DX2                !
 ! A44   A(7,13,14)            111.2904         estimate D2E/DX2                !
 ! A45   A(7,13,15)            113.4659         estimate D2E/DX2                !
 ! A46   A(12,13,14)           107.432          estimate D2E/DX2                !
 ! A47   A(12,13,15)           108.3661         estimate D2E/DX2                !
 ! A48   A(14,13,15)           110.216          estimate D2E/DX2                !
 ! A49   A(13,15,16)           118.2942         estimate D2E/DX2                !
 ! A50   A(4,16,15)            128.3386         estimate D2E/DX2                !
 ! A51   A(4,16,27)            113.5316         estimate D2E/DX2                !
 ! A52   A(15,16,27)           118.0806         estimate D2E/DX2                !
 ! D1    D(1,2,4,5)           -173.3207         estimate D2E/DX2                !
 ! D2    D(1,2,4,16)             8.2583         Frozen                          !
 ! D3    D(3,2,4,5)              7.7355         estimate D2E/DX2                !
 ! D4    D(3,2,4,16)          -170.6856         estimate D2E/DX2                !
 ! D5    D(2,4,5,6)            179.3182         estimate D2E/DX2                !
 ! D6    D(2,4,5,17)             0.4298         estimate D2E/DX2                !
 ! D7    D(16,4,5,6)            -2.4397         estimate D2E/DX2                !
 ! D8    D(16,4,5,17)          178.6718         estimate D2E/DX2                !
 ! D9    D(2,4,16,15)         -148.9064         estimate D2E/DX2                !
 ! D10   D(2,4,16,27)           28.4629         estimate D2E/DX2                !
 ! D11   D(5,4,16,15)           32.8517         estimate D2E/DX2                !
 ! D12   D(5,4,16,27)         -149.7789         estimate D2E/DX2                !
 ! D13   D(4,5,6,7)            -18.4121         estimate D2E/DX2                !
 ! D14   D(4,5,6,18)           146.1377         estimate D2E/DX2                !
 ! D15   D(17,5,6,7)           160.5007         estimate D2E/DX2                !
 ! D16   D(17,5,6,18)          -34.9495         estimate D2E/DX2                !
 ! D17   D(5,6,7,8)           -134.0915         estimate D2E/DX2                !
 ! D18   D(5,6,7,9)            109.6568         estimate D2E/DX2                !
 ! D19   D(5,6,7,13)           -19.1181         Frozen                          !
 ! D20   D(18,6,7,8)            59.6717         estimate D2E/DX2                !
 ! D21   D(18,6,7,9)           -56.58           estimate D2E/DX2                !
 ! D22   D(18,6,7,13)          174.645          estimate D2E/DX2                !
 ! D23   D(6,7,9,10)           168.5894         estimate D2E/DX2                !
 ! D24   D(6,7,9,19)           -70.4133         estimate D2E/DX2                !
 ! D25   D(6,7,9,20)            48.6058         estimate D2E/DX2                !
 ! D26   D(8,7,9,10)            52.794          estimate D2E/DX2                !
 ! D27   D(8,7,9,19)           173.7912         estimate D2E/DX2                !
 ! D28   D(8,7,9,20)           -67.1897         estimate D2E/DX2                !
 ! D29   D(13,7,9,10)          -61.8034         estimate D2E/DX2                !
 ! D30   D(13,7,9,19)           59.1938         estimate D2E/DX2                !
 ! D31   D(13,7,9,20)          178.2129         estimate D2E/DX2                !
 ! D32   D(6,7,13,12)         -166.333          estimate D2E/DX2                !
 ! D33   D(6,7,13,14)          -49.9719         estimate D2E/DX2                !
 ! D34   D(6,7,13,15)           75.021          Frozen                          !
 ! D35   D(8,7,13,12)          -51.7486         estimate D2E/DX2                !
 ! D36   D(8,7,13,14)           64.6125         estimate D2E/DX2                !
 ! D37   D(8,7,13,15)         -170.3946         estimate D2E/DX2                !
 ! D38   D(9,7,13,12)           62.9429         estimate D2E/DX2                !
 ! D39   D(9,7,13,14)          179.304          estimate D2E/DX2                !
 ! D40   D(9,7,13,15)          -55.7031         estimate D2E/DX2                !
 ! D41   D(7,9,10,11)           54.8127         Frozen                          !
 ! D42   D(7,9,10,21)          176.6004         estimate D2E/DX2                !
 ! D43   D(7,9,10,22)          -65.1761         estimate D2E/DX2                !
 ! D44   D(19,9,10,11)         -66.2938         estimate D2E/DX2                !
 ! D45   D(19,9,10,21)          55.4939         estimate D2E/DX2                !
 ! D46   D(19,9,10,22)         173.7174         estimate D2E/DX2                !
 ! D47   D(20,9,10,11)         175.4702         estimate D2E/DX2                !
 ! D48   D(20,9,10,21)         -62.7421         estimate D2E/DX2                !
 ! D49   D(20,9,10,22)          55.4815         estimate D2E/DX2                !
 ! D50   D(9,10,11,12)         -52.8226         Frozen                          !
 ! D51   D(9,10,11,23)          67.7554         estimate D2E/DX2                !
 ! D52   D(9,10,11,24)        -174.6853         estimate D2E/DX2                !
 ! D53   D(21,10,11,12)       -174.7089         estimate D2E/DX2                !
 ! D54   D(21,10,11,23)        -54.1309         estimate D2E/DX2                !
 ! D55   D(21,10,11,24)         63.4284         estimate D2E/DX2                !
 ! D56   D(22,10,11,12)         67.3876         estimate D2E/DX2                !
 ! D57   D(22,10,11,23)       -172.0343         estimate D2E/DX2                !
 ! D58   D(22,10,11,24)        -54.475          estimate D2E/DX2                !
 ! D59   D(10,11,12,13)         56.5599         estimate D2E/DX2                !
 ! D60   D(10,11,12,25)        177.4692         estimate D2E/DX2                !
 ! D61   D(10,11,12,26)        -64.8515         estimate D2E/DX2                !
 ! D62   D(23,11,12,13)        -63.8958         estimate D2E/DX2                !
 ! D63   D(23,11,12,25)         57.0136         estimate D2E/DX2                !
 ! D64   D(23,11,12,26)        174.6928         estimate D2E/DX2                !
 ! D65   D(24,11,12,13)        178.4955         estimate D2E/DX2                !
 ! D66   D(24,11,12,25)        -60.5952         estimate D2E/DX2                !
 ! D67   D(24,11,12,26)         57.0841         estimate D2E/DX2                !
 ! D68   D(11,12,13,7)         -60.0565         estimate D2E/DX2                !
 ! D69   D(11,12,13,14)       -179.0055         estimate D2E/DX2                !
 ! D70   D(11,12,13,15)         61.9244         estimate D2E/DX2                !
 ! D71   D(25,12,13,7)         179.0392         estimate D2E/DX2                !
 ! D72   D(25,12,13,14)         60.0901         estimate D2E/DX2                !
 ! D73   D(25,12,13,15)        -58.9799         estimate D2E/DX2                !
 ! D74   D(26,12,13,7)          61.3302         estimate D2E/DX2                !
 ! D75   D(26,12,13,14)        -57.6189         estimate D2E/DX2                !
 ! D76   D(26,12,13,15)       -176.6889         estimate D2E/DX2                !
 ! D77   D(7,13,15,16)         -67.1598         Frozen                          !
 ! D78   D(12,13,15,16)        175.7073         estimate D2E/DX2                !
 ! D79   D(14,13,15,16)         58.4085         estimate D2E/DX2                !
 ! D80   D(13,15,16,4)           2.6455         estimate D2E/DX2                !
 ! D81   D(13,15,16,27)       -174.6207         estimate D2E/DX2                !
 --------------------------------------------------------------------------------
 Trust Radius=3.00D-01 FncErr=1.00D-07 GrdErr=1.00D-07 EigMax=2.50D+02 EigMin=1.00D-04
 Number of steps in this run=     20 maximum allowed number of steps=    162.
 GradGradGradGradGradGradGradGradGradGradGradGradGradGradGradGradGradGrad

                          Input orientation:                          
 ---------------------------------------------------------------------
 Center     Atomic      Atomic             Coordinates (Angstroms)
 Number     Number       Type             X           Y           Z
 ---------------------------------------------------------------------
      1          8           0       -3.592500   -1.475530   -0.123340
      2          7           0       -3.247320   -0.308750    0.054830
      3          8           0       -4.034430    0.611400    0.279320
      4          6           0       -1.757890    0.009970   -0.033910
      5          6           0       -1.371640    1.310410    0.313140
      6          7           0       -0.084350    1.782680    0.310260
      7          6           0        1.190230    1.001590    0.321340
      8          1           0        1.833360    1.498000    1.093990
      9          6           0        1.996160    1.048550   -1.000450
     10          6           0        3.398900    0.455660   -0.768570
     11          6           0        3.312000   -0.959830   -0.176550
     12          6           0        2.424780   -0.989260    1.086810
     13          6           0        0.997550   -0.445930    0.801270
     14          1           0        0.428110   -0.482440    1.759800
     15          7           0        0.365020   -1.312040   -0.196620
     16          6           0       -0.868150   -1.082030   -0.515190
     17          1           0       -2.149210    2.023330    0.634320
     18          1           0        0.136550    2.751810    0.068680
     19          1           0        1.467840    0.473840   -1.790790
     20          1           0        2.098600    2.097880   -1.349910
     21          1           0        3.962830    0.429050   -1.726620
     22          1           0        3.957890    1.106730   -0.059810
     23          1           0        2.883540   -1.646720   -0.941040
     24          1           0        4.331000   -1.329180    0.071240
     25          1           0        2.350460   -2.035360    1.456860
     26          1           0        2.899240   -0.381070    1.885340
     27          1           0       -1.367580   -1.787760   -1.196400
 ---------------------------------------------------------------------
                    Distance matrix (angstroms):
                    1          2          3          4          5
     1  O    0.000000
     2  N    1.229744   0.000000
     3  O    2.170879   1.231509   0.000000
     4  C    2.362309   1.525732   2.375387   0.000000
     5  C    3.589456   2.491301   2.753218   1.400277   0.000000
     6  N    4.807396   3.800487   4.120192   2.462050   1.371190
     7  C    5.404477   4.634638   5.239378   3.130643   2.580429
     8  H    6.305849   5.491585   5.990051   4.047650   3.304080
     9  C    6.194629   5.518148   6.180366   4.013196   3.624385
    10  C    7.281860   6.740516   7.508443   5.227891   4.965757
    11  C    6.923937   6.595614   7.526395   5.163782   5.227836
    12  C    6.156994   5.805239   6.703398   4.444007   4.505536
    13  C    4.794115   4.312182   5.168288   2.915102   2.989325
    14  H    4.549478   4.055352   4.827274   2.870272   2.923395
    15  N    3.961573   3.757502   4.825070   2.506179   3.186391
    16  C    2.780373   2.565801   3.677537   1.488533   2.581357
    17  H    3.859942   2.642017   2.381937   2.157147   1.102736
    18  H    5.640309   4.562652   4.692845   3.334234   2.100484
    19  H    5.673401   5.123621   5.880413   3.702315   3.631669
    20  H    6.830985   6.028600   6.517520   4.578618   3.927901
    21  H    7.954932   7.463523   8.247012   5.980596   5.778753
    22  H    7.980006   7.343826   8.014832   5.820111   5.346444
    23  H    6.529704   6.353689   7.378800   5.011026   5.331430
    24  H    7.927240   7.646730   8.590085   6.235300   6.288565
    25  H    6.174886   6.023455   7.011331   4.825382   5.133839
    26  H    6.882974   6.413751   7.186103   5.052256   4.855238
    27  H    2.489822   2.699346   3.878893   2.176134   3.446358
                    6          7          8          9         10
     6  N    0.000000
     7  C    1.494918   0.000000
     8  H    2.091145   1.121172   0.000000
     9  C    2.566209   1.548824   2.148299   0.000000
    10  C    3.880449   2.522730   2.646983   1.540444   0.000000
    11  C    4.392441   2.932059   3.137129   2.538471   1.536766
    12  C    3.818693   2.464456   2.556617   2.948396   2.545415
    13  C    2.525530   1.537131   2.136148   2.544973   3.007282
    14  H    2.737618   2.202803   2.517970   3.524442   4.012266
    15  N    3.167989   2.510406   3.423160   2.979790   3.557572
    16  C    3.082576   3.046011   4.067453   3.602655   4.542731
    17  H    2.103943   3.506247   4.043282   4.561443   5.933567
    18  H    1.022923   2.058482   2.345733   2.739030   4.076300
    19  H    2.921775   2.194694   3.082931   1.110878   2.185007
    20  H    2.760577   2.195465   2.530386   1.110725   2.173850
    21  H    4.728727   3.494174   3.692308   2.186068   1.112018
    22  H    4.115041   2.795760   2.449076   2.176367   1.112970
    23  H    4.704775   3.387395   3.890179   2.838213   2.171484
    24  H    5.407043   3.919117   3.908602   3.500514   2.181684
    25  H    4.671233   3.443632   3.589387   3.959091   3.500992
    26  H    4.008054   2.697881   2.300704   3.344720   2.827192
    27  H    4.082248   4.077548   5.127194   4.404293   5.285386
                   11         12         13         14         15
    11  C    0.000000
    12  C    1.544054   0.000000
    13  C    2.564548   1.553617   0.000000
    14  H    3.506305   2.167135   1.115515   0.000000
    15  N    2.968021   2.448263   1.464932   2.125981   0.000000
    16  C    4.195624   3.663113   2.370343   2.686146   1.294256
    17  H    6.275474   5.495619   4.003401   3.766718   4.258698
    18  H    4.890797   4.502021   3.391688   3.661320   4.078904
    19  H    2.839385   3.367043   2.790327   3.821282   2.635708
    20  H    3.492664   3.946445   3.508683   4.372515   3.995364
    21  H    2.180661   3.506079   3.993583   5.047790   4.279782
    22  H    2.168288   2.838721   3.451931   4.277358   4.333345
    23  H    1.113481   2.180571   2.834519   3.831347   2.647473
    24  H    1.111836   2.186459   3.524906   4.335984   3.975052
    25  H    2.179301   1.112109   2.187796   2.489731   2.683125
    26  H    2.180992   1.110251   2.189941   2.476392   3.409330
    27  H    4.860456   4.498071   3.374171   3.696956   2.056155
                   16         17         18         19         20
    16  C    0.000000
    17  H    3.550458   0.000000
    18  H    4.006077   2.464819   0.000000
    19  H    3.082975   4.622243   3.227864   0.000000
    20  H    4.428339   4.688989   2.507920   1.797148   0.000000
    21  H    5.204738   6.743352   4.822731   2.496217   2.530268
    22  H    5.318713   6.214390   4.162384   3.097933   2.470566
    23  H    3.817774   6.424920   5.283233   2.687574   3.847770
    24  H    5.237952   7.317753   5.852170   3.862088   4.329898
    25  H    3.893234   6.115273   5.453938   4.197896   5.002506
    26  H    4.521849   5.730012   4.554958   4.036547   4.153680
    27  H    1.100696   4.299638   4.946770   3.675288   5.209239
                   21         22         23         24         25
    21  H    0.000000
    22  H    1.799314   0.000000
    23  H    2.467959   3.084199   0.000000
    24  H    2.541500   2.467801   1.794626   0.000000
    25  H    4.336773   3.841464   2.486994   2.518168   0.000000
    26  H    3.851464   2.667939   3.096860   2.497961   1.794834
    27  H    5.797297   6.166891   4.261117   5.855854   4.574376
                   26         27
    26  H    0.000000
    27  H    5.448087   0.000000
 Symmetry turned off by external request.
 Stoichiometry    C9H13N3O2
 Framework group  C1[X(C9H13N3O2)]
 Deg. of freedom    75
 Full point group                 C1      NOp   1
 Rotational constants (GHZ):           1.6828528           0.4011814           0.3559740
 Standard basis: 6-31G(d) (6D, 7F)
   236 basis functions,   444 primitive gaussians,   236 cartesian basis functions
    52 alpha electrons       52 beta electrons
       nuclear repulsion energy       918.0963750198 Hartrees.
 NAtoms=   27 NActive=   27 NUniq=   27 SFac= 1.00D+00 NAtFMM=   60 NAOKFM=F Big=F
 Integral buffers will be    131072 words long.
 Raffenetti 1 integral format.
 Two-electron integral symmetry is turned off.
 One-electron integrals computed using PRISM.
 NBasis=   236 RedAO= T EigKep=  1.29D-03  NBF=   236
 NBsUse=   236 1.00D-06 EigRej= -1.00D+00 NBFU=   236
 ExpMin= 1.61D-01 ExpMax= 5.48D+03 ExpMxC= 8.25D+02 IAcc=3 IRadAn=         5 AccDes= 0.00D+00
 Harris functional with IExCor=  205 and IRadAn=       5 diagonalized for initial guess.
 HarFok:  IExCor=  205 AccDes= 0.00D+00 IRadAn=         5 IDoV= 1 UseB2=F ITyADJ=14
 ICtDFT=  3500011 ScaDFX=  1.000000  1.000000  1.000000  1.000000
 FoFCou: FMM=F IPFlag=           0 FMFlag=      100000 FMFlg1=           0
         NFxFlg=           0 DoJE=T BraDBF=F KetDBF=T FulRan=T
         wScrn=  0.000000 ICntrl=       500 IOpCl=  0 I1Cent=   200000004 NGrid=           0
         NMat0=    1 NMatS0=      1 NMatT0=    0 NMatD0=    1 NMtDS0=    0 NMtDT0=    0
 Symmetry not used in FoFCou.
 Keep R1 ints in memory in canonical form, NReq=397720213.
 Requested convergence on RMS density matrix=1.00D-08 within 128 cycles.
 Requested convergence on MAX density matrix=1.00D-06.
 Requested convergence on             energy=1.00D-06.
 No special actions if energy rises.
 SCF Done:  E(RHF) =  -661.277597287     A.U. after   16 cycles
            NFock= 16  Conv=0.87D-08     -V/T= 2.0037
 ExpMin= 1.61D-01 ExpMax= 5.48D+03 ExpMxC= 8.25D+02 IAcc=3 IRadAn=         5 AccDes= 0.00D+00
 HarFok:  IExCor=  205 AccDes= 0.00D+00 IRadAn=         5 IDoV=-2 UseB2=F ITyADJ=14
 ICtDFT= 12500011 ScaDFX=  1.000000  1.000000  1.000000  1.000000
 Range of M.O.s used for correlation:    15   236
 NBasis=   236 NAE=    52 NBE=    52 NFC=    14 NFV=     0
 NROrb=    222 NOA=    38 NOB=    38 NVA=   184 NVB=   184
 Fully direct method using O(ONN) memory.
 JobTyp=1 Pass  1:  I=  15 to  52 NPSUse=  4 ParTrn=T ParDer=T DoDerP=T.
 Spin components of T(2) and E(2):
     alpha-alpha T2 =       0.9195499985D-01 E2=     -0.2717453778D+00
     alpha-beta  T2 =       0.5001571264D+00 E2=     -0.1494206178D+01
     beta-beta   T2 =       0.9195499985D-01 E2=     -0.2717453778D+00
 ANorm=    0.1297716119D+01
 E2 =    -0.2037696934D+01 EUMP2 =    -0.66331529422065D+03
          IDoAtm=111111111111111111111111111
          Differentiating once with respect to electric field.
                with respect to dipole field.
          Differentiating once with respect to nuclear coordinates.
 Keep R1 ints in memory in canonical form, NReq=397723379.
          There are     1 degrees of freedom in the 1st order CPHF.  IDoFFX=0 NUNeed=     1.
 LinEq1:  Iter=  0 NonCon=     1 RMS=4.59D-03 Max=1.08D-01 NDo=     1
 AX will form     1 AO Fock derivatives at one time.
 LinEq1:  Iter=  1 NonCon=     1 RMS=1.56D-03 Max=3.25D-02 NDo=     1
 LinEq1:  Iter=  2 NonCon=     1 RMS=6.38D-04 Max=1.74D-02 NDo=     1
 LinEq1:  Iter=  3 NonCon=     1 RMS=2.95D-04 Max=9.04D-03 NDo=     1
 LinEq1:  Iter=  4 NonCon=     1 RMS=9.07D-05 Max=2.08D-03 NDo=     1
 LinEq1:  Iter=  5 NonCon=     1 RMS=3.81D-05 Max=1.96D-03 NDo=     1
 LinEq1:  Iter=  6 NonCon=     1 RMS=1.56D-05 Max=5.94D-04 NDo=     1
 LinEq1:  Iter=  7 NonCon=     1 RMS=6.09D-06 Max=1.08D-04 NDo=     1
 LinEq1:  Iter=  8 NonCon=     1 RMS=2.44D-06 Max=6.31D-05 NDo=     1
 LinEq1:  Iter=  9 NonCon=     1 RMS=9.25D-07 Max=2.62D-05 NDo=     1
 LinEq1:  Iter= 10 NonCon=     1 RMS=4.52D-07 Max=1.50D-05 NDo=     1
 LinEq1:  Iter= 11 NonCon=     1 RMS=1.59D-07 Max=5.80D-06 NDo=     1
 LinEq1:  Iter= 12 NonCon=     1 RMS=5.58D-08 Max=8.42D-07 NDo=     1
 LinEq1:  Iter= 13 NonCon=     1 RMS=1.78D-08 Max=3.92D-07 NDo=     1
 LinEq1:  Iter= 14 NonCon=     1 RMS=5.88D-09 Max=1.61D-07 NDo=     1
 LinEq1:  Iter= 15 NonCon=     1 RMS=2.24D-09 Max=5.15D-08 NDo=     1
 LinEq1:  Iter= 16 NonCon=     1 RMS=8.49D-10 Max=1.34D-08 NDo=     1
 LinEq1:  Iter= 17 NonCon=     1 RMS=2.76D-10 Max=4.34D-09 NDo=     1
 LinEq1:  Iter= 18 NonCon=     1 RMS=9.34D-11 Max=1.11D-09 NDo=     1
 LinEq1:  Iter= 19 NonCon=     0 RMS=3.05D-11 Max=4.76D-10 NDo=     1
 Linear equations converged to 1.000D-10 1.000D-09 after    19 iterations.
 End of Minotr F.D. properties file   721 does not exist.
 End of Minotr F.D. properties file   722 does not exist.
 End of Minotr F.D. properties file   788 does not exist.

 **********************************************************************

            Population analysis using the SCF Density.

 **********************************************************************

 Alpha  occ. eigenvalues --  -20.59919 -20.59456 -15.85337 -15.62820 -15.57214
 Alpha  occ. eigenvalues --  -11.35743 -11.30582 -11.30198 -11.30012 -11.27738
 Alpha  occ. eigenvalues --  -11.24580 -11.23844 -11.23417 -11.22850  -1.58559
 Alpha  occ. eigenvalues --   -1.38068  -1.28398  -1.22832  -1.13226  -1.08348
 Alpha  occ. eigenvalues --   -1.01803  -1.00597  -0.93500  -0.88975  -0.84899
 Alpha  occ. eigenvalues --   -0.81533  -0.78100  -0.76875  -0.74220  -0.71006
 Alpha  occ. eigenvalues --   -0.70407  -0.69830  -0.67441  -0.64428  -0.63350
 Alpha  occ. eigenvalues --   -0.61547  -0.60621  -0.57431  -0.56367  -0.54913
 Alpha  occ. eigenvalues --   -0.53322  -0.50727  -0.49123  -0.48485  -0.47730
 Alpha  occ. eigenvalues --   -0.47519  -0.46067  -0.45720  -0.44043  -0.42101
 Alpha  occ. eigenvalues --   -0.40348  -0.33863
 Alpha virt. eigenvalues --    0.07072   0.11690   0.18621   0.21378   0.23217
 Alpha virt. eigenvalues --    0.24130   0.26210   0.27563   0.28579   0.28883
 Alpha virt. eigenvalues --    0.29932   0.31026   0.31890   0.32220   0.33366
 Alpha virt. eigenvalues --    0.33729   0.34199   0.35574   0.37548   0.38558
 Alpha virt. eigenvalues --    0.40731   0.42044   0.44778   0.45411   0.45632
 Alpha virt. eigenvalues --    0.45859   0.49575   0.53089   0.57624   0.58903
 Alpha virt. eigenvalues --    0.63292   0.69107   0.69582   0.72154   0.73947
 Alpha virt. eigenvalues --    0.75053   0.75784   0.75833   0.77559   0.79575
 Alpha virt. eigenvalues --    0.80414   0.83652   0.85191   0.85440   0.88127
 Alpha virt. eigenvalues --    0.88821   0.90240   0.90986   0.91888   0.93853
 Alpha virt. eigenvalues --    0.95500   0.97168   0.98535   1.00218   1.01923
 Alpha virt. eigenvalues --    1.02705   1.05149   1.06144   1.06846   1.08465
 Alpha virt. eigenvalues --    1.09409   1.10458   1.11017   1.11757   1.13264
 Alpha virt. eigenvalues --    1.13751   1.14345   1.15080   1.16307   1.17387
 Alpha virt. eigenvalues --    1.17833   1.19760   1.20842   1.22113   1.23146
 Alpha virt. eigenvalues --    1.23446   1.24434   1.25909   1.27197   1.27431
 Alpha virt. eigenvalues --    1.29347   1.31396   1.32797   1.35399   1.40095
 Alpha virt. eigenvalues --    1.42646   1.45336   1.47118   1.48430   1.51946
 Alpha virt. eigenvalues --    1.53302   1.55198   1.61028   1.61492   1.66026
 Alpha virt. eigenvalues --    1.69187   1.70172   1.72291   1.73793   1.76707
 Alpha virt. eigenvalues --    1.79047   1.79375   1.84261   1.88632   1.92666
 Alpha virt. eigenvalues --    1.93668   1.96273   1.97713   1.99004   2.00109
 Alpha virt. eigenvalues --    2.03222   2.04146   2.05866   2.08704   2.11931
 Alpha virt. eigenvalues --    2.12540   2.14861   2.17767   2.18663   2.19073
 Alpha virt. eigenvalues --    2.21188   2.22184   2.24377   2.24937   2.26809
 Alpha virt. eigenvalues --    2.29078   2.32531   2.34124   2.35794   2.36053
 Alpha virt. eigenvalues --    2.38358   2.39738   2.41100   2.43029   2.46095
 Alpha virt. eigenvalues --    2.48495   2.50283   2.51719   2.56573   2.57251
 Alpha virt. eigenvalues --    2.61030   2.62623   2.66592   2.68270   2.68802
 Alpha virt. eigenvalues --    2.70087   2.70695   2.75057   2.77918   2.80809
 Alpha virt. eigenvalues --    2.83997   2.86673   2.90249   2.91683   2.95435
 Alpha virt. eigenvalues --    2.97861   2.98449   3.02319   3.02916   3.05687
 Alpha virt. eigenvalues --    3.06751   3.11973   3.19803   3.22451   3.27165
 Alpha virt. eigenvalues --    3.29451   3.33339   3.36770   3.43369   3.58793
 Alpha virt. eigenvalues --    4.09416   4.22990   4.32190   4.36063   4.42811
 Alpha virt. eigenvalues --    4.52770   4.59755   4.59931   4.70844   4.77336
 Alpha virt. eigenvalues --    4.95399   4.99221   5.02389   5.10293
          Condensed to atoms (all electrons):
               1          2          3          4          5          6
     1  O    8.298966   0.313352  -0.089274  -0.079459   0.003392  -0.000015
     2  N    0.313352   5.686401   0.308186   0.263331  -0.044422   0.000959
     3  O   -0.089274   0.308186   8.329667  -0.086518   0.007789   0.000444
     4  C   -0.079459   0.263331  -0.086518   5.238545   0.570000  -0.050895
     5  C    0.003392  -0.044422   0.007789   0.570000   4.668033   0.306803
     6  N   -0.000015   0.000959   0.000444  -0.050895   0.306803   7.204718
     7  C    0.000003  -0.000093   0.000001   0.003153  -0.030288   0.197130
     8  H   -0.000000   0.000002  -0.000000  -0.000102   0.001733  -0.052236
     9  C   -0.000000  -0.000003   0.000000   0.000386   0.002164  -0.054789
    10  C   -0.000000   0.000000  -0.000000  -0.000015  -0.000075   0.003294
    11  C   -0.000000  -0.000000  -0.000000  -0.000019   0.000015  -0.000154
    12  C   -0.000000   0.000002  -0.000000  -0.000010  -0.000093   0.003567
    13  C   -0.000022  -0.000042  -0.000003  -0.012269   0.000566  -0.042453
    14  H   -0.000005  -0.000047  -0.000000   0.003277   0.005638  -0.005660
    15  N    0.000081   0.001637  -0.000014  -0.060626  -0.004090   0.001975
    16  C    0.004065  -0.028468   0.001887   0.320637  -0.040240  -0.001935
    17  H    0.000106  -0.003557   0.010984  -0.029574   0.379224  -0.034452
    18  H    0.000000  -0.000036   0.000009   0.000725  -0.023196   0.327401
    19  H    0.000000   0.000001   0.000000  -0.000585   0.000388   0.000950
    20  H    0.000000  -0.000000   0.000000  -0.000022   0.000039  -0.002144
    21  H   -0.000000  -0.000000   0.000000   0.000000   0.000001  -0.000057
    22  H   -0.000000   0.000000  -0.000000  -0.000000  -0.000003  -0.000099
    23  H    0.000000  -0.000000   0.000000   0.000024  -0.000000  -0.000024
    24  H    0.000000   0.000000   0.000000   0.000000  -0.000000   0.000004
    25  H    0.000000  -0.000000   0.000000   0.000018  -0.000001  -0.000070
    26  H    0.000000  -0.000000   0.000000   0.000008  -0.000002  -0.000065
    27  H    0.004792  -0.000165  -0.000010  -0.064516   0.002182   0.000077
               7          8          9         10         11         12
     1  O    0.000003  -0.000000  -0.000000  -0.000000  -0.000000  -0.000000
     2  N   -0.000093   0.000002  -0.000003   0.000000  -0.000000   0.000002
     3  O    0.000001  -0.000000   0.000000  -0.000000  -0.000000  -0.000000
     4  C    0.003153  -0.000102   0.000386  -0.000015  -0.000019  -0.000010
     5  C   -0.030288   0.001733   0.002164  -0.000075   0.000015  -0.000093
     6  N    0.197130  -0.052236  -0.054789   0.003294  -0.000154   0.003567
     7  C    4.989238   0.418424   0.339658  -0.049168  -0.007613  -0.063487
     8  H    0.418424   0.551477  -0.061817   0.001692  -0.000380  -0.002769
     9  C    0.339658  -0.061817   5.182939   0.317462  -0.052927  -0.006538
    10  C   -0.049168   0.001692   0.317462   5.126663   0.332759  -0.059883
    11  C   -0.007613  -0.000380  -0.052927   0.332759   5.123240   0.330889
    12  C   -0.063487  -0.002769  -0.006538  -0.059883   0.330889   5.136057
    13  C    0.336936  -0.041965  -0.048108  -0.002149  -0.047948   0.367086
    14  H   -0.039918  -0.000887   0.003865  -0.000392   0.003949  -0.040716
    15  N   -0.057252   0.004085  -0.012798   0.001508  -0.007641  -0.073622
    16  C   -0.003176   0.000068  -0.001106  -0.000005  -0.000006   0.002857
    17  H    0.001492  -0.000008  -0.000064   0.000001   0.000000   0.000001
    18  H   -0.027528  -0.002103   0.000768  -0.000123   0.000011  -0.000128
    19  H   -0.035004   0.004183   0.385190  -0.032460  -0.002337   0.000663
    20  H   -0.041372  -0.001893   0.397392  -0.037495   0.004150  -0.000352
    21  H    0.004025  -0.000082  -0.035860   0.400234  -0.035907   0.004204
    22  H   -0.004118   0.003514  -0.045653   0.396002  -0.045581  -0.001272
    23  H    0.000400   0.000034  -0.002013  -0.040130   0.396791  -0.036806
    24  H   -0.000139  -0.000096   0.004391  -0.038468   0.400312  -0.037822
    25  H    0.004933   0.000001  -0.000366   0.004101  -0.034073   0.395742
    26  H   -0.004468   0.001680   0.001007  -0.002391  -0.042259   0.394810
    27  H   -0.000402   0.000009  -0.000061   0.000005   0.000004  -0.000020
              13         14         15         16         17         18
     1  O   -0.000022  -0.000005   0.000081   0.004065   0.000106   0.000000
     2  N   -0.000042  -0.000047   0.001637  -0.028468  -0.003557  -0.000036
     3  O   -0.000003  -0.000000  -0.000014   0.001887   0.010984   0.000009
     4  C   -0.012269   0.003277  -0.060626   0.320637  -0.029574   0.000725
     5  C    0.000566   0.005638  -0.004090  -0.040240   0.379224  -0.023196
     6  N   -0.042453  -0.005660   0.001975  -0.001935  -0.034452   0.327401
     7  C    0.336936  -0.039918  -0.057252  -0.003176   0.001492  -0.027528
     8  H   -0.041965  -0.000887   0.004085   0.000068  -0.000008  -0.002103
     9  C   -0.048108   0.003865  -0.012798  -0.001106  -0.000064   0.000768
    10  C   -0.002149  -0.000392   0.001508  -0.000005   0.000001  -0.000123
    11  C   -0.047948   0.003949  -0.007641  -0.000006   0.000000   0.000011
    12  C    0.367086  -0.040716  -0.073622   0.002857   0.000001  -0.000128
    13  C    5.032673   0.400507   0.237993  -0.070979  -0.000040   0.003525
    14  H    0.400507   0.520782  -0.035926  -0.004942   0.000092   0.000012
    15  N    0.237993  -0.035926   6.927203   0.584553  -0.000072  -0.000117
    16  C   -0.070979  -0.004942   0.584553   4.706509   0.001623  -0.000229
    17  H   -0.000040   0.000092  -0.000072   0.001623   0.389198  -0.001580
    18  H    0.003525   0.000012  -0.000117  -0.000229  -0.001580   0.322075
    19  H   -0.006473   0.000067   0.007018   0.002609   0.000010  -0.000119
    20  H    0.003832  -0.000048   0.000071  -0.000030  -0.000000   0.003108
    21  H   -0.000362   0.000009  -0.000025   0.000002  -0.000000  -0.000000
    22  H    0.000333  -0.000045   0.000001  -0.000001   0.000000   0.000002
    23  H   -0.005722   0.000007   0.006596   0.000037   0.000000   0.000000
    24  H    0.004126  -0.000058   0.000046   0.000005   0.000000  -0.000000
    25  H   -0.034671  -0.002656   0.000552  -0.000064  -0.000000   0.000002
    26  H   -0.044637  -0.000948   0.004161  -0.000071   0.000000  -0.000001
    27  H    0.004939  -0.000184  -0.039340   0.401393  -0.000057   0.000003
              19         20         21         22         23         24
     1  O    0.000000   0.000000  -0.000000  -0.000000   0.000000   0.000000
     2  N    0.000001  -0.000000  -0.000000   0.000000  -0.000000   0.000000
     3  O    0.000000   0.000000   0.000000  -0.000000   0.000000   0.000000
     4  C   -0.000585  -0.000022   0.000000  -0.000000   0.000024   0.000000
     5  C    0.000388   0.000039   0.000001  -0.000003  -0.000000  -0.000000
     6  N    0.000950  -0.002144  -0.000057  -0.000099  -0.000024   0.000004
     7  C   -0.035004  -0.041372   0.004025  -0.004118   0.000400  -0.000139
     8  H    0.004183  -0.001893  -0.000082   0.003514   0.000034  -0.000096
     9  C    0.385190   0.397392  -0.035860  -0.045653  -0.002013   0.004391
    10  C   -0.032460  -0.037495   0.400234   0.396002  -0.040130  -0.038468
    11  C   -0.002337   0.004150  -0.035907  -0.045581   0.396791   0.400312
    12  C    0.000663  -0.000352   0.004204  -0.001272  -0.036806  -0.037822
    13  C   -0.006473   0.003832  -0.000362   0.000333  -0.005722   0.004126
    14  H    0.000067  -0.000048   0.000009  -0.000045   0.000007  -0.000058
    15  N    0.007018   0.000071  -0.000025   0.000001   0.006596   0.000046
    16  C    0.002609  -0.000030   0.000002  -0.000001   0.000037   0.000005
    17  H    0.000010  -0.000000  -0.000000   0.000000   0.000000   0.000000
    18  H   -0.000119   0.003108  -0.000000   0.000002   0.000000  -0.000000
    19  H    0.507865  -0.024117  -0.002595   0.003761   0.001648  -0.000068
    20  H   -0.024117   0.550631  -0.002590  -0.002976  -0.000050  -0.000090
    21  H   -0.002595  -0.002590   0.526409  -0.024717  -0.002820  -0.002049
    22  H    0.003761  -0.002976  -0.024717   0.568376   0.004065  -0.003593
    23  H    0.001648  -0.000050  -0.002820   0.004065   0.510460  -0.025011
    24  H   -0.000068  -0.000090  -0.002049  -0.003593  -0.025011   0.540944
    25  H   -0.000027   0.000011  -0.000086  -0.000082  -0.002113  -0.002374
    26  H    0.000024  -0.000036  -0.000074   0.002471   0.003827  -0.002781
    27  H    0.000074  -0.000000  -0.000000   0.000000  -0.000020  -0.000000
              25         26         27
     1  O    0.000000   0.000000   0.004792
     2  N   -0.000000  -0.000000  -0.000165
     3  O    0.000000   0.000000  -0.000010
     4  C    0.000018   0.000008  -0.064516
     5  C   -0.000001  -0.000002   0.002182
     6  N   -0.000070  -0.000065   0.000077
     7  C    0.004933  -0.004468  -0.000402
     8  H    0.000001   0.001680   0.000009
     9  C   -0.000366   0.001007  -0.000061
    10  C    0.004101  -0.002391   0.000005
    11  C   -0.034073  -0.042259   0.000004
    12  C    0.395742   0.394810  -0.000020
    13  C   -0.034671  -0.044637   0.004939
    14  H   -0.002656  -0.000948  -0.000184
    15  N    0.000552   0.004161  -0.039340
    16  C   -0.000064  -0.000071   0.401393
    17  H   -0.000000   0.000000  -0.000057
    18  H    0.000002  -0.000001   0.000003
    19  H   -0.000027   0.000024   0.000074
    20  H    0.000011  -0.000036  -0.000000
    21  H   -0.000086  -0.000074  -0.000000
    22  H   -0.000082   0.002471   0.000000
    23  H   -0.002113   0.003827  -0.000020
    24  H   -0.002374  -0.002781  -0.000000
    25  H    0.511135  -0.023107  -0.000008
    26  H   -0.023107   0.560030   0.000001
    27  H   -0.000008   0.000001   0.453786
 Mulliken charges:
               1
     1  O   -0.455983
     2  N    0.502963
     3  O   -0.483148
     4  C   -0.015496
     5  C    0.194440
     6  N   -0.802274
     7  C    0.068634
     8  H    0.177434
     9  C   -0.313119
    10  C   -0.320966
    11  C   -0.315276
    12  C   -0.312357
    13  C   -0.034673
    14  H    0.194227
    15  N   -0.485956
    16  C    0.125005
    17  H    0.286673
    18  H    0.397518
    19  H    0.189335
    20  H    0.153982
    21  H    0.172340
    22  H    0.149615
    23  H    0.190820
    24  H    0.162721
    25  H    0.183204
    26  H    0.152818
    27  H    0.237518
 Sum of Mulliken charges =  -0.00000
 Mulliken charges with hydrogens summed into heavy atoms:
               1
     1  O   -0.455983
     2  N    0.502963
     3  O   -0.483148
     4  C   -0.015496
     5  C    0.481114
     6  N   -0.404756
     7  C    0.246068
     9  C    0.030198
    10  C    0.000989
    11  C    0.038265
    12  C    0.023666
    13  C    0.159553
    15  N   -0.485956
    16  C    0.362523
 Electronic spatial extent (au):  <R**2>=           3118.8392
 Charge=             -0.0000 electrons
 Dipole moment (field-independent basis, Debye):
    X=              5.2585    Y=              4.4346    Z=              0.3299  Tot=              6.8867
 Quadrupole moment (field-independent basis, Debye-Ang):
   XX=           -105.2271   YY=            -80.6445   ZZ=            -82.0577
   XY=             -2.1856   XZ=              1.5699   YZ=             -0.2121
 Traceless Quadrupole moment (field-independent basis, Debye-Ang):
   XX=            -15.9174   YY=              8.6653   ZZ=              7.2521
   XY=             -2.1856   XZ=              1.5699   YZ=             -0.2121
 Octapole moment (field-independent basis, Debye-Ang**2):
  XXX=             99.3400  YYY=             36.9694  ZZZ=             -6.3502  XYY=             -1.1673
  XXY=             12.7273  XXZ=             -4.7264  XZZ=             -8.8665  YZZ=             -2.6769
  YYZ=             -0.6814  XYZ=             -2.1171
 Hexadecapole moment (field-independent basis, Debye-Ang**3):
 XXXX=          -3545.1294 YYYY=           -621.5225 ZZZZ=           -299.2330 XXXY=            -51.4135
 XXXZ=             61.8261 YYYX=            -29.1197 YYYZ=              7.2984 ZZZX=             39.7930
 ZZZY=             10.3676 XXYY=           -655.9071 XXZZ=           -542.7314 YYZZ=           -163.5707
 XXYZ=              2.3525 YYXZ=             15.8405 ZZXY=              0.4351
 N-N= 9.180963750198D+02 E-N=-3.382203155227D+03  KE= 6.588558891536D+02
 Calling FoFJK, ICntrl=  10002127 FMM=F ISym2X=0 I1Cent= 0 IOpClX= 0 NMat=1 NMatS=1 NMatT=0.
 -------------------------------------------------------------------
 Center     Atomic                   Forces (Hartrees/Bohr)
 Number     Number              X              Y              Z
 -------------------------------------------------------------------
      1        8           0.002425697   -0.019501996   -0.004310875
      2        7           0.038520977    0.014365001   -0.001720643
      3        8          -0.005398970    0.015236396    0.004334239
      4        6          -0.002312730    0.011091004    0.010715519
      5        6           0.000979200   -0.017925598   -0.010380092
      6        7           0.016089573   -0.012430431   -0.003353825
      7        6          -0.004006653    0.005835215    0.002835153
      8        1          -0.008992933   -0.002222217   -0.007759871
      9        6          -0.004175067   -0.000436231   -0.002155516
     10        6           0.002920619   -0.000710232    0.001063575
     11        6          -0.001269032   -0.004660204   -0.002532234
     12        6           0.001181866   -0.008501165   -0.002613574
     13        6           0.010843905   -0.002576559    0.006550765
     14        1           0.000486050    0.004817018   -0.009942188
     15        7          -0.002225912    0.005321644   -0.002836403
     16        6          -0.020980989    0.004542383    0.007124950
     17        1           0.006127303   -0.004987696   -0.009124385
     18        1          -0.016820545   -0.001424192    0.008844400
     19        1           0.003008285    0.006028389    0.007704106
     20        1          -0.003386457   -0.007233214    0.002546279
     21        1          -0.004613010    0.002416892    0.009498352
     22        1          -0.003790824   -0.004014783   -0.007531728
     23        1           0.003865708    0.006147849    0.009340433
     24        1          -0.009321296    0.002653695   -0.002367283
     25        1          -0.000670298    0.010552418   -0.002399890
     26        1          -0.004723715   -0.004862265   -0.004511759
     27        1           0.006239247    0.002478879    0.002982494
 -------------------------------------------------------------------
 Cartesian Forces:  Max     0.038520977 RMS     0.008628751

 GradGradGradGradGradGradGradGradGradGradGradGradGradGradGradGradGradGrad
 Berny optimization.
 FormGI is forming the generalized inverse of G from B-inverse, IUseBI=4.
 Internal  Forces:  Max     0.036910352 RMS     0.006804711
 Search for a local minimum.
 Step number   1 out of a maximum of   20
 All quantities printed in internal units (Hartrees-Bohrs-Radians)
 Mixed Optimization -- RFO/linear search
 Second derivative matrix not updated -- first step.
 ITU=  0
     Eigenvalues ---    0.00231   0.00767   0.01036   0.01154   0.01211
     Eigenvalues ---    0.01516   0.01539   0.01961   0.01990   0.02080
     Eigenvalues ---    0.02649   0.03614   0.04500   0.04665   0.04840
     Eigenvalues ---    0.05006   0.05131   0.05296   0.05851   0.06258
     Eigenvalues ---    0.06990   0.07668   0.07712   0.07822   0.07991
     Eigenvalues ---    0.08050   0.08082   0.10416   0.11682   0.11753
     Eigenvalues ---    0.12290   0.14779   0.15596   0.15994   0.15998
     Eigenvalues ---    0.19860   0.21513   0.22967   0.24990   0.25000
     Eigenvalues ---    0.25000   0.25276   0.25897   0.26635   0.27983
     Eigenvalues ---    0.28087   0.28452   0.29821   0.31170   0.31445
     Eigenvalues ---    0.32023   0.32234   0.32288   0.32378   0.32387
     Eigenvalues ---    0.32406   0.32507   0.32523   0.32573   0.33108
     Eigenvalues ---    0.33381   0.33605   0.35253   0.43875   0.44099
     Eigenvalues ---    0.48729   0.66290   0.90461   0.911931000.00000
     Eigenvalues --- 1000.000001000.000001000.000001000.000001000.00000
     Eigenvalues --- 1000.000001000.000001000.000001000.000001000.00000
     Eigenvalues --- 1000.000001000.000001000.000001000.000001000.00000
     Eigenvalues --- 1000.000001000.000001000.000001000.000001000.00000
     Eigenvalues --- 1000.000001000.000001000.000001000.000001000.00000
     Eigenvalues --- 1000.000001000.000001000.000001000.000001000.00000
     Eigenvalues --- 1000.000001000.000001000.000001000.000001000.00000
     Eigenvalues --- 1000.000001000.000001000.000001000.000001000.00000
     Eigenvalues --- 1000.000001000.000001000.000001000.000001000.00000
     Eigenvalues --- 1000.000001000.000001000.000001000.000001000.00000
     Eigenvalues --- 1000.000001000.000001000.000001000.000001000.00000
     Eigenvalues --- 1000.000001000.000001000.000001000.000001000.00000
     Eigenvalues --- 1000.000001000.000001000.000001000.000001000.00000
     Eigenvalues --- 1000.000001000.000001000.000001000.000001000.00000
     Eigenvalues --- 1000.000001000.000001000.000001000.000001000.00000
     Eigenvalues --- 1000.000001000.000001000.000001000.000001000.00000
     Eigenvalues --- 1000.000001000.000001000.000001000.000001000.00000
     Eigenvalues --- 1000.000001000.000001000.000001000.000001000.00000
     Eigenvalues --- 1000.00000
 RFO step:  Lambda=-2.37908308D-02 EMin= 2.31228522D-03
 Linear search not attempted -- first point.
 Iteration  1 RMS(Cart)=  0.05436207 RMS(Int)=  0.00108682
 Iteration  2 RMS(Cart)=  0.00113357 RMS(Int)=  0.00031979
 Iteration  3 RMS(Cart)=  0.00000109 RMS(Int)=  0.00031979
 Iteration  4 RMS(Cart)=  0.00000000 RMS(Int)=  0.00031979
 Iteration  1 RMS(Cart)=  0.00002007 RMS(Int)=  0.00001787
 Iteration  2 RMS(Cart)=  0.00001068 RMS(Int)=  0.00001977
 Iteration  3 RMS(Cart)=  0.00000632 RMS(Int)=  0.00002214
 Iteration  4 RMS(Cart)=  0.00000419 RMS(Int)=  0.00002385
 Iteration  5 RMS(Cart)=  0.00000306 RMS(Int)=  0.00002502
 Iteration  6 RMS(Cart)=  0.00000240 RMS(Int)=  0.00002587
 Iteration  7 RMS(Cart)=  0.00000196 RMS(Int)=  0.00002652
 Iteration  8 RMS(Cart)=  0.00000166 RMS(Int)=  0.00002703
 Iteration  9 RMS(Cart)=  0.00000143 RMS(Int)=  0.00002747
 Iteration 10 RMS(Cart)=  0.00000126 RMS(Int)=  0.00002784
 Iteration 11 RMS(Cart)=  0.00000111 RMS(Int)=  0.00002817
 Iteration 12 RMS(Cart)=  0.00000099 RMS(Int)=  0.00002846
 Variable       Old X    -DE/DX   Delta X   Delta X   Delta X     New X
                                 (Linear)    (Quad)   (Total)
    R1        2.32388   0.01845   0.00000   0.01971   0.01971   2.34359
    R2        2.32721   0.01563   0.00000   0.01683   0.01683   2.34404
    R3        2.88322  -0.03691   0.00000  -0.11463  -0.11463   2.76859
    R4        2.64614  -0.03597   0.00000  -0.07705  -0.07680   2.56934
    R5        2.81292  -0.02114   0.00000  -0.05776  -0.05752   2.75540
    R6        2.59117  -0.02156   0.00000  -0.04334  -0.04326   2.54792
    R7        2.08387  -0.01020   0.00000  -0.02853  -0.02853   2.05534
    R8        2.82498  -0.01915   0.00000  -0.05549  -0.05551   2.76947
    R9        1.93304  -0.00707   0.00000  -0.01529  -0.01529   1.91776
   R10        2.11871  -0.01149   0.00000  -0.03397  -0.03397   2.08474
   R11        2.92685  -0.01318   0.00000  -0.04450  -0.04457   2.88229
   R12        2.90476  -0.00600   0.00000  -0.01256  -0.01248   2.89228
   R13        2.91102  -0.00475   0.00000  -0.01421  -0.01423   2.89679
   R14        2.09926  -0.01003   0.00000  -0.02875  -0.02875   2.07050
   R15        2.09897  -0.00795   0.00000  -0.02277  -0.02277   2.07620
   R16        2.90407  -0.00187   0.00000  -0.00735  -0.00738   2.89669
   R17        2.10141  -0.01058   0.00000  -0.03043  -0.03043   2.07098
   R18        2.10321  -0.00905   0.00000  -0.02610  -0.02610   2.07711
   R19        2.91784  -0.00897   0.00000  -0.02877  -0.02870   2.88914
   R20        2.10417  -0.01169   0.00000  -0.03378  -0.03378   2.07039
   R21        2.10107  -0.00995   0.00000  -0.02861  -0.02861   2.07246
   R22        2.93591  -0.01032   0.00000  -0.03609  -0.03608   2.89983
   R23        2.10158  -0.01068   0.00000  -0.03073  -0.03073   2.07085
   R24        2.09807  -0.00793   0.00000  -0.02268  -0.02268   2.07539
   R25        2.10802  -0.00895   0.00000  -0.02601  -0.02601   2.08201
   R26        2.76832  -0.00469   0.00000  -0.01153  -0.01198   2.75634
   R27        2.44579  -0.00739   0.00000  -0.00955  -0.00969   2.43610
   R28        2.08001  -0.00627   0.00000  -0.01741  -0.01741   2.06260
    A1        2.16027   0.01075   0.00000   0.03945   0.03926   2.19953
    A2        2.05306  -0.00788   0.00000  -0.02858  -0.02877   2.02429
    A3        2.06969  -0.00286   0.00000  -0.01027  -0.01047   2.05923
    A4        2.03629  -0.00587   0.00000  -0.02114  -0.02143   2.01486
    A5        2.03651  -0.00370   0.00000  -0.01309  -0.01341   2.02310
    A6        2.21000   0.00955   0.00000   0.03351   0.03378   2.24378
    A7        2.18745   0.00591   0.00000   0.01504   0.01520   2.20265
    A8        2.06928  -0.00341   0.00000  -0.00977  -0.01008   2.05920
    A9        2.02631  -0.00249   0.00000  -0.00475  -0.00505   2.02126
   A10        2.24013  -0.00444   0.00000  -0.01713  -0.01727   2.22286
   A11        2.12886  -0.01264   0.00000  -0.06824  -0.06895   2.05991
   A12        1.88878   0.01718   0.00000   0.09504   0.09502   1.98380
   A13        1.83676  -0.00050   0.00000  -0.01343  -0.01331   1.82346
   A14        2.00588  -0.00181   0.00000  -0.01297  -0.01301   1.99287
   A15        1.96869   0.00064   0.00000   0.00343   0.00306   1.97175
   A16        1.85065   0.00253   0.00000   0.02271   0.02267   1.87332
   A17        1.84802   0.00027   0.00000   0.01449   0.01420   1.86222
   A18        1.93932  -0.00077   0.00000  -0.01017  -0.00981   1.92951
   A19        1.91102   0.00001   0.00000  -0.00463  -0.00479   1.90624
   A20        1.92198  -0.00070   0.00000  -0.01172  -0.01168   1.91029
   A21        1.92318  -0.00157   0.00000  -0.00799  -0.00796   1.91523
   A22        1.91883  -0.00031   0.00000   0.00658   0.00659   1.92542
   A23        1.90391   0.00305   0.00000   0.02354   0.02353   1.92744
   A24        1.88470  -0.00044   0.00000  -0.00539  -0.00565   1.87905
   A25        1.94014  -0.00097   0.00000   0.00533   0.00527   1.94541
   A26        1.91911  -0.00069   0.00000  -0.00639  -0.00642   1.91269
   A27        1.90505   0.00038   0.00000  -0.00296  -0.00302   1.90202
   A28        1.91615   0.00093   0.00000   0.00739   0.00742   1.92358
   A29        1.89853   0.00160   0.00000   0.01068   0.01069   1.90922
   A30        1.88382  -0.00124   0.00000  -0.01454  -0.01461   1.86921
   A31        1.94470   0.00036   0.00000   0.00419   0.00424   1.94894
   A32        1.90230   0.00074   0.00000   0.00604   0.00603   1.90833
   A33        1.91773   0.00041   0.00000   0.00530   0.00528   1.92301
   A34        1.90594  -0.00092   0.00000  -0.01292  -0.01294   1.89299
   A35        1.91553  -0.00048   0.00000  -0.00016  -0.00022   1.91531
   A36        1.87627  -0.00013   0.00000  -0.00278  -0.00283   1.87345
   A37        1.95068  -0.00274   0.00000  -0.01886  -0.01882   1.93186
   A38        1.90560   0.00257   0.00000   0.01716   0.01703   1.92263
   A39        1.90974   0.00125   0.00000   0.01363   0.01354   1.92328
   A40        1.90575   0.00002   0.00000  -0.00296  -0.00283   1.90292
   A41        1.91049  -0.00019   0.00000  -0.00441  -0.00434   1.90614
   A42        1.88023  -0.00085   0.00000  -0.00406  -0.00424   1.87599
   A43        1.84581   0.00417   0.00000   0.02334   0.02332   1.86913
   A44        1.94238  -0.00416   0.00000  -0.03509  -0.03555   1.90683
   A45        1.98035   0.00062   0.00000   0.01542   0.01587   1.99622
   A46        1.87504   0.00244   0.00000   0.03264   0.03304   1.90808
   A47        1.89134  -0.00287   0.00000  -0.02829  -0.02847   1.86287
   A48        1.92363   0.00011   0.00000  -0.00544  -0.00538   1.91825
   A49        2.06462  -0.00491   0.00000  -0.02033  -0.02087   2.04376
   A50        2.23993  -0.00433   0.00000  -0.01837  -0.01811   2.22182
   A51        1.98150   0.00615   0.00000   0.03083   0.03059   2.01209
   A52        2.06090  -0.00172   0.00000  -0.01160  -0.01184   2.04906
    D1       -3.02502  -0.00106   0.00000  -0.02553  -0.02513  -3.05014
    D2        0.14413  -0.00018   0.00000   0.00000  -0.00000   0.14413
    D3        0.13501  -0.00169   0.00000  -0.06070  -0.06050   0.07451
    D4       -2.97903  -0.00081   0.00000  -0.03517  -0.03537  -3.01440
    D5        3.12969  -0.00109   0.00000  -0.00027  -0.00031   3.12939
    D6        0.00750  -0.00167   0.00000  -0.03380  -0.03403  -0.02653
    D7       -0.04258  -0.00234   0.00000  -0.02967  -0.03023  -0.07282
    D8        3.11841  -0.00293   0.00000  -0.06319  -0.06396   3.05445
    D9       -2.59891  -0.00225   0.00000  -0.02375  -0.02428  -2.62319
   D10        0.49677   0.00064   0.00000  -0.00102  -0.00128   0.49549
   D11        0.57337  -0.00096   0.00000   0.00577   0.00588   0.57925
   D12       -2.61414   0.00193   0.00000   0.02850   0.02888  -2.58525
   D13       -0.32135   0.00168   0.00000   0.02131   0.02152  -0.29984
   D14        2.55058   0.00459   0.00000   0.08474   0.08291   2.63350
   D15        2.80127   0.00224   0.00000   0.05404   0.05454   2.85581
   D16       -0.60998   0.00515   0.00000   0.11747   0.11594  -0.49404
   D17       -2.34034  -0.00139   0.00000  -0.01106  -0.01056  -2.35090
   D18        1.91387  -0.00320   0.00000  -0.02320  -0.02278   1.89110
   D19       -0.33367  -0.00104   0.00000   0.00000  -0.00001  -0.33368
   D20        1.04147  -0.00065   0.00000  -0.04917  -0.05016   0.99131
   D21       -0.98751  -0.00246   0.00000  -0.06131  -0.06238  -1.04988
   D22        3.04813  -0.00030   0.00000  -0.03812  -0.03961   3.00852
   D23        2.94244   0.00272   0.00000   0.02315   0.02295   2.96539
   D24       -1.22894   0.00189   0.00000   0.02092   0.02076  -1.20819
   D25        0.84833  -0.00007   0.00000   0.00199   0.00191   0.85024
   D26        0.92143   0.00266   0.00000   0.03184   0.03175   0.95318
   D27        3.03323   0.00183   0.00000   0.02962   0.02956   3.06279
   D28       -1.17268  -0.00013   0.00000   0.01068   0.01071  -1.16198
   D29       -1.07867   0.00131   0.00000   0.00712   0.00717  -1.07150
   D30        1.03313   0.00049   0.00000   0.00490   0.00498   1.03811
   D31        3.11040  -0.00147   0.00000  -0.01404  -0.01387   3.09653
   D32       -2.90306  -0.00183   0.00000  -0.01090  -0.01062  -2.91368
   D33       -0.87217   0.00134   0.00000   0.02344   0.02328  -0.84889
   D34        1.30936  -0.00137   0.00000   0.00000  -0.00002   1.30935
   D35       -0.90318  -0.00194   0.00000  -0.01665  -0.01656  -0.91974
   D36        1.12770   0.00124   0.00000   0.01768   0.01734   1.14504
   D37       -2.97395  -0.00147   0.00000  -0.00576  -0.00595  -2.97990
   D38        1.09856   0.00081   0.00000   0.01319   0.01328   1.11184
   D39        3.12945   0.00399   0.00000   0.04753   0.04718  -3.10656
   D40       -0.97220   0.00128   0.00000   0.02409   0.02388  -0.94832
   D41        0.95666   0.00047   0.00000   0.00000  -0.00000   0.95666
   D42        3.08226   0.00052   0.00000   0.00854   0.00850   3.09076
   D43       -1.13754  -0.00116   0.00000  -0.01467  -0.01464  -1.15218
   D44       -1.15705   0.00153   0.00000   0.01329   0.01334  -1.14370
   D45        0.96855   0.00159   0.00000   0.02183   0.02185   0.99040
   D46        3.03194  -0.00010   0.00000  -0.00138  -0.00130   3.03064
   D47        3.06253   0.00042   0.00000   0.00190   0.00184   3.06437
   D48       -1.09506   0.00048   0.00000   0.01044   0.01035  -1.08471
   D49        0.96833  -0.00120   0.00000  -0.01277  -0.01280   0.95553
   D50       -0.92193  -0.00091   0.00000   0.00000  -0.00000  -0.92193
   D51        1.18255  -0.00134   0.00000  -0.00948  -0.00949   1.17307
   D52       -3.04883  -0.00083   0.00000  -0.00624  -0.00626  -3.05509
   D53       -3.04925  -0.00003   0.00000  -0.00051  -0.00051  -3.04975
   D54       -0.94476  -0.00046   0.00000  -0.00998  -0.00999  -0.95475
   D55        1.10704   0.00005   0.00000  -0.00675  -0.00676   1.10027
   D56        1.17614  -0.00000   0.00000   0.00654   0.00656   1.18269
   D57       -3.00257  -0.00043   0.00000  -0.00294  -0.00293  -3.00549
   D58       -0.95077   0.00008   0.00000   0.00030   0.00030  -0.95046
   D59        0.98716  -0.00063   0.00000  -0.01076  -0.01078   0.97638
   D60        3.09742  -0.00064   0.00000  -0.01507  -0.01519   3.08224
   D61       -1.13187   0.00055   0.00000  -0.00212  -0.00207  -1.13394
   D62       -1.11519  -0.00118   0.00000  -0.01243  -0.01242  -1.12761
   D63        0.99507  -0.00118   0.00000  -0.01674  -0.01682   0.97825
   D64        3.04896   0.00001   0.00000  -0.00380  -0.00371   3.04526
   D65        3.11533  -0.00021   0.00000  -0.00137  -0.00138   3.11396
   D66       -1.05759  -0.00021   0.00000  -0.00568  -0.00578  -1.06337
   D67        0.99630   0.00098   0.00000   0.00726   0.00733   1.00364
   D68       -1.04818   0.00015   0.00000  -0.00281  -0.00275  -1.05093
   D69       -3.12424   0.00162   0.00000   0.00968   0.00933  -3.11490
   D70        1.08078   0.00170   0.00000   0.01342   0.01349   1.09428
   D71        3.12482  -0.00133   0.00000  -0.01020  -0.01011   3.11471
   D72        1.04877   0.00013   0.00000   0.00229   0.00197   1.05074
   D73       -1.02939   0.00022   0.00000   0.00603   0.00613  -1.02326
   D74        1.07041  -0.00021   0.00000  -0.00103  -0.00089   1.06952
   D75       -1.00564   0.00126   0.00000   0.01146   0.01119  -0.99445
   D76       -3.08380   0.00134   0.00000   0.01520   0.01535  -3.06845
   D77       -1.17216   0.00269   0.00000   0.00000  -0.00001  -1.17217
   D78        3.06667  -0.00097   0.00000  -0.01956  -0.01938   3.04729
   D79        1.01942  -0.00229   0.00000  -0.03927  -0.03950   0.97992
   D80        0.04617   0.00422   0.00000   0.01404   0.01398   0.06015
   D81       -3.04771   0.00105   0.00000  -0.01052  -0.01040  -3.05810
         Item               Value     Threshold  Converged?
 Maximum Force            0.036910     0.000450     NO 
 RMS     Force            0.006920     0.000300     NO 
 Maximum Displacement     0.281754     0.001800     NO 
 RMS     Displacement     0.054591     0.001200     NO 
 Predicted change in Energy=-1.342060D-02
 GradGradGradGradGradGradGradGradGradGradGradGradGradGradGradGradGradGrad

                          Input orientation:                          
 ---------------------------------------------------------------------
 Center     Atomic      Atomic             Coordinates (Angstroms)
 Number     Number       Type             X           Y           Z
 ---------------------------------------------------------------------
      1          8           0       -3.446974   -1.463605   -0.141343
      2          7           0       -3.117850   -0.283320    0.050074
      3          8           0       -3.885332    0.654005    0.316573
      4          6           0       -1.683398    0.003948   -0.029088
      5          6           0       -1.323768    1.275437    0.291212
      6          7           0       -0.069033    1.768765    0.304493
      7          6           0        1.184673    1.010104    0.326178
      8          1           0        1.799501    1.515228    1.090298
      9          6           0        1.963440    1.052584   -0.984576
     10          6           0        3.354322    0.446720   -0.765024
     11          6           0        3.264325   -0.965528   -0.175857
     12          6           0        2.398545   -0.997487    1.083839
     13          6           0        1.000293   -0.435125    0.795036
     14          1           0        0.405408   -0.443133    1.722345
     15          7           0        0.389578   -1.315719   -0.194442
     16          6           0       -0.840430   -1.086487   -0.504909
     17          1           0       -2.111726    1.978293    0.552122
     18          1           0        0.056537    2.757669    0.114262
     19          1           0        1.419489    0.488852   -1.750605
     20          1           0        2.048056    2.091334   -1.332323
     21          1           0        3.900457    0.426609   -1.714950
     22          1           0        3.921422    1.092516   -0.079830
     23          1           0        2.822954   -1.640563   -0.917388
     24          1           0        4.267537   -1.344003    0.054504
     25          1           0        2.301510   -2.025997    1.449401
     26          1           0        2.868055   -0.406598    1.881688
     27          1           0       -1.326599   -1.789499   -1.183690
 ---------------------------------------------------------------------
                    Distance matrix (angstroms):
                    1          2          3          4          5
     1  O    0.000000
     2  N    1.240176   0.000000
     3  O    2.210457   1.240415   0.000000
     4  C    2.297067   1.465074   2.321760   0.000000
     5  C    3.492486   2.388849   2.635987   1.359636   0.000000
     6  N    4.696539   3.683893   3.975799   2.414960   1.348299
     7  C    5.271620   4.501209   5.082505   3.060131   2.522678
     8  H    6.157588   5.338275   5.801524   3.958229   3.232778
     9  C    6.026179   5.354871   6.004997   3.913058   3.533134
    10  C    7.091964   6.564019   7.322937   5.110408   4.866923
    11  C    6.729845   6.422508   7.347310   5.043946   5.127444
    12  C    5.990695   5.657677   6.542418   4.347843   4.432838
    13  C    4.659696   4.187734   5.028366   2.841507   2.929355
    14  H    4.399494   3.903252   4.646543   2.762338   2.826956
    15  N    3.839768   3.664380   4.734533   2.462943   3.144122
    16  C    2.658660   2.477846   3.602162   1.458097   2.538919
    17  H    3.756387   2.525714   2.225960   2.102215   1.087638
    18  H    5.491728   4.396415   4.472657   3.260506   2.033117
    19  H    5.484913   4.942280   5.695755   3.581432   3.509016
    20  H    6.652172   5.851204   6.323754   4.469827   3.830242
    21  H    7.748155   7.271585   8.049678   5.848095   5.660188
    22  H    7.799411   7.173643   7.829102   5.709778   5.261479
    23  H    6.320251   6.170190   7.196444   4.878597   5.211438
    24  H    7.717923   7.461166   8.398213   6.102261   6.179012
    25  H    5.990979   5.862124   6.836865   4.710212   5.038205
    26  H    6.714872   6.261075   7.013037   4.953315   4.788553
    27  H    2.385097   2.645625   3.842996   2.162606   3.401350
                    6          7          8          9         10
     6  N    0.000000
     7  C    1.465542   0.000000
     8  H    2.042839   1.103196   0.000000
     9  C    2.511087   1.525240   2.132138   0.000000
    10  C    3.822437   2.493090   2.646015   1.532914   0.000000
    11  C    4.338014   2.912063   3.146904   2.533595   1.532861
    12  C    3.787937   2.465351   2.583143   2.944562   2.533286
    13  C    2.498243   1.530527   2.128330   2.511563   2.958529
    14  H    2.669811   2.160656   2.485590   3.462955   3.959159
    15  N    3.158053   2.512504   3.413605   2.951307   3.495921
    16  C    3.066373   3.031080   4.035200   3.559128   4.473738
    17  H    2.068289   3.443064   3.975143   4.452567   5.827372
    18  H    1.014834   2.090833   2.352495   2.784068   4.121773
    19  H    2.842059   2.154036   3.044435   1.095663   2.171802
    20  H    2.695419   2.159887   2.502553   1.098676   2.175526
    21  H    4.651493   3.447050   3.669948   2.162713   1.095914
    22  H    4.065556   2.767929   2.459763   2.157279   1.099157
    23  H    4.634663   3.355065   3.877793   2.827777   2.159240
    24  H    5.343936   3.888403   3.916538   3.483128   2.170778
    25  H    4.618496   3.424451   3.594612   3.939060   3.482301
    26  H    3.980732   2.694518   2.336989   3.341109   2.823065
    27  H    4.056773   4.052650   5.085739   4.352177   5.204515
                   11         12         13         14         15
    11  C    0.000000
    12  C    1.528866   0.000000
    13  C    2.519881   1.534525   0.000000
    14  H    3.471235   2.165084   1.101750   0.000000
    15  N    2.896058   2.402337   1.458590   2.106117   0.000000
    16  C    4.119699   3.608739   2.345717   2.631858   1.289130
    17  H    6.172354   5.429597   3.945662   3.683570   4.202902
    18  H    4.923034   4.530593   3.398244   3.598997   4.098622
    19  H    2.828157   3.346913   2.740392   3.736086   2.595927
    20  H    3.487281   3.937194   3.465034   4.295674   3.956429
    21  H    2.170603   3.480950   3.931103   4.978636   4.204037
    22  H    2.162531   2.835735   3.410583   4.238916   4.276290
    23  H    1.095605   2.144431   2.776252   3.774462   2.559199
    24  H    1.096697   2.161651   3.471214   4.302243   3.886044
    25  H    2.166349   1.095848   2.156904   2.484987   2.619580
    26  H    2.168622   1.098249   2.161055   2.468066   3.358521
    27  H    4.771922   4.432344   3.341274   3.641098   2.036748
                   16         17         18         19         20
    16  C    0.000000
    17  H    3.482295   0.000000
    18  H    3.995679   2.345317   0.000000
    19  H    3.023356   4.471070   3.237730   0.000000
    20  H    4.373387   4.568118   2.550051   1.771442   0.000000
    21  H    5.121491   6.610120   4.853409   2.482006   2.519743
    22  H    5.253949   6.130485   4.212807   3.068480   2.464930
    23  H    3.727939   6.293382   5.297340   2.682979   3.834019
    24  H    5.144957   7.209734   5.878759   3.837858   4.318672
    25  H    3.817564   6.026284   5.450317   4.164428   4.975404
    26  H    4.462169   5.679231   4.587048   4.011698   4.152340
    27  H    1.091481   4.222053   4.926914   3.612932   5.145023
                   21         22         23         24         25
    21  H    0.000000
    22  H    1.765642   0.000000
    23  H    2.463802   3.062329   0.000000
    24  H    2.529977   2.464643   1.766166   0.000000
    25  H    4.311035   3.832464   2.454008   2.505217   0.000000
    26  H    3.833523   2.684115   3.059335   2.485132   1.769265
    27  H    5.702236   6.088206   4.160756   5.746821   4.489129
                   26         27
    26  H    0.000000
    27  H    5.376251   0.000000
 Symmetry turned off by external request.
 Stoichiometry    C9H13N3O2
 Framework group  C1[X(C9H13N3O2)]
 Deg. of freedom    75
 Full point group                 C1      NOp   1
 Rotational constants (GHZ):           1.6946126           0.4229415           0.3729547
 Standard basis: 6-31G(d) (6D, 7F)
   236 basis functions,   444 primitive gaussians,   236 cartesian basis functions
    52 alpha electrons       52 beta electrons
       nuclear repulsion energy       932.7748621964 Hartrees.
 NAtoms=   27 NActive=   27 NUniq=   27 SFac= 1.00D+00 NAtFMM=   60 NAOKFM=F Big=F
 Integral buffers will be    131072 words long.
 Raffenetti 1 integral format.
 Two-electron integral symmetry is turned off.
 One-electron integrals computed using PRISM.
 NBasis=   236 RedAO= T EigKep=  1.02D-03  NBF=   236
 NBsUse=   236 1.00D-06 EigRej= -1.00D+00 NBFU=   236
 Initial guess from the checkpoint file:  "/home/alexey/tmp/Gau-1543796.chk"
 B after Tr=     0.055561    0.003684    0.002319
         Rot=    0.999999   -0.000581   -0.000459    0.000676 Ang=  -0.11 deg.
 ExpMin= 1.61D-01 ExpMax= 5.48D+03 ExpMxC= 8.25D+02 IAcc=3 IRadAn=         5 AccDes= 0.00D+00
 Harris functional with IExCor=  205 and IRadAn=       5 diagonalized for initial guess.
 HarFok:  IExCor=  205 AccDes= 0.00D+00 IRadAn=         5 IDoV= 1 UseB2=F ITyADJ=14
 ICtDFT=  3500011 ScaDFX=  1.000000  1.000000  1.000000  1.000000
 FoFCou: FMM=F IPFlag=           0 FMFlag=      100000 FMFlg1=           0
         NFxFlg=           0 DoJE=T BraDBF=F KetDBF=T FulRan=T
         wScrn=  0.000000 ICntrl=       500 IOpCl=  0 I1Cent=   200000004 NGrid=           0
         NMat0=    1 NMatS0=      1 NMatT0=    0 NMatD0=    1 NMtDS0=    0 NMtDT0=    0
 Symmetry not used in FoFCou.
 Keep R1 ints in memory in canonical form, NReq=397720213.
 Requested convergence on RMS density matrix=1.00D-08 within 128 cycles.
 Requested convergence on MAX density matrix=1.00D-06.
 Requested convergence on             energy=1.00D-06.
 No special actions if energy rises.
 SCF Done:  E(RHF) =  -661.295109328     A.U. after   15 cycles
            NFock= 15  Conv=0.39D-08     -V/T= 2.0024
 ExpMin= 1.61D-01 ExpMax= 5.48D+03 ExpMxC= 8.25D+02 IAcc=3 IRadAn=         5 AccDes= 0.00D+00
 HarFok:  IExCor=  205 AccDes= 0.00D+00 IRadAn=         5 IDoV=-2 UseB2=F ITyADJ=14
 ICtDFT= 12500011 ScaDFX=  1.000000  1.000000  1.000000  1.000000
 Range of M.O.s used for correlation:    15   236
 NBasis=   236 NAE=    52 NBE=    52 NFC=    14 NFV=     0
 NROrb=    222 NOA=    38 NOB=    38 NVA=   184 NVB=   184
 Fully direct method using O(ONN) memory.
 JobTyp=1 Pass  1:  I=  15 to  52 NPSUse=  4 ParTrn=T ParDer=T DoDerP=T.
 Spin components of T(2) and E(2):
     alpha-alpha T2 =       0.9122893477D-01 E2=     -0.2723085882D+00
     alpha-beta  T2 =       0.4917227465D+00 E2=     -0.1488516242D+01
     beta-beta   T2 =       0.9122893477D-01 E2=     -0.2723085882D+00
 ANorm=    0.1293901316D+01
 E2 =    -0.2033133418D+01 EUMP2 =    -0.66332824274622D+03
          IDoAtm=111111111111111111111111111
          Differentiating once with respect to electric field.
                with respect to dipole field.
          Differentiating once with respect to nuclear coordinates.
 Keep R1 ints in memory in canonical form, NReq=397723379.
          There are     1 degrees of freedom in the 1st order CPHF.  IDoFFX=0 NUNeed=     1.
 LinEq1:  Iter=  0 NonCon=     1 RMS=4.56D-03 Max=1.02D-01 NDo=     1
 AX will form     1 AO Fock derivatives at one time.
 LinEq1:  Iter=  1 NonCon=     1 RMS=1.53D-03 Max=2.40D-02 NDo=     1
 LinEq1:  Iter=  2 NonCon=     1 RMS=6.40D-04 Max=1.72D-02 NDo=     1
 LinEq1:  Iter=  3 NonCon=     1 RMS=2.80D-04 Max=8.02D-03 NDo=     1
 LinEq1:  Iter=  4 NonCon=     1 RMS=8.69D-05 Max=1.89D-03 NDo=     1
 LinEq1:  Iter=  5 NonCon=     1 RMS=3.64D-05 Max=1.84D-03 NDo=     1
 LinEq1:  Iter=  6 NonCon=     1 RMS=1.41D-05 Max=5.42D-04 NDo=     1
[...]
    27  H    4.741747   4.427415   3.346087   3.642513   2.032980
                   16         17         18         19         20
    16  C    0.000000
    17  H    3.468512   0.000000
    18  H    4.072381   2.238993   0.000000
    19  H    2.996388   4.417307   3.543600   0.000000
    20  H    4.366351   4.545952   2.909397   1.767967   0.000000
    21  H    5.104054   6.585042   5.100626   2.499154   2.521995
    22  H    5.242854   6.114520   4.307571   3.070330   2.461528
    23  H    3.710273   6.268231   5.426322   2.704259   3.842443
    24  H    5.139285   7.196358   5.927913   3.849829   4.317072
    25  H    3.818098   6.019208   5.347980   4.171981   4.983496
    26  H    4.480930   5.697725   4.453387   4.035838   4.180214
    27  H    1.089595   4.220124   5.052285   3.573471   5.125071
                   21         22         23         24         25
    21  H    0.000000
    22  H    1.758754   0.000000
    23  H    2.469129   3.062086   0.000000
    24  H    2.517713   2.459990   1.764465   0.000000
    25  H    4.312105   3.838948   2.445335   2.519350   0.000000
    26  H    3.846075   2.703496   3.060698   2.491245   1.767462
    27  H    5.661827   6.058507   4.119701   5.718198   4.474893
                   26         27
    26  H    0.000000
    27  H    5.380521   0.000000
 Symmetry turned off by external request.
 Stoichiometry    C9H13N3O2
 Framework group  C1[X(C9H13N3O2)]
 Deg. of freedom    75
 Full point group                 C1      NOp   1
 Rotational constants (GHZ):           1.6898822           0.4202506           0.3724700

 **********************************************************************

            Population analysis using the SCF Density.

 **********************************************************************

 Alpha  occ. eigenvalues --  -20.59312 -20.58976 -15.84774 -15.63946 -15.56419
 Alpha  occ. eigenvalues --  -11.34985 -11.29646 -11.29616 -11.28713 -11.27156
 Alpha  occ. eigenvalues --  -11.23614 -11.23157 -11.22734 -11.22094  -1.57183
 Alpha  occ. eigenvalues --   -1.36786  -1.30889  -1.23264  -1.14666  -1.09830
 Alpha  occ. eigenvalues --   -1.02759  -1.01242  -0.94467  -0.89655  -0.85483
 Alpha  occ. eigenvalues --   -0.82437  -0.78529  -0.77447  -0.75179  -0.71920
 Alpha  occ. eigenvalues --   -0.69875  -0.69478  -0.67781  -0.64959  -0.63699
 Alpha  occ. eigenvalues --   -0.62358  -0.60389  -0.57559  -0.57075  -0.55054
 Alpha  occ. eigenvalues --   -0.54570  -0.50737  -0.49933  -0.48688  -0.48090
 Alpha  occ. eigenvalues --   -0.47411  -0.46165  -0.46014  -0.43713  -0.41610
 Alpha  occ. eigenvalues --   -0.40309  -0.34022
 Alpha virt. eigenvalues --    0.07294   0.11785   0.17338   0.21787   0.23995
 Alpha virt. eigenvalues --    0.25506   0.27024   0.28616   0.29016   0.29712
 Alpha virt. eigenvalues --    0.30613   0.31819   0.32020   0.32696   0.34076
 Alpha virt. eigenvalues --    0.34411   0.35747   0.37259   0.38602   0.40195
 Alpha virt. eigenvalues --    0.41343   0.42656   0.45239   0.46295   0.46571
 Alpha virt. eigenvalues --    0.47061   0.48919   0.53834   0.57761   0.59390
 Alpha virt. eigenvalues --    0.63728   0.69493   0.70183   0.72863   0.74213
 Alpha virt. eigenvalues --    0.74975   0.75902   0.76869   0.78441   0.79519
 Alpha virt. eigenvalues --    0.81245   0.84892   0.85921   0.86190   0.88591
 Alpha virt. eigenvalues --    0.89757   0.90469   0.92404   0.92917   0.94463
 Alpha virt. eigenvalues --    0.95653   0.98014   0.99349   1.01802   1.02519
 Alpha virt. eigenvalues --    1.03002   1.05600   1.06570   1.07596   1.09130
 Alpha virt. eigenvalues --    1.10091   1.10774   1.11858   1.12345   1.13985
 Alpha virt. eigenvalues --    1.14667   1.15011   1.15529   1.16709   1.18747
 Alpha virt. eigenvalues --    1.19543   1.21022   1.22069   1.23806   1.24269
 Alpha virt. eigenvalues --    1.24632   1.25991   1.26889   1.27414   1.29341
 Alpha virt. eigenvalues --    1.30126   1.33432   1.35296   1.36737   1.41134
 Alpha virt. eigenvalues --    1.42057   1.47160   1.48588   1.50328   1.53437
 Alpha virt. eigenvalues --    1.55504   1.57543   1.60370   1.63384   1.65418
 Alpha virt. eigenvalues --    1.67875   1.68994   1.74038   1.74201   1.76732
 Alpha virt. eigenvalues --    1.81832   1.84503   1.87370   1.90532   1.93318
 Alpha virt. eigenvalues --    1.95913   1.97312   1.99631   2.01379   2.02595
 Alpha virt. eigenvalues --    2.05167   2.05682   2.08351   2.09375   2.12388
 Alpha virt. eigenvalues --    2.13001   2.15259   2.17730   2.20195   2.21613
 Alpha virt. eigenvalues --    2.23282   2.24700   2.25607   2.28228   2.29963
 Alpha virt. eigenvalues --    2.31741   2.34405   2.35554   2.36889   2.38675
 Alpha virt. eigenvalues --    2.39966   2.41491   2.43764   2.45441   2.48617
 Alpha virt. eigenvalues --    2.50994   2.51854   2.53467   2.55853   2.61832
 Alpha virt. eigenvalues --    2.62644   2.64818   2.68131   2.70459   2.71137
 Alpha virt. eigenvalues --    2.72693   2.73581   2.77881   2.78704   2.83469
 Alpha virt. eigenvalues --    2.87878   2.88259   2.92888   2.93404   2.96148
 Alpha virt. eigenvalues --    2.99876   3.01150   3.03712   3.04754   3.07966
 Alpha virt. eigenvalues --    3.09188   3.14112   3.21754   3.24916   3.27173
 Alpha virt. eigenvalues --    3.32356   3.37247   3.37946   3.51976   3.64370
 Alpha virt. eigenvalues --    4.12981   4.27964   4.34482   4.38584   4.45848
 Alpha virt. eigenvalues --    4.56194   4.61721   4.62127   4.73540   4.79130
 Alpha virt. eigenvalues --    4.98840   5.00884   5.04185   5.11636
          Condensed to atoms (all electrons):
               1          2          3          4          5          6
     1  O    8.315285   0.308102  -0.082488  -0.085941   0.004589  -0.000017
     2  N    0.308102   5.722250   0.300780   0.265398  -0.052347   0.000952
     3  O   -0.082488   0.300780   8.352838  -0.092264   0.003833   0.000743
     4  C   -0.085941   0.265398  -0.092264   5.213817   0.563802  -0.050495
     5  C    0.004589  -0.052347   0.003833   0.563802   4.714180   0.318755
     6  N   -0.000017   0.000952   0.000743  -0.050495   0.318755   7.182060
     7  C    0.000004  -0.000142   0.000001   0.003072  -0.031652   0.171764
     8  H   -0.000000   0.000003  -0.000000  -0.000184   0.002542  -0.051447
     9  C   -0.000000  -0.000003   0.000000   0.000901   0.001162  -0.060961
    10  C    0.000000   0.000000   0.000000  -0.000035  -0.000064   0.003670
    11  C   -0.000000  -0.000000  -0.000000  -0.000036   0.000028  -0.000200
    12  C   -0.000000   0.000003  -0.000000  -0.000040  -0.000148   0.003959
    13  C   -0.000031  -0.000075  -0.000005  -0.014221  -0.000417  -0.044915
    14  H   -0.000007  -0.000112   0.000000   0.003161   0.007399  -0.007405
    15  N    0.000262   0.002385  -0.000016  -0.062151  -0.006909   0.001776
    16  C    0.001169  -0.028983   0.002485   0.331930  -0.048960  -0.002162
    17  H    0.000205  -0.006964   0.016703  -0.023838   0.375096  -0.033895
    18  H    0.000001  -0.000052   0.000011   0.001854  -0.031585   0.338452
    19  H    0.000000  -0.000002   0.000000  -0.000958   0.000798  -0.000006
    20  H    0.000000  -0.000000   0.000000  -0.000081   0.000184  -0.000681
    21  H   -0.000000   0.000000   0.000000   0.000000   0.000001  -0.000073
    22  H   -0.000000   0.000000  -0.000000   0.000000  -0.000004  -0.000120
    23  H    0.000000  -0.000000   0.000000   0.000038  -0.000000  -0.000030
    24  H    0.000000   0.000000   0.000000   0.000000  -0.000000   0.000006
    25  H    0.000000  -0.000000   0.000000   0.000023   0.000001  -0.000091
    26  H    0.000000  -0.000000   0.000000   0.000008  -0.000004  -0.000051
    27  H    0.005767  -0.000970   0.000010  -0.061055   0.002284   0.000035
               7          8          9         10         11         12
     1  O    0.000004  -0.000000  -0.000000   0.000000  -0.000000  -0.000000
     2  N   -0.000142   0.000003  -0.000003   0.000000  -0.000000   0.000003
     3  O    0.000001  -0.000000   0.000000   0.000000  -0.000000  -0.000000
     4  C    0.003072  -0.000184   0.000901  -0.000035  -0.000036  -0.000040
     5  C   -0.031652   0.002542   0.001162  -0.000064   0.000028  -0.000148
     6  N    0.171764  -0.051447  -0.060961   0.003670  -0.000200   0.003959
     7  C    5.019164   0.419348   0.347175  -0.054646  -0.008892  -0.060475
     8  H    0.419348   0.541755  -0.056070   0.000963  -0.000419  -0.002444
     9  C    0.347175  -0.056070   5.159371   0.323846  -0.050123  -0.005448
    10  C   -0.054646   0.000963   0.323846   5.121073   0.336610  -0.060908
    11  C   -0.008892  -0.000419  -0.050123   0.336610   5.119523   0.336292
    12  C   -0.060475  -0.002444  -0.005448  -0.060908   0.336292   5.118007
    13  C    0.342863  -0.039047  -0.059599  -0.000429  -0.051207   0.370459
    14  H   -0.047385  -0.000578   0.004478  -0.000405   0.004170  -0.035811
    15  N   -0.057359   0.003930  -0.014359   0.001639  -0.012769  -0.081343
    16  C   -0.002439   0.000047  -0.001503  -0.000006   0.000028   0.003054
    17  H    0.001750  -0.000050  -0.000073   0.000001   0.000000  -0.000000
    18  H   -0.022084  -0.004645   0.001522  -0.000090   0.000004  -0.000121
    19  H   -0.036853   0.004433   0.389856  -0.032080  -0.002289   0.000691
    20  H   -0.041674  -0.001976   0.399649  -0.035562   0.003936  -0.000399
    21  H    0.004589  -0.000074  -0.036293   0.402520  -0.034920   0.004340
    22  H   -0.004861   0.003588  -0.046835   0.397705  -0.045510  -0.001062
    23  H    0.000534   0.000039  -0.001938  -0.039051   0.399334  -0.037901
    24  H   -0.000127  -0.000104   0.004368  -0.038362   0.402292  -0.038730
    25  H    0.005126  -0.000012  -0.000435   0.004198  -0.033472   0.398586
    26  H   -0.004111   0.001750   0.000963  -0.002246  -0.041374   0.396835
    27  H   -0.000400   0.000010  -0.000063   0.000007   0.000010  -0.000041
              13         14         15         16         17         18
     1  O   -0.000031  -0.000007   0.000262   0.001169   0.000205   0.000001
     2  N   -0.000075  -0.000112   0.002385  -0.028983  -0.006964  -0.000052
     3  O   -0.000005   0.000000  -0.000016   0.002485   0.016703   0.000011
     4  C   -0.014221   0.003161  -0.062151   0.331930  -0.023838   0.001854
     5  C   -0.000417   0.007399  -0.006909  -0.048960   0.375096  -0.031585
     6  N   -0.044915  -0.007405   0.001776  -0.002162  -0.033895   0.338452
     7  C    0.342863  -0.047385  -0.057359  -0.002439   0.001750  -0.022084
     8  H   -0.039047  -0.000578   0.003930   0.000047  -0.000050  -0.004645
     9  C   -0.059599   0.004478  -0.014359  -0.001503  -0.000073   0.001522
    10  C   -0.000429  -0.000405   0.001639  -0.000006   0.000001  -0.000090
    11  C   -0.051207   0.004170  -0.012769   0.000028   0.000000   0.000004
    12  C    0.370459  -0.035811  -0.081343   0.003054  -0.000000  -0.000121
    13  C    5.048105   0.401113   0.246414  -0.073549   0.000030   0.002813
    14  H    0.401113   0.530717  -0.037876  -0.005204   0.000137  -0.000123
    15  N    0.246414  -0.037876   6.952571   0.581755  -0.000103  -0.000118
    16  C   -0.073549  -0.005204   0.581755   4.717039   0.001984  -0.000186
    17  H    0.000030   0.000137  -0.000103   0.001984   0.377376  -0.002972
    18  H    0.002813  -0.000123  -0.000118  -0.000186  -0.002972   0.314565
    19  H   -0.007534   0.000119   0.007801   0.003033   0.000013  -0.000147
    20  H    0.004274  -0.000067   0.000120  -0.000034   0.000005   0.000625
    21  H   -0.000424   0.000010  -0.000035   0.000003  -0.000000   0.000002
    22  H    0.000090  -0.000056   0.000014  -0.000002   0.000000   0.000000
    23  H   -0.007342   0.000002   0.008311   0.000070   0.000000   0.000000
    24  H    0.004705  -0.000055   0.000135   0.000007   0.000000  -0.000000
    25  H   -0.035681  -0.002838   0.000161  -0.000015  -0.000000   0.000002
    26  H   -0.047118  -0.001069   0.004830  -0.000084   0.000000  -0.000000
    27  H    0.005210  -0.000187  -0.039862   0.402026  -0.000078   0.000001
              19         20         21         22         23         24
     1  O    0.000000   0.000000  -0.000000  -0.000000   0.000000   0.000000
     2  N   -0.000002  -0.000000   0.000000   0.000000  -0.000000   0.000000
     3  O    0.000000   0.000000   0.000000  -0.000000   0.000000   0.000000
     4  C   -0.000958  -0.000081   0.000000   0.000000   0.000038   0.000000
     5  C    0.000798   0.000184   0.000001  -0.000004  -0.000000  -0.000000
     6  N   -0.000006  -0.000681  -0.000073  -0.000120  -0.000030   0.000006
     7  C   -0.036853  -0.041674   0.004589  -0.004861   0.000534  -0.000127
     8  H    0.004433  -0.001976  -0.000074   0.003588   0.000039  -0.000104
     9  C    0.389856   0.399649  -0.036293  -0.046835  -0.001938   0.004368
    10  C   -0.032080  -0.035562   0.402520   0.397705  -0.039051  -0.038362
    11  C   -0.002289   0.003936  -0.034920  -0.045510   0.399334   0.402292
    12  C    0.000691  -0.000399   0.004340  -0.001062  -0.037901  -0.038730
    13  C   -0.007534   0.004274  -0.000424   0.000090  -0.007342   0.004705
    14  H    0.000119  -0.000067   0.000010  -0.000056   0.000002  -0.000055
    15  N    0.007801   0.000120  -0.000035   0.000014   0.008311   0.000135
    16  C    0.003033  -0.000034   0.000003  -0.000002   0.000070   0.000007
    17  H    0.000013   0.000005  -0.000000   0.000000   0.000000   0.000000
    18  H   -0.000147   0.000625   0.000002   0.000000   0.000000  -0.000000
    19  H    0.504882  -0.024447  -0.002770   0.003946   0.001517  -0.000065
    20  H   -0.024447   0.539436  -0.002662  -0.002985  -0.000047  -0.000082
    21  H   -0.002770  -0.002662   0.524047  -0.027410  -0.002907  -0.002231
    22  H    0.003946  -0.002985  -0.027410   0.571648   0.004144  -0.003660
    23  H    0.001517  -0.000047  -0.002907   0.004144   0.499443  -0.025479
    24  H   -0.000065  -0.000082  -0.002231  -0.003660  -0.025479   0.538215
    25  H   -0.000028   0.000012  -0.000087  -0.000080  -0.002333  -0.002286
    26  H    0.000019  -0.000030  -0.000081   0.002382   0.004059  -0.003047
    27  H    0.000080   0.000000  -0.000000   0.000000  -0.000032  -0.000000
              25         26         27
     1  O    0.000000   0.000000   0.005767
     2  N   -0.000000  -0.000000  -0.000970
     3  O    0.000000   0.000000   0.000010
     4  C    0.000023   0.000008  -0.061055
     5  C    0.000001  -0.000004   0.002284
     6  N   -0.000091  -0.000051   0.000035
     7  C    0.005126  -0.004111  -0.000400
     8  H   -0.000012   0.001750   0.000010
     9  C   -0.000435   0.000963  -0.000063
    10  C    0.004198  -0.002246   0.000007
    11  C   -0.033472  -0.041374   0.000010
    12  C    0.398586   0.396835  -0.000041
    13  C   -0.035681  -0.047118   0.005210
    14  H   -0.002838  -0.001069  -0.000187
    15  N    0.000161   0.004830  -0.039862
    16  C   -0.000015  -0.000084   0.402026
    17  H   -0.000000   0.000000  -0.000078
    18  H    0.000002  -0.000000   0.000001
    19  H   -0.000028   0.000019   0.000080
    20  H    0.000012  -0.000030   0.000000
    21  H   -0.000087  -0.000081  -0.000000
    22  H   -0.000080   0.002382   0.000000
    23  H   -0.002333   0.004059  -0.000032
    24  H   -0.002286  -0.003047  -0.000000
    25  H    0.506396  -0.024145  -0.000010
    26  H   -0.024145   0.561918   0.000001
    27  H   -0.000010   0.000001   0.439961
 Mulliken charges:
               1
     1  O   -0.466900
     2  N    0.489776
     3  O   -0.502630
     4  C    0.007292
     5  C    0.177436
     6  N   -0.769620
     7  C    0.057708
     8  H    0.178643
     9  C   -0.299587
    10  C   -0.328349
    11  C   -0.321015
    12  C   -0.307353
    13  C   -0.044482
    14  H    0.187870
    15  N   -0.499205
    16  C    0.118500
    17  H    0.294674
    18  H    0.402272
    19  H    0.189992
    20  H    0.162487
    21  H    0.174455
    22  H    0.149067
    23  H    0.199568
    24  H    0.164503
    25  H    0.187006
    26  H    0.150595
    27  H    0.247298
 Sum of Mulliken charges =  -0.00000
 Mulliken charges with hydrogens summed into heavy atoms:
               1
     1  O   -0.466900
     2  N    0.489776
     3  O   -0.502630
     4  C    0.007292
     5  C    0.472110
     6  N   -0.367348
     7  C    0.236351
     9  C    0.052891
    10  C   -0.004827
    11  C    0.043056
    12  C    0.030247
    13  C    0.143388
    15  N   -0.499205
    16  C    0.365797
 Electronic spatial extent (au):  <R**2>=           3000.3372
 Charge=              0.0000 electrons
 Dipole moment (field-independent basis, Debye):
    X=              5.3365    Y=              4.7786    Z=              1.2276  Tot=              7.2678
 Quadrupole moment (field-independent basis, Debye-Ang):
   XX=           -105.9524   YY=            -79.5921   ZZ=            -81.3510
   XY=             -2.1224   XZ=              0.7879   YZ=              2.1633
 Traceless Quadrupole moment (field-independent basis, Debye-Ang):
   XX=            -16.9872   YY=              9.3731   ZZ=              7.6142
   XY=             -2.1224   XZ=              0.7879   YZ=              2.1633
 Octapole moment (field-independent basis, Debye-Ang**2):
  XXX=             90.9133  YYY=             36.6786  ZZZ=             -2.0444  XYY=             -4.3918
  XXY=             11.0139  XXZ=              0.0673  XZZ=            -10.3023  YZZ=             -0.2996
  YYZ=              8.4055  XYZ=             -0.2042
 Hexadecapole moment (field-independent basis, Debye-Ang**3):
 XXXX=          -3375.9076 YYYY=           -603.6654 ZZZZ=           -300.7994 XXXY=            -32.9651
 XXXZ=             25.5351 YYYX=            -17.4155 YYYZ=             26.1154 ZZZX=             21.8744
 ZZZY=              8.6397 XXYY=           -626.8977 XXZZ=           -522.3202 YYZZ=           -156.0005
 XXYZ=             -4.6336 YYXZ=              8.8068 ZZXY=              3.1551
 N-N= 9.317899478409D+02 E-N=-3.410280997109D+03  KE= 6.596307367235D+02
 Unable to Open any file for archive entry.
 1\1\GINC-LOTUS\FOpt\RMP2-FC\6-31G(d)\C9H13N3O2\ALEXEY\02-Jul-2023\0\\#
 MP2/6-31G* SCF=Tight Opt=(ModRedun, MaxCycle=20 ) NoSymm\\MolName:\\0,
 1\O,-3.4869280419,-1.4219461793,-0.294963427\N,-3.1153452901,-0.260457
 0607,-0.0364571388\O,-3.8992682841,0.6767621119,0.2080038493\C,-1.6830
 053408,-0.0193414186,-0.0081744913\C,-1.3049529934,1.2603740674,0.3022
 812082\N,-0.0609246577,1.7707886551,0.2875277852\C,1.1956146663,1.0275
 467012,0.3092664684\H,1.8268330442,1.5520708284,1.0431029974\C,1.94471
 55639,1.0310258389,-1.0217261827\C,3.3357750814,0.4233072047,-0.807858
 0788\C,3.2635222572,-0.9696624165,-0.1767237599\C,2.4243165424,-0.9715
 786265,1.1031007762\C,1.0236387643,-0.4172078693,0.8170728709\H,0.4182
 793089,-0.3873969727,1.7379948087\N,0.4051257566,-1.3163944061,-0.1515
 299777\C,-0.8345934631,-1.1068544627,-0.4643021092\H,-2.0989184081,1.9
 723075226,0.5107966754\H,0.0033557002,2.7398357764,0.5773817109\H,1.37
 44504806,0.4521547243,-1.7557961425\H,2.0247460944,2.0573753329,-1.400
 7032814\H,3.872538782,0.3794897285,-1.762398075\H,3.9150964233,1.09135
 32218,-0.154711709\H,2.8086354943,-1.6687825589,-0.8853060571\H,4.2750
 848909,-1.3345692126,0.037279592\H,2.3241184718,-1.9911790728,1.489766
 131\H,2.9096071501,-0.37096527,1.8847750325\H,-1.3005279934,-1.8330561
 874,-1.1296994754\\Version=ES64L-G16RevC.02\HF=-661.2988365\MP2=-663.3
 337658\RMSD=7.503e-09\RMSF=1.420e-03\Dipole=1.9402442,1.6773177,0.4478
 215\PG=C01 [X(C9H13N3O2)]\\@
 The archive entry for this job was punched.


 OF ALL THE WONDERS OF THE UNIVERSE, THE GREATEST IS MAN.

                                    -- ARISTOTLE
 Job cpu time:       0 days  1 hours  7 minutes 44.9 seconds.
 Elapsed time:       0 days  0 hours 20 minutes 14.5 seconds.
 File lengths (MBytes):  RWF=     36 Int=      0 D2E=      0 Chk=      7 Scr=      1
 Normal termination of Gaussian 16 at Sun Jul  2 16:42:24 2023.
