 Entering Gaussian System, Link 0=g16
 Initial command:
 /home/alexey/programs//g16/l1.exe "/home/alexey/tmp/Gau-1546379.inp" -scrdir="/home/alexey/tmp/"
 Entering Link 1 = /home/alexey/programs//g16/l1.exe PID=   1546381.
  
 Copyright (c) 1988-2021, Gaussian, Inc.  All Rights Reserved.
  
 This is part of the Gaussian(R) 16 program.  It is based on
 the Gaussian(R) 09 system (copyright 2009, Gaussian, Inc.),
 the Gaussian(R) 03 system (copyright 2003, Gaussian, Inc.),
 the Gaussian(R) 98 system (copyright 1998, Gaussian, Inc.),
 the Gaussian(R) 94 system (copyright 1995, Gaussian, Inc.),
 the Gaussian 92(TM) system (copyright 1992, Gaussian, Inc.),
 the Gaussian 90(TM) system (copyright 1990, Gaussian, Inc.),
 the Gaussian 88(TM) system (copyright 1988, Gaussian, Inc.),
 the Gaussian 86(TM) system (copyright 1986, Carnegie Mellon
 University), and the Gaussian 82(TM) system (copyright 1983,
 Carnegie Mellon University). Gaussian is a federally registered
 trademark of Gaussian, Inc.
  
 This software contains proprietary and confidential information,
 including trade secrets, belonging to Gaussian, Inc.
  
 This software is provided under written license and may be
 used, copied, transmitted, or stored only in accord with that
 written license.
  
 The following legend is applicable only to US Government
 contracts under FAR:
  
                    RESTRICTED RIGHTS LEGEND
  
 Use, reproduction and disclosure by the US Government is
 subject to restrictions as set forth in subparagraphs (a)
 and (c) of the Commercial Computer Software - Restricted
 Rights clause in FAR 52.227-19.
  
 Gaussian, Inc.
 340 Quinnipiac St., Bldg. 40, Wallingford CT 06492
  
  
 ---------------------------------------------------------------
 Warning -- This program may not be used in any manner that
 competes with the business of Gaussian, Inc. or will provide
 assistance to any competitor of Gaussian, Inc.  The licensee
 of this program is prohibited from giving any competitor of
 Gaussian, Inc. access to this program.  By using this program,
 the user acknowledges that Gaussian, Inc. is engaged in the
 business of creating and licensing software in the field of
 computational chemistry and represents and warrants to the
 licensee that it is not a competitor of Gaussian, Inc. and that
 it will not use this program in any manner prohibited above.
 ---------------------------------------------------------------
  

 Cite this work as:
 Gaussian 16, Revision C.02,
 M. J. Frisch, G. W. Trucks, H. B. Schlegel, G. E. Scuseria, 
 M. A. Robb, J. R. Cheeseman, G. Scalmani, V. Barone, 
 G. A. Petersson, H. Nakatsuji, X. Li, M. Caricato, A. V. Marenich, 
 J. Bloino, B. G. Janesko, R. Gomperts, B. Mennucci, H. P. Hratchian, 
 J. V. Ortiz, A. F. Izmaylov, J. L. Sonnenberg, D. Williams-Young, 
 F. Ding, F. Lipparini, F. Egidi, J. Goings, B. Peng, A. Petrone, 
 T. Henderson, D. Ranasinghe, V. G. Zakrzewski, J. Gao, N. Rega, 
 G. Zheng, W. Liang, M. Hada, M. Ehara, K. Toyota, R. Fukuda, 
 J. Hasegawa, M. Ishida, T. Nakajima, Y. Honda, O. Kitao, H. Nakai, 
 T. Vreven, K. Throssell, J. A. Montgomery, Jr., J. E. Peralta, 
 F. Ogliaro, M. J. Bearpark, J. J. Heyd, E. N. Brothers, K. N. Kudin, 
 V. N. Staroverov, T. A. Keith, R. Kobayashi, J. Normand, 
 K. Raghavachari, A. P. Rendell, J. C. Burant, S. S. Iyengar, 
 J. Tomasi, M. Cossi, J. M. Millam, M. Klene, C. Adamo, R. Cammi, 
 J. W. Ochterski, R. L. Martin, K. Morokuma, O. Farkas, 
 J. B. Foresman, and D. J. Fox, Gaussian, Inc., Wallingford CT, 2019.
 
 ******************************************
 Gaussian 16:  ES64L-G16RevC.02  7-Dec-2021
                 2-Jul-2023 
 ******************************************
 %mem=8GB
 %NPROCS=4
 Will use up to    4 processors via shared memory.
 %NoSave
 ---------------------------------------------------------
 #MP2/6-31G* SCF=Tight Opt=(ModRedun, MaxCycle=20 ) NoSymm
 ---------------------------------------------------------
 1/6=20,18=120,19=15,38=1/1,3;
 2/9=110,12=2,15=1,17=6,18=5,40=1/2;
 3/5=1,6=6,7=1,11=9,25=1,30=1,71=1/1,2,3;
 4//1;
 5/5=2,32=2,38=5/2;
 8/6=4,10=2/1;
 9/15=2,16=-3/6;
 10/5=1,31=1/2;
 6/7=2,8=2,9=2,10=2/1;
 7/12=2,30=1/1,2,3,16;
 1/6=20,18=20,19=15/3(2);
 2/9=110,15=1/2;
 99//99;
 2/9=110,15=1/2;
 3/5=1,6=6,7=1,11=9,25=1,30=1,71=1/1,2,3;
 4/5=5,16=3,69=1/1;
 5/5=2,32=2,38=5/2;
 8/6=4,10=2/1;
 9/15=2,16=-3/6;
 10/5=1,31=1/2;
 7/12=2,30=1/1,2,3,16;
 1/6=20,18=20,19=15/3(-8);
 2/9=110,15=1/2;
 6/7=2,8=2,9=2,10=2/1;
 99/9=10/99;
 --------
 MolName:
 --------
 Symbolic Z-matrix:
 Charge =  0 Multiplicity = 1
 8                    0    -3.56127  -1.50234  -0.06482 
 7                    0    -3.22967  -0.33474   0.13181 
 8                    0    -4.01959   0.56382   0.42344 
 6                    0    -1.75561   0.01575  -0.02472 
 6                    0    -1.3666    1.30616   0.36126 
 7                    0    -0.09137   1.78848   0.22207 
 6                    0     1.18043   1.0062    0.27613 
 1                    0     1.79999   1.50516   1.06641 
 6                    0     2.0284    1.04699  -1.01857 
 6                    0     3.42116   0.45116  -0.74107 
 6                    0     3.31052  -0.9623   -0.14855 
 6                    0     2.38331  -0.98554   1.08613 
 6                    0     0.96542  -0.4383    0.76045 
 1                    0     0.37941  -0.4718    1.70946 
 7                    0     0.35968  -1.30643  -0.25159 
 6                    0    -0.8655   -1.04348  -0.5878 
 1                    0    -2.11972   1.99106   0.78537 
 1                    0     0.11184   2.74174  -0.08859 
 1                    0     1.52377   0.47038  -1.82307 
 1                    0     2.14488   2.09484  -1.36817 
 1                    0     4.01512   0.42019  -1.68067 
 1                    0     3.95939   1.10241  -0.01656 
 1                    0     2.90313  -1.64945  -0.9243 
 1                    0     4.31972  -1.33498   0.13208 
 1                    0     2.29506  -2.03051   1.45644 
 1                    0     2.83593  -0.37721   1.89724 
 1                    0    -1.36581  -1.70326  -1.31279 
 
 The following ModRedundant input section has been read:
 D       5       6       7      13 F                                           
 D       1       2       4      16 F                                           
 D       7      13      15      16 F                                           
 D       7       9      10      11 F                                           
 D       9      10      11      12 F                                           
 D       6       7      13      15 F                                           
 

 GradGradGradGradGradGradGradGradGradGradGradGradGradGradGradGradGradGrad
 Berny optimization.
 Initialization pass.
                           ----------------------------
                           !    Initial Parameters    !
                           ! (Angstroms and Degrees)  !
 --------------------------                            --------------------------
 ! Name  Definition              Value          Derivative Info.                !
 --------------------------------------------------------------------------------
 ! R1    R(1,2)                  1.2296         estimate D2E/DX2                !
 ! R2    R(2,3)                  1.2314         estimate D2E/DX2                !
 ! R3    R(2,4)                  1.5232         estimate D2E/DX2                !
 ! R4    R(4,5)                  1.402          estimate D2E/DX2                !
 ! R5    R(4,16)                 1.4938         estimate D2E/DX2                !
 ! R6    R(5,6)                  1.3705         estimate D2E/DX2                !
 ! R7    R(5,17)                 1.1028         estimate D2E/DX2                !
 ! R8    R(6,7)                  1.4941         estimate D2E/DX2                !
 ! R9    R(6,18)                 1.023          estimate D2E/DX2                !
 ! R10   R(7,8)                  1.1213         estimate D2E/DX2                !
 ! R11   R(7,9)                  1.5482         estimate D2E/DX2                !
 ! R12   R(7,13)                 1.5386         estimate D2E/DX2                !
 ! R13   R(9,10)                 1.5401         estimate D2E/DX2                !
 ! R14   R(9,19)                 1.111          estimate D2E/DX2                !
 ! R15   R(9,20)                 1.1108         estimate D2E/DX2                !
 ! R16   R(10,11)                1.5366         estimate D2E/DX2                !
 ! R17   R(10,21)                1.112          estimate D2E/DX2                !
 ! R18   R(10,22)                1.113          estimate D2E/DX2                !
 ! R19   R(11,12)                1.5442         estimate D2E/DX2                !
 ! R20   R(11,23)                1.1135         estimate D2E/DX2                !
 ! R21   R(11,24)                1.1118         estimate D2E/DX2                !
 ! R22   R(12,13)                1.5543         estimate D2E/DX2                !
 ! R23   R(12,25)                1.1122         estimate D2E/DX2                !
 ! R24   R(12,26)                1.1103         estimate D2E/DX2                !
 ! R25   R(13,14)                1.1159         estimate D2E/DX2                !
 ! R26   R(13,15)                1.4645         estimate D2E/DX2                !
 ! R27   R(15,16)                1.2974         estimate D2E/DX2                !
 ! R28   R(16,27)                1.1006         estimate D2E/DX2                !
 ! A1    A(1,2,3)              123.902          estimate D2E/DX2                !
 ! A2    A(1,2,4)              117.5835         estimate D2E/DX2                !
 ! A3    A(3,2,4)              118.5026         estimate D2E/DX2                !
 ! A4    A(2,4,5)              116.8734         estimate D2E/DX2                !
 ! A5    A(2,4,16)             116.8867         estimate D2E/DX2                !
 ! A6    A(5,4,16)             126.2367         estimate D2E/DX2                !
 ! A7    A(4,5,6)              123.6532         estimate D2E/DX2                !
 ! A8    A(4,5,17)             119.2114         estimate D2E/DX2                !
 ! A9    A(6,5,17)             117.1257         estimate D2E/DX2                !
 ! A10   A(5,6,7)              127.1648         estimate D2E/DX2                !
 ! A11   A(5,6,18)             122.9308         estimate D2E/DX2                !
 ! A12   A(7,6,18)             109.2559         estimate D2E/DX2                !
 ! A13   A(6,7,8)              105.2386         estimate D2E/DX2                !
 ! A14   A(6,7,9)              114.9712         estimate D2E/DX2                !
 ! A15   A(6,7,13)             112.5808         estimate D2E/DX2                !
 ! A16   A(8,7,9)              105.9635         estimate D2E/DX2                !
 ! A17   A(8,7,13)             105.85           estimate D2E/DX2                !
 ! A18   A(9,7,13)             111.377          estimate D2E/DX2                !
 ! A19   A(7,9,10)             109.5388         estimate D2E/DX2                !
 ! A20   A(7,9,19)             110.0656         estimate D2E/DX2                !
 ! A21   A(7,9,20)             110.2119         estimate D2E/DX2                !
 ! A22   A(10,9,19)            109.9041         estimate D2E/DX2                !
 ! A23   A(10,9,20)            109.0779         estimate D2E/DX2                !
 ! A24   A(19,9,20)            108.0186         estimate D2E/DX2                !
 ! A25   A(9,10,11)            111.1151         estimate D2E/DX2                !
 ! A26   A(9,10,21)            109.9722         estimate D2E/DX2                !
 ! A27   A(9,10,22)            109.1626         estimate D2E/DX2                !
 ! A28   A(11,10,21)           109.7948         estimate D2E/DX2                !
 ! A29   A(11,10,22)           108.7869         estimate D2E/DX2                !
 ! A30   A(21,10,22)           107.9403         estimate D2E/DX2                !
 ! A31   A(10,11,12)           111.4308         estimate D2E/DX2                !
 ! A32   A(10,11,23)           108.9865         estimate D2E/DX2                !
 ! A33   A(10,11,24)           109.8955         estimate D2E/DX2                !
 ! A34   A(12,11,23)           109.1504         estimate D2E/DX2                !
 ! A35   A(12,11,24)           109.7648         estimate D2E/DX2                !
 ! A36   A(23,11,24)           107.5227         estimate D2E/DX2                !
 ! A37   A(11,12,13)           112.0179         estimate D2E/DX2                !
 ! A38   A(11,12,25)           109.1477         estimate D2E/DX2                !
 ! A39   A(11,12,26)           109.3334         estimate D2E/DX2                !
 ! A40   A(13,12,25)           109.1588         estimate D2E/DX2                !
 ! A41   A(13,12,26)           109.3921         estimate D2E/DX2                !
 ! A42   A(25,12,26)           107.6918         estimate D2E/DX2                !
 ! A43   A(7,13,12)            105.6057         estimate D2E/DX2                !
 ! A44   A(7,13,14)            111.6711         estimate D2E/DX2                !
 ! A45   A(7,13,15)            113.3777         estimate D2E/DX2                !
 ! A46   A(12,13,14)           106.8755         estimate D2E/DX2                !
 ! A47   A(12,13,15)           108.2641         estimate D2E/DX2                !
 ! A48   A(14,13,15)           110.6527         estimate D2E/DX2                !
 ! A49   A(13,15,16)           116.7132         estimate D2E/DX2                !
 ! A50   A(4,16,15)            127.499          estimate D2E/DX2                !
 ! A51   A(4,16,27)            113.7367         estimate D2E/DX2                !
 ! A52   A(15,16,27)           118.5873         estimate D2E/DX2                !
 ! D1    D(1,2,4,5)           -172.3498         estimate D2E/DX2                !
 ! D2    D(1,2,4,16)             8.258          Frozen                          !
 ! D3    D(3,2,4,5)              8.8576         estimate D2E/DX2                !
 ! D4    D(3,2,4,16)          -170.5345         estimate D2E/DX2                !
 ! D5    D(2,4,5,6)           -176.8483         estimate D2E/DX2                !
 ! D6    D(2,4,5,17)             1.9848         estimate D2E/DX2                !
 ! D7    D(16,4,5,6)             2.4795         estimate D2E/DX2                !
 ! D8    D(16,4,5,17)         -178.6873         estimate D2E/DX2                !
 ! D9    D(2,4,16,15)         -143.0247         estimate D2E/DX2                !
 ! D10   D(2,4,16,27)           32.0239         estimate D2E/DX2                !
 ! D11   D(5,4,16,15)           37.6475         estimate D2E/DX2                !
 ! D12   D(5,4,16,27)         -147.3039         estimate D2E/DX2                !
 ! D13   D(4,5,6,7)            -30.6723         estimate D2E/DX2                !
 ! D14   D(4,5,6,18)           139.0832         estimate D2E/DX2                !
 ! D15   D(17,5,6,7)           150.472          estimate D2E/DX2                !
 ! D16   D(17,5,6,18)          -39.7725         estimate D2E/DX2                !
 ! D17   D(5,6,7,8)           -124.9412         estimate D2E/DX2                !
 ! D18   D(5,6,7,9)            118.8717         estimate D2E/DX2                !
 ! D19   D(5,6,7,13)           -10.1152         Frozen                          !
 ! D20   D(18,6,7,8)            64.1566         estimate D2E/DX2                !
 ! D21   D(18,6,7,9)           -52.0305         estimate D2E/DX2                !
 ! D22   D(18,6,7,13)          178.9826         estimate D2E/DX2                !
 ! D23   D(6,7,9,10)           168.676          estimate D2E/DX2                !
 ! D24   D(6,7,9,19)           -70.3786         estimate D2E/DX2                !
 ! D25   D(6,7,9,20)            48.6603         estimate D2E/DX2                !
 ! D26   D(8,7,9,10)            52.9043         estimate D2E/DX2                !
 ! D27   D(8,7,9,19)           173.8497         estimate D2E/DX2                !
 ! D28   D(8,7,9,20)           -67.1115         estimate D2E/DX2                !
 ! D29   D(13,7,9,10)          -61.7432         estimate D2E/DX2                !
 ! D30   D(13,7,9,19)           59.2022         estimate D2E/DX2                !
 ! D31   D(13,7,9,20)          178.2411         estimate D2E/DX2                !
 ! D32   D(6,7,13,12)         -166.6053         estimate D2E/DX2                !
 ! D33   D(6,7,13,14)          -50.7998         estimate D2E/DX2                !
 ! D34   D(6,7,13,15)           75.0202         Frozen                          !
 ! D35   D(8,7,13,12)          -52.1501         estimate D2E/DX2                !
 ! D36   D(8,7,13,14)           63.6554         estimate D2E/DX2                !
 ! D37   D(8,7,13,15)         -170.5246         estimate D2E/DX2                !
 ! D38   D(9,7,13,12)           62.5677         estimate D2E/DX2                !
 ! D39   D(9,7,13,14)          178.3732         estimate D2E/DX2                !
 ! D40   D(9,7,13,15)          -55.8068         estimate D2E/DX2                !
 ! D41   D(7,9,10,11)           54.8121         Frozen                          !
 ! D42   D(7,9,10,21)          176.588          estimate D2E/DX2                !
 ! D43   D(7,9,10,22)          -65.1665         estimate D2E/DX2                !
 ! D44   D(19,9,10,11)         -66.2311         estimate D2E/DX2                !
 ! D45   D(19,9,10,21)          55.5448         estimate D2E/DX2                !
 ! D46   D(19,9,10,22)         173.7903         estimate D2E/DX2                !
 ! D47   D(20,9,10,11)         175.5189         estimate D2E/DX2                !
 ! D48   D(20,9,10,21)         -62.7052         estimate D2E/DX2                !
 ! D49   D(20,9,10,22)          55.5404         estimate D2E/DX2                !
 ! D50   D(9,10,11,12)         -52.8228         Frozen                          !
 ! D51   D(9,10,11,23)          67.6908         estimate D2E/DX2                !
 ! D52   D(9,10,11,24)        -174.7195         estimate D2E/DX2                !
 ! D53   D(21,10,11,12)       -174.702          estimate D2E/DX2                !
 ! D54   D(21,10,11,23)        -54.1884         estimate D2E/DX2                !
 ! D55   D(21,10,11,24)         63.4012         estimate D2E/DX2                !
 ! D56   D(22,10,11,12)         67.3787         estimate D2E/DX2                !
 ! D57   D(22,10,11,23)       -172.1077         estimate D2E/DX2                !
 ! D58   D(22,10,11,24)        -54.518          estimate D2E/DX2                !
 ! D59   D(10,11,12,13)         56.5284         estimate D2E/DX2                !
 ! D60   D(10,11,12,25)        177.5358         estimate D2E/DX2                !
 ! D61   D(10,11,12,26)        -64.9002         estimate D2E/DX2                !
 ! D62   D(23,11,12,13)        -63.8889         estimate D2E/DX2                !
 ! D63   D(23,11,12,25)         57.1185         estimate D2E/DX2                !
 ! D64   D(23,11,12,26)        174.6825         estimate D2E/DX2                !
 ! D65   D(24,11,12,13)        178.5008         estimate D2E/DX2                !
 ! D66   D(24,11,12,25)        -60.4919         estimate D2E/DX2                !
 ! D67   D(24,11,12,26)         57.0721         estimate D2E/DX2                !
 ! D68   D(11,12,13,7)         -59.6947         estimate D2E/DX2                !
 ! D69   D(11,12,13,14)       -178.7332         estimate D2E/DX2                !
 ! D70   D(11,12,13,15)         62.0417         estimate D2E/DX2                !
 ! D71   D(25,12,13,7)         179.3044         estimate D2E/DX2                !
 ! D72   D(25,12,13,14)         60.2659         estimate D2E/DX2                !
 ! D73   D(25,12,13,15)        -58.9592         estimate D2E/DX2                !
 ! D74   D(26,12,13,7)          61.7002         estimate D2E/DX2                !
 ! D75   D(26,12,13,14)        -57.3384         estimate D2E/DX2                !
 ! D76   D(26,12,13,15)       -176.5634         estimate D2E/DX2                !
 ! D77   D(7,13,15,16)         -67.1612         Frozen                          !
 ! D78   D(12,13,15,16)        176.0128         estimate D2E/DX2                !
 ! D79   D(14,13,15,16)         59.1997         estimate D2E/DX2                !
 ! D80   D(13,15,16,4)          -2.4963         estimate D2E/DX2                !
 ! D81   D(13,15,16,27)       -177.3339         estimate D2E/DX2                !
 --------------------------------------------------------------------------------
 Trust Radius=3.00D-01 FncErr=1.00D-07 GrdErr=1.00D-07 EigMax=2.50D+02 EigMin=1.00D-04
 Number of steps in this run=     20 maximum allowed number of steps=    162.
 GradGradGradGradGradGradGradGradGradGradGradGradGradGradGradGradGradGrad

                          Input orientation:                          
 ---------------------------------------------------------------------
 Center     Atomic      Atomic             Coordinates (Angstroms)
 Number     Number       Type             X           Y           Z
 ---------------------------------------------------------------------
      1          8           0       -3.561270   -1.502340   -0.064820
      2          7           0       -3.229670   -0.334740    0.131810
      3          8           0       -4.019590    0.563820    0.423440
      4          6           0       -1.755610    0.015750   -0.024720
      5          6           0       -1.366600    1.306160    0.361260
      6          7           0       -0.091370    1.788480    0.222070
      7          6           0        1.180430    1.006200    0.276130
      8          1           0        1.799990    1.505160    1.066410
      9          6           0        2.028400    1.046990   -1.018570
     10          6           0        3.421160    0.451160   -0.741070
     11          6           0        3.310520   -0.962300   -0.148550
     12          6           0        2.383310   -0.985540    1.086130
     13          6           0        0.965420   -0.438300    0.760450
     14          1           0        0.379410   -0.471800    1.709460
     15          7           0        0.359680   -1.306430   -0.251590
     16          6           0       -0.865500   -1.043480   -0.587800
     17          1           0       -2.119720    1.991060    0.785370
     18          1           0        0.111840    2.741740   -0.088590
     19          1           0        1.523770    0.470380   -1.823070
     20          1           0        2.144880    2.094840   -1.368170
     21          1           0        4.015120    0.420190   -1.680670
     22          1           0        3.959390    1.102410   -0.016560
     23          1           0        2.903130   -1.649450   -0.924300
     24          1           0        4.319720   -1.334980    0.132080
     25          1           0        2.295060   -2.030510    1.456440
     26          1           0        2.835930   -0.377210    1.897240
     27          1           0       -1.365810   -1.703260   -1.312790
 ---------------------------------------------------------------------
                    Distance matrix (angstroms):
                    1          2          3          4          5
     1  O    0.000000
     2  N    1.229598   0.000000
     3  O    2.171974   1.231435   0.000000
     4  C    2.359367   1.523220   2.372095   0.000000
     5  C    3.589679   2.493237   2.755593   1.401951   0.000000
     6  N    4.790825   3.790137   4.119618   2.444007   1.370481
     7  C    5.375197   4.611717   5.220882   3.113171   2.566045
     8  H    6.250428   5.436560   5.930181   4.006395   3.250251
     9  C    6.217164   5.556964   6.236267   4.045976   3.673843
    10  C    7.282019   6.753747   7.532167   5.244205   4.986863
    11  C    6.893486   6.576209   7.509110   5.161162   5.223147
    12  C    6.076989   5.730603   6.620937   4.400821   4.454116
    13  C    4.722730   4.243194   5.095895   2.868215   2.939526
    14  H    4.442864   3.941221   4.698676   2.793456   2.833255
    15  N    3.930281   3.738263   4.809522   2.504812   3.190808
    16  C    2.784104   2.570885   3.681617   1.493761   2.583142
    17  H    3.873594   2.658660   2.403646   2.165796   1.102791
    18  H    5.612888   4.547416   4.698321   3.304916   2.109275
    19  H    5.730681   5.202400   5.982005   3.767636   3.718073
    20  H    6.870122   6.085934   6.599589   4.619664   3.992923
    21  H    7.981778   7.506130   8.306893   6.017231   5.823859
    22  H    7.959107   7.332803   8.009232   5.817398   5.343260
    23  H    6.522945   6.360430   7.391821   5.028518   5.349663
    24  H    7.885226   7.615364   8.557711   6.225648   6.273944
    25  H    6.073697   5.928990   6.904523   4.773777   5.073514
    26  H    6.785261   6.317440   7.075011   4.993054   4.780610
    27  H    2.533346   2.726479   3.898294   2.183132   3.443698
                    6          7          8          9         10
     6  N    0.000000
     7  C    1.494108   0.000000
     8  H    2.090556   1.121320   0.000000
     9  C    2.565623   1.548213   2.146912   0.000000
    10  C    3.879939   2.522625   2.646902   1.540065   0.000000
    11  C    4.390559   2.931319   3.137864   2.537324   1.536617
    12  C    3.816520   2.463747   2.558171   2.947355   2.545565
    13  C    2.522936   1.538628   2.137090   2.549691   3.012700
    14  H    2.746421   2.209197   2.517922   3.531011   4.013626
    15  N    3.163269   2.510055   3.422960   2.985209   3.563899
    16  C    3.045515   3.022150   4.041882   3.595871   4.542345
    17  H    2.114840   3.481417   3.959698   4.620862   5.950014
    18  H    1.022990   2.070508   2.390189   2.722176   4.077264
    19  H    2.920387   2.193542   3.081584   1.111013   2.184304
    20  H    2.761075   2.195227   2.528607   1.110755   2.173437
    21  H    4.728202   3.493986   3.691938   2.185935   1.112023
    22  H    4.115373   2.795987   2.449090   2.176193   1.112984
    23  H    4.701123   3.385440   3.889911   2.836341   2.171288
    24  H    5.405721   3.918803   3.910039   3.499703   2.181765
    25  H    4.669411   3.443420   3.591404   3.958256   3.500834
    26  H    4.008178   2.698611   2.303642   3.344009   2.826547
    27  H    4.021472   4.043412   5.096748   4.378482   5.280480
                   11         12         13         14         15
    11  C    0.000000
    12  C    1.544245   0.000000
    13  C    2.569115   1.554333   0.000000
    14  H    3.504882   2.160575   1.115863   0.000000
    15  N    2.972625   2.446946   1.464512   2.131364   0.000000
    16  C    4.199842   3.655156   2.352932   2.674700   1.297400
    17  H    6.251564   5.406282   3.926894   3.628398   4.253957
    18  H    4.894391   4.520195   3.400312   3.692075   4.059024
    19  H    2.837087   3.364812   2.795001   3.830931   2.642292
    20  H    3.491747   3.945780   3.512684   4.379079   4.000291
    21  H    2.180626   3.506289   3.999593   5.050447   4.287858
    22  H    2.168290   2.838924   3.455631   4.274756   4.337702
    23  H    1.113521   2.180096   2.839012   3.833108   2.653175
    24  H    1.111813   2.186779   3.528486   4.331195   3.978685
    25  H    2.179042   1.112151   2.188030   2.482602   2.680924
    26  H    2.180097   1.110329   2.189710   2.465502   3.407746
    27  H    4.875709   4.508419   3.366464   3.700849   2.064203
                   16         17         18         19         20
    16  C    0.000000
    17  H    3.559086   0.000000
    18  H    3.941103   2.511411   0.000000
    19  H    3.086466   4.731960   3.187639   0.000000
    20  H    4.418192   4.778631   2.487781   1.797660   0.000000
    21  H    5.211252   6.795973   4.812474   2.495921   2.529804
    22  H    5.311377   6.195835   4.182850   3.097610   2.470671
    23  H    3.831841   6.434696   5.269939   2.684046   3.845994
    24  H    5.243063   7.277068   5.862985   3.859958   4.329474
    25  H    3.891309   6.009463   5.470643   4.195775   5.001948
    26  H    4.507763   5.603876   4.592607   4.034957   4.153491
    27  H    1.100559   4.314934   4.841502   3.651680   5.172386
                   21         22         23         24         25
    21  H    0.000000
    22  H    1.799387   0.000000
    23  H    2.468203   3.084220   0.000000
    24  H    2.541548   2.468360   1.794870   0.000000
    25  H    4.336588   3.841212   2.486540   2.517328   0.000000
    26  H    3.850685   2.667221   3.095836   2.496947   1.794504
    27  H    5.796446   6.157090   4.286918   5.877800   4.601923
                   26         27
    26  H    0.000000
    27  H    5.451359   0.000000
 Symmetry turned off by external request.
 Stoichiometry    C9H13N3O2
 Framework group  C1[X(C9H13N3O2)]
 Deg. of freedom    75
 Full point group                 C1      NOp   1
 Rotational constants (GHZ):           1.6885190           0.4029912           0.3578152
 Standard basis: 6-31G(d) (6D, 7F)
   236 basis functions,   444 primitive gaussians,   236 cartesian basis functions
    52 alpha electrons       52 beta electrons
       nuclear repulsion energy       919.1466689994 Hartrees.
 NAtoms=   27 NActive=   27 NUniq=   27 SFac= 1.00D+00 NAtFMM=   60 NAOKFM=F Big=F
 Integral buffers will be    131072 words long.
 Raffenetti 1 integral format.
 Two-electron integral symmetry is turned off.
 One-electron integrals computed using PRISM.
 NBasis=   236 RedAO= T EigKep=  1.34D-03  NBF=   236
 NBsUse=   236 1.00D-06 EigRej= -1.00D+00 NBFU=   236
 ExpMin= 1.61D-01 ExpMax= 5.48D+03 ExpMxC= 8.25D+02 IAcc=3 IRadAn=         5 AccDes= 0.00D+00
 Harris functional with IExCor=  205 and IRadAn=       5 diagonalized for initial guess.
 HarFok:  IExCor=  205 AccDes= 0.00D+00 IRadAn=         5 IDoV= 1 UseB2=F ITyADJ=14
 ICtDFT=  3500011 ScaDFX=  1.000000  1.000000  1.000000  1.000000
 FoFCou: FMM=F IPFlag=           0 FMFlag=      100000 FMFlg1=           0
         NFxFlg=           0 DoJE=T BraDBF=F KetDBF=T FulRan=T
         wScrn=  0.000000 ICntrl=       500 IOpCl=  0 I1Cent=   200000004 NGrid=           0
         NMat0=    1 NMatS0=      1 NMatT0=    0 NMatD0=    1 NMtDS0=    0 NMtDT0=    0
 Symmetry not used in FoFCou.
 Keep R1 ints in memory in canonical form, NReq=397720213.
 Requested convergence on RMS density matrix=1.00D-08 within 128 cycles.
 Requested convergence on MAX density matrix=1.00D-06.
 Requested convergence on             energy=1.00D-06.
 No special actions if energy rises.
 SCF Done:  E(RHF) =  -661.271228943     A.U. after   16 cycles
            NFock= 16  Conv=0.91D-08     -V/T= 2.0037
 ExpMin= 1.61D-01 ExpMax= 5.48D+03 ExpMxC= 8.25D+02 IAcc=3 IRadAn=         5 AccDes= 0.00D+00
 HarFok:  IExCor=  205 AccDes= 0.00D+00 IRadAn=         5 IDoV=-2 UseB2=F ITyADJ=14
 ICtDFT= 12500011 ScaDFX=  1.000000  1.000000  1.000000  1.000000
 Range of M.O.s used for correlation:    15   236
 NBasis=   236 NAE=    52 NBE=    52 NFC=    14 NFV=     0
 NROrb=    222 NOA=    38 NOB=    38 NVA=   184 NVB=   184
 Fully direct method using O(ONN) memory.
 JobTyp=1 Pass  1:  I=  15 to  52 NPSUse=  4 ParTrn=T ParDer=T DoDerP=T.
 Spin components of T(2) and E(2):
     alpha-alpha T2 =       0.9197555171D-01 E2=     -0.2717847328D+00
     alpha-beta  T2 =       0.5009695884D+00 E2=     -0.1494993506D+01
     beta-beta   T2 =       0.9197555171D-01 E2=     -0.2717847328D+00
 ANorm=    0.1298044950D+01
 E2 =    -0.2038562971D+01 EUMP2 =    -0.66330979191400D+03
          IDoAtm=111111111111111111111111111
          Differentiating once with respect to electric field.
                with respect to dipole field.
          Differentiating once with respect to nuclear coordinates.
 Keep R1 ints in memory in canonical form, NReq=397723379.
          There are     1 degrees of freedom in the 1st order CPHF.  IDoFFX=0 NUNeed=     1.
 LinEq1:  Iter=  0 NonCon=     1 RMS=4.58D-03 Max=1.05D-01 NDo=     1
 AX will form     1 AO Fock derivatives at one time.
 LinEq1:  Iter=  1 NonCon=     1 RMS=1.55D-03 Max=3.06D-02 NDo=     1
 LinEq1:  Iter=  2 NonCon=     1 RMS=6.37D-04 Max=1.64D-02 NDo=     1
 LinEq1:  Iter=  3 NonCon=     1 RMS=2.97D-04 Max=9.18D-03 NDo=     1
 LinEq1:  Iter=  4 NonCon=     1 RMS=9.22D-05 Max=2.14D-03 NDo=     1
 LinEq1:  Iter=  5 NonCon=     1 RMS=3.94D-05 Max=2.08D-03 NDo=     1
 LinEq1:  Iter=  6 NonCon=     1 RMS=1.62D-05 Max=6.01D-04 NDo=     1
 LinEq1:  Iter=  7 NonCon=     1 RMS=6.37D-06 Max=1.13D-04 NDo=     1
 LinEq1:  Iter=  8 NonCon=     1 RMS=2.57D-06 Max=6.53D-05 NDo=     1
 LinEq1:  Iter=  9 NonCon=     1 RMS=9.86D-07 Max=2.71D-05 NDo=     1
 LinEq1:  Iter= 10 NonCon=     1 RMS=4.75D-07 Max=1.46D-05 NDo=     1
 LinEq1:  Iter= 11 NonCon=     1 RMS=1.66D-07 Max=5.88D-06 NDo=     1
 LinEq1:  Iter= 12 NonCon=     1 RMS=5.81D-08 Max=9.53D-07 NDo=     1
 LinEq1:  Iter= 13 NonCon=     1 RMS=1.86D-08 Max=3.69D-07 NDo=     1
 LinEq1:  Iter= 14 NonCon=     1 RMS=6.43D-09 Max=1.54D-07 NDo=     1
 LinEq1:  Iter= 15 NonCon=     1 RMS=2.56D-09 Max=5.29D-08 NDo=     1
 LinEq1:  Iter= 16 NonCon=     1 RMS=9.58D-10 Max=1.55D-08 NDo=     1
 LinEq1:  Iter= 17 NonCon=     1 RMS=2.92D-10 Max=4.58D-09 NDo=     1
 LinEq1:  Iter= 18 NonCon=     1 RMS=9.69D-11 Max=1.28D-09 NDo=     1
 LinEq1:  Iter= 19 NonCon=     0 RMS=3.11D-11 Max=7.24D-10 NDo=     1
 Linear equations converged to 1.000D-10 1.000D-09 after    19 iterations.
 End of Minotr F.D. properties file   721 does not exist.
 End of Minotr F.D. properties file   722 does not exist.
 End of Minotr F.D. properties file   788 does not exist.

 **********************************************************************

            Population analysis using the SCF Density.

 **********************************************************************

 Alpha  occ. eigenvalues --  -20.60014 -20.59529 -15.85395 -15.62085 -15.57677
 Alpha  occ. eigenvalues --  -11.35583 -11.30778 -11.30380 -11.29918 -11.27757
 Alpha  occ. eigenvalues --  -11.24527 -11.23800 -11.23401 -11.22838  -1.58644
 Alpha  occ. eigenvalues --   -1.38160  -1.28232  -1.22921  -1.13135  -1.08294
 Alpha  occ. eigenvalues --   -1.01774  -1.00486  -0.93375  -0.88955  -0.84835
 Alpha  occ. eigenvalues --   -0.81506  -0.78188  -0.76790  -0.74032  -0.70870
 Alpha  occ. eigenvalues --   -0.70462  -0.69892  -0.67494  -0.64470  -0.63485
 Alpha  occ. eigenvalues --   -0.61551  -0.60811  -0.57419  -0.56233  -0.54945
 Alpha  occ. eigenvalues --   -0.53034  -0.50673  -0.48952  -0.48490  -0.47696
 Alpha  occ. eigenvalues --   -0.47075  -0.45991  -0.45679  -0.44079  -0.42122
 Alpha  occ. eigenvalues --   -0.40765  -0.33942
 Alpha virt. eigenvalues --    0.06640   0.11519   0.19097   0.21341   0.22882
 Alpha virt. eigenvalues --    0.24092   0.26155   0.27327   0.28572   0.28920
 Alpha virt. eigenvalues --    0.29816   0.31045   0.31928   0.32192   0.33371
 Alpha virt. eigenvalues --    0.33683   0.34260   0.35794   0.37539   0.38504
 Alpha virt. eigenvalues --    0.40812   0.42396   0.44771   0.45387   0.45837
 Alpha virt. eigenvalues --    0.46046   0.49343   0.52884   0.57535   0.58665
 Alpha virt. eigenvalues --    0.63393   0.69060   0.70002   0.72153   0.73821
 Alpha virt. eigenvalues --    0.75202   0.75669   0.76019   0.77409   0.79804
 Alpha virt. eigenvalues --    0.80288   0.83555   0.84977   0.85791   0.88174
 Alpha virt. eigenvalues --    0.88505   0.90590   0.91058   0.92094   0.93774
 Alpha virt. eigenvalues --    0.95888   0.97146   0.98245   1.00082   1.01824
 Alpha virt. eigenvalues --    1.02671   1.05146   1.05436   1.06589   1.07976
 Alpha virt. eigenvalues --    1.09285   1.10440   1.10812   1.11551   1.13212
 Alpha virt. eigenvalues --    1.13683   1.14366   1.14680   1.16190   1.17274
 Alpha virt. eigenvalues --    1.17815   1.19496   1.20506   1.21905   1.22971
 Alpha virt. eigenvalues --    1.23334   1.24757   1.25871   1.27039   1.27478
 Alpha virt. eigenvalues --    1.28830   1.31598   1.32865   1.35533   1.40644
 Alpha virt. eigenvalues --    1.42315   1.44365   1.46563   1.48120   1.51080
 Alpha virt. eigenvalues --    1.52185   1.55412   1.60769   1.62265   1.66161
 Alpha virt. eigenvalues --    1.69405   1.69961   1.71645   1.74274   1.75822
 Alpha virt. eigenvalues --    1.78892   1.81389   1.84203   1.87422   1.92345
 Alpha virt. eigenvalues --    1.93405   1.96341   1.97780   1.99194   1.99643
 Alpha virt. eigenvalues --    2.03422   2.04449   2.05941   2.08794   2.11940
 Alpha virt. eigenvalues --    2.12266   2.16024   2.17595   2.17867   2.18950
 Alpha virt. eigenvalues --    2.21442   2.22636   2.24674   2.25008   2.27177
 Alpha virt. eigenvalues --    2.29563   2.32665   2.34092   2.36091   2.37146
 Alpha virt. eigenvalues --    2.38656   2.39415   2.40694   2.43073   2.45894
 Alpha virt. eigenvalues --    2.48305   2.50125   2.53083   2.56037   2.57442
 Alpha virt. eigenvalues --    2.61452   2.62665   2.67429   2.67930   2.68922
 Alpha virt. eigenvalues --    2.70610   2.71144   2.75568   2.78631   2.80752
 Alpha virt. eigenvalues --    2.82417   2.86934   2.90492   2.91969   2.95502
 Alpha virt. eigenvalues --    2.98118   2.98475   3.02443   3.02676   3.05854
 Alpha virt. eigenvalues --    3.06681   3.11414   3.20414   3.22065   3.26790
 Alpha virt. eigenvalues --    3.27782   3.32710   3.36086   3.43001   3.57175
 Alpha virt. eigenvalues --    4.08716   4.22531   4.32191   4.36133   4.42466
 Alpha virt. eigenvalues --    4.52826   4.59278   4.60396   4.70760   4.77247
 Alpha virt. eigenvalues --    4.93826   4.99210   5.02084   5.10948
          Condensed to atoms (all electrons):
               1          2          3          4          5          6
     1  O    8.298425   0.312936  -0.088679  -0.079532   0.003212  -0.000019
     2  N    0.312936   5.691569   0.307341   0.260090  -0.042329   0.001120
     3  O   -0.088679   0.307341   8.327899  -0.085073   0.007309   0.000410
     4  C   -0.079532   0.260090  -0.085073   5.229749   0.575642  -0.058100
     5  C    0.003212  -0.042329   0.007309   0.575642   4.667605   0.306283
     6  N   -0.000019   0.001120   0.000410  -0.058100   0.306283   7.220997
     7  C    0.000003  -0.000090   0.000000   0.001697  -0.031788   0.197486
     8  H   -0.000000   0.000003  -0.000000   0.000016   0.000929  -0.054727
     9  C   -0.000000  -0.000003   0.000000   0.000300   0.002623  -0.052927
    10  C   -0.000000   0.000000  -0.000000  -0.000010  -0.000086   0.003230
    11  C    0.000000  -0.000000  -0.000000  -0.000026   0.000014  -0.000156
    12  C   -0.000000   0.000002  -0.000000   0.000120  -0.000037   0.003596
    13  C   -0.000026  -0.000068  -0.000003  -0.014882   0.000659  -0.042175
    14  H   -0.000007  -0.000020  -0.000001   0.003421   0.006523  -0.005755
    15  N   -0.000024   0.001575  -0.000014  -0.059662  -0.004827   0.002097
    16  C    0.004813  -0.030339   0.001830   0.323277  -0.039256  -0.002502
    17  H    0.000079  -0.002758   0.009641  -0.032269   0.381205  -0.034609
    18  H    0.000000  -0.000039   0.000009   0.000632  -0.021974   0.326587
    19  H    0.000000   0.000001   0.000000  -0.000376   0.000124   0.001246
    20  H    0.000000  -0.000000   0.000000  -0.000018   0.000048  -0.002525
    21  H   -0.000000  -0.000000   0.000000  -0.000000   0.000001  -0.000054
    22  H   -0.000000   0.000000  -0.000000   0.000000  -0.000003  -0.000099
    23  H   -0.000000  -0.000000   0.000000   0.000022  -0.000000  -0.000024
    24  H   -0.000000   0.000000   0.000000   0.000000  -0.000000   0.000004
    25  H    0.000000  -0.000000   0.000000   0.000017  -0.000000  -0.000071
    26  H   -0.000000  -0.000000   0.000000   0.000010  -0.000003  -0.000065
    27  H    0.004185  -0.000022  -0.000018  -0.062456   0.002143   0.000122
               7          8          9         10         11         12
     1  O    0.000003  -0.000000  -0.000000  -0.000000   0.000000  -0.000000
     2  N   -0.000090   0.000003  -0.000003   0.000000  -0.000000   0.000002
     3  O    0.000000  -0.000000   0.000000  -0.000000  -0.000000  -0.000000
     4  C    0.001697   0.000016   0.000300  -0.000010  -0.000026   0.000120
     5  C   -0.031788   0.000929   0.002623  -0.000086   0.000014  -0.000037
     6  N    0.197486  -0.054727  -0.052927   0.003230  -0.000156   0.003596
     7  C    4.975976   0.420019   0.338676  -0.048888  -0.007535  -0.062996
     8  H    0.420019   0.557161  -0.062870   0.001903  -0.000436  -0.002676
     9  C    0.338676  -0.062870   5.183011   0.317082  -0.052908  -0.006907
    10  C   -0.048888   0.001903   0.317082   5.126542   0.332718  -0.059552
    11  C   -0.007535  -0.000436  -0.052908   0.332718   5.122271   0.331219
    12  C   -0.062996  -0.002676  -0.006907  -0.059552   0.331219   5.135765
    13  C    0.340934  -0.044046  -0.045404  -0.002630  -0.047813   0.365339
    14  H   -0.039364  -0.000760   0.003810  -0.000393   0.003944  -0.040941
    15  N   -0.056259   0.004107  -0.012373   0.001518  -0.007437  -0.073205
    16  C   -0.004563   0.000133  -0.001329   0.000019  -0.000024   0.003365
    17  H    0.001589   0.000009  -0.000063   0.000001   0.000000   0.000001
    18  H   -0.026588  -0.001562   0.000612  -0.000124   0.000011  -0.000122
    19  H   -0.035193   0.004287   0.384590  -0.032463  -0.002425   0.000698
    20  H   -0.041027  -0.001972   0.397648  -0.037598   0.004166  -0.000342
    21  H    0.004012  -0.000082  -0.035924   0.400361  -0.035981   0.004196
    22  H   -0.004027   0.003520  -0.045574   0.396000  -0.045495  -0.001336
    23  H    0.000370   0.000036  -0.002036  -0.040211   0.396893  -0.037094
    24  H   -0.000138  -0.000093   0.004392  -0.038470   0.400360  -0.037722
    25  H    0.004908   0.000005  -0.000364   0.004111  -0.034261   0.396047
    26  H   -0.004486   0.001765   0.000969  -0.002378  -0.042252   0.394921
    27  H   -0.000402   0.000010  -0.000060   0.000005   0.000003  -0.000024
              13         14         15         16         17         18
     1  O   -0.000026  -0.000007  -0.000024   0.004813   0.000079   0.000000
     2  N   -0.000068  -0.000020   0.001575  -0.030339  -0.002758  -0.000039
     3  O   -0.000003  -0.000001  -0.000014   0.001830   0.009641   0.000009
     4  C   -0.014882   0.003421  -0.059662   0.323277  -0.032269   0.000632
     5  C    0.000659   0.006523  -0.004827  -0.039256   0.381205  -0.021974
     6  N   -0.042175  -0.005755   0.002097  -0.002502  -0.034609   0.326587
     7  C    0.340934  -0.039364  -0.056259  -0.004563   0.001589  -0.026588
     8  H   -0.044046  -0.000760   0.004107   0.000133   0.000009  -0.001562
     9  C   -0.045404   0.003810  -0.012373  -0.001329  -0.000063   0.000612
    10  C   -0.002630  -0.000393   0.001518   0.000019   0.000001  -0.000124
    11  C   -0.047813   0.003944  -0.007437  -0.000024   0.000000   0.000011
    12  C    0.365339  -0.040941  -0.073205   0.003365   0.000001  -0.000122
    13  C    5.047160   0.398778   0.236339  -0.072521  -0.000043   0.003423
    14  H    0.398778   0.521994  -0.035597  -0.005407   0.000135   0.000012
    15  N    0.236339  -0.035597   6.917250   0.579149  -0.000088  -0.000116
    16  C   -0.072521  -0.005407   0.579149   4.717067   0.001528  -0.000248
    17  H   -0.000043   0.000135  -0.000088   0.001528   0.392563  -0.001307
    18  H    0.003423   0.000012  -0.000116  -0.000248  -0.001307   0.319732
    19  H   -0.006660   0.000068   0.006977   0.002667   0.000008  -0.000101
    20  H    0.003796  -0.000046   0.000059  -0.000030   0.000001   0.003252
    21  H   -0.000347   0.000009  -0.000019   0.000002  -0.000000  -0.000000
    22  H    0.000353  -0.000046  -0.000002  -0.000002  -0.000000   0.000002
    23  H   -0.005540   0.000005   0.006358   0.000006   0.000000   0.000000
    24  H    0.004102  -0.000058   0.000043   0.000006   0.000000  -0.000000
    25  H   -0.034962  -0.002661   0.000329  -0.000069  -0.000000   0.000002
    26  H   -0.044497  -0.001012   0.004146  -0.000092   0.000000  -0.000001
    27  H    0.005030  -0.000195  -0.038844   0.400390  -0.000055   0.000004
              19         20         21         22         23         24
     1  O    0.000000   0.000000  -0.000000  -0.000000  -0.000000  -0.000000
     2  N    0.000001  -0.000000  -0.000000   0.000000  -0.000000   0.000000
     3  O    0.000000   0.000000   0.000000  -0.000000   0.000000   0.000000
     4  C   -0.000376  -0.000018  -0.000000   0.000000   0.000022   0.000000
     5  C    0.000124   0.000048   0.000001  -0.000003  -0.000000  -0.000000
     6  N    0.001246  -0.002525  -0.000054  -0.000099  -0.000024   0.000004
     7  C   -0.035193  -0.041027   0.004012  -0.004027   0.000370  -0.000138
     8  H    0.004287  -0.001972  -0.000082   0.003520   0.000036  -0.000093
     9  C    0.384590   0.397648  -0.035924  -0.045574  -0.002036   0.004392
    10  C   -0.032463  -0.037598   0.400361   0.396000  -0.040211  -0.038470
    11  C   -0.002425   0.004166  -0.035981  -0.045495   0.396893   0.400360
    12  C    0.000698  -0.000342   0.004196  -0.001336  -0.037094  -0.037722
    13  C   -0.006660   0.003796  -0.000347   0.000353  -0.005540   0.004102
    14  H    0.000068  -0.000046   0.000009  -0.000046   0.000005  -0.000058
    15  N    0.006977   0.000059  -0.000019  -0.000002   0.006358   0.000043
    16  C    0.002667  -0.000030   0.000002  -0.000002   0.000006   0.000006
    17  H    0.000008   0.000001  -0.000000  -0.000000   0.000000   0.000000
    18  H   -0.000101   0.003252  -0.000000   0.000002   0.000000  -0.000000
    19  H    0.509262  -0.024207  -0.002594   0.003771   0.001669  -0.000068
    20  H   -0.024207   0.550415  -0.002556  -0.002983  -0.000051  -0.000090
    21  H   -0.002594  -0.002556   0.526752  -0.024747  -0.002831  -0.002032
    22  H    0.003771  -0.002983  -0.024747   0.567771   0.004072  -0.003585
    23  H    0.001669  -0.000051  -0.002831   0.004072   0.511870  -0.025039
    24  H   -0.000068  -0.000090  -0.002032  -0.003585  -0.025039   0.540812
    25  H   -0.000027   0.000011  -0.000086  -0.000081  -0.002136  -0.002379
    26  H    0.000026  -0.000036  -0.000075   0.002481   0.003844  -0.002802
    27  H    0.000069  -0.000000  -0.000000   0.000000  -0.000017  -0.000000
              25         26         27
     1  O    0.000000  -0.000000   0.004185
     2  N   -0.000000  -0.000000  -0.000022
     3  O    0.000000   0.000000  -0.000018
     4  C    0.000017   0.000010  -0.062456
     5  C   -0.000000  -0.000003   0.002143
     6  N   -0.000071  -0.000065   0.000122
     7  C    0.004908  -0.004486  -0.000402
     8  H    0.000005   0.001765   0.000010
     9  C   -0.000364   0.000969  -0.000060
    10  C    0.004111  -0.002378   0.000005
    11  C   -0.034261  -0.042252   0.000003
    12  C    0.396047   0.394921  -0.000024
    13  C   -0.034962  -0.044497   0.005030
    14  H   -0.002661  -0.001012  -0.000195
    15  N    0.000329   0.004146  -0.038844
    16  C   -0.000069  -0.000092   0.400390
    17  H   -0.000000   0.000000  -0.000055
    18  H    0.000002  -0.000001   0.000004
    19  H   -0.000027   0.000026   0.000069
    20  H    0.000011  -0.000036  -0.000000
    21  H   -0.000086  -0.000075  -0.000000
    22  H   -0.000081   0.002481   0.000000
    23  H   -0.002136   0.003844  -0.000017
    24  H   -0.002379  -0.002802  -0.000000
    25  H    0.512451  -0.023148  -0.000007
    26  H   -0.023148   0.559568   0.000001
    27  H   -0.000007   0.000001   0.454424
 Mulliken charges:
               1
     1  O   -0.455366
     2  N    0.501030
     3  O   -0.480652
     4  C   -0.002590
     5  C    0.185983
     6  N   -0.809368
     7  C    0.077672
     8  H    0.175321
     9  C   -0.314971
    10  C   -0.320687
    11  C   -0.314852
    12  C   -0.312314
    13  C   -0.044295
    14  H    0.193565
    15  N   -0.471478
    16  C    0.122128
    17  H    0.284433
    18  H    0.397901
    19  H    0.188650
    20  H    0.154088
    21  H    0.171996
    22  H    0.150010
    23  H    0.189836
    24  H    0.162756
    25  H    0.182372
    26  H    0.153115
    27  H    0.235714
 Sum of Mulliken charges =  -0.00000
 Mulliken charges with hydrogens summed into heavy atoms:
               1
     1  O   -0.455366
     2  N    0.501030
     3  O   -0.480652
     4  C   -0.002590
     5  C    0.470416
     6  N   -0.411466
     7  C    0.252992
     9  C    0.027768
    10  C    0.001319
    11  C    0.037740
    12  C    0.023174
    13  C    0.149270
    15  N   -0.471478
    16  C    0.357842
 Electronic spatial extent (au):  <R**2>=           3105.7317
 Charge=             -0.0000 electrons
 Dipole moment (field-independent basis, Debye):
    X=              5.1287    Y=              4.3496    Z=              0.1770  Tot=              6.7271
 Quadrupole moment (field-independent basis, Debye-Ang):
   XX=           -104.9444   YY=            -81.1239   ZZ=            -81.7967
   XY=             -2.4698   XZ=              2.1758   YZ=             -0.4032
 Traceless Quadrupole moment (field-independent basis, Debye-Ang):
   XX=            -15.6561   YY=              8.1644   ZZ=              7.4916
   XY=             -2.4698   XZ=              2.1758   YZ=             -0.4032
 Octapole moment (field-independent basis, Debye-Ang**2):
  XXX=             96.1737  YYY=             36.9241  ZZZ=             -7.2603  XYY=             -1.1123
  XXY=             13.5613  XXZ=             -8.9829  XZZ=             -9.3648  YZZ=             -2.1259
  YYZ=             -1.8892  XYZ=             -2.8299
 Hexadecapole moment (field-independent basis, Debye-Ang**3):
 XXXX=          -3515.2410 YYYY=           -622.9725 ZZZZ=           -302.6921 XXXY=            -60.7460
 XXXZ=             96.4079 YYYX=            -37.1751 YYYZ=              4.1326 ZZZX=             58.4800
 ZZZY=             12.9483 XXYY=           -653.3020 XXZZ=           -542.0900 YYZZ=           -162.1583
 XXYZ=              2.7619 YYXZ=             21.3134 ZZXY=             -1.4641
 N-N= 9.191466689994D+02 E-N=-3.384312102795D+03  KE= 6.588591281222D+02
 Calling FoFJK, ICntrl=  10002127 FMM=F ISym2X=0 I1Cent= 0 IOpClX= 0 NMat=1 NMatS=1 NMatT=0.
 -------------------------------------------------------------------
 Center     Atomic                   Forces (Hartrees/Bohr)
 Number     Number              X              Y              Z
 -------------------------------------------------------------------
      1        8           0.002127965   -0.019888953   -0.005652254
      2        7           0.037803008    0.014289015   -0.000968019
      3        8          -0.005398571    0.014576949    0.004873853
      4        6          -0.001404569    0.013972819    0.012089478
      5        6          -0.003468488   -0.021389660   -0.017217740
      6        7           0.019959859   -0.012104866   -0.000843365
      7        6          -0.003783226    0.006238706    0.003904287
      8        1          -0.007593321   -0.003112850   -0.007700469
      9        6          -0.004722711   -0.001070044   -0.002304331
     10        6           0.002998401   -0.000568911    0.001222700
     11        6          -0.001606825   -0.004680183   -0.002625008
     12        6           0.001745429   -0.008337739   -0.002169848
     13        6           0.015687713   -0.003647409    0.008971457
     14        1          -0.000092426    0.005358798   -0.010470517
     15        7          -0.006887335    0.010933216   -0.006848805
     16        6          -0.020868562    0.001668159    0.010492355
     17        1           0.004515838   -0.004128311   -0.011408342
     18        1          -0.015689924   -0.001271053    0.011312467
     19        1           0.002892061    0.006221029    0.007663558
     20        1          -0.003564839   -0.007156395    0.002524530
     21        1          -0.004897289    0.002440956    0.009347830
     22        1          -0.003560040   -0.004081696   -0.007663551
     23        1           0.003749439    0.006152379    0.009328048
     24        1          -0.009261883    0.002649791   -0.002632853
     25        1          -0.000546799    0.010476091   -0.002400940
     26        1          -0.004641613   -0.004928575   -0.004645606
     27        1           0.006508707    0.001388735    0.003821086
 -------------------------------------------------------------------
 Cartesian Forces:  Max     0.037803008 RMS     0.009280312

 GradGradGradGradGradGradGradGradGradGradGradGradGradGradGradGradGradGrad
 Berny optimization.
 FormGI is forming the generalized inverse of G from B-inverse, IUseBI=4.
 Internal  Forces:  Max     0.037669947 RMS     0.006777936
 Search for a local minimum.
 Step number   1 out of a maximum of   20
 All quantities printed in internal units (Hartrees-Bohrs-Radians)
 Mixed Optimization -- RFO/linear search
 Second derivative matrix not updated -- first step.
 ITU=  0
     Eigenvalues ---    0.00232   0.00763   0.01009   0.01150   0.01197
     Eigenvalues ---    0.01479   0.01535   0.01938   0.01991   0.02073
     Eigenvalues ---    0.02631   0.03591   0.04497   0.04665   0.04845
     Eigenvalues ---    0.05025   0.05127   0.05296   0.05850   0.06252
     Eigenvalues ---    0.07018   0.07695   0.07720   0.07863   0.07985
     Eigenvalues ---    0.08052   0.08124   0.10422   0.11701   0.11774
     Eigenvalues ---    0.12295   0.14801   0.15809   0.15978   0.15998
     Eigenvalues ---    0.19857   0.21054   0.22733   0.24998   0.25000
     Eigenvalues ---    0.25000   0.25236   0.25834   0.26622   0.27993
     Eigenvalues ---    0.28099   0.28425   0.30059   0.30664   0.31430
     Eigenvalues ---    0.31987   0.32230   0.32286   0.32373   0.32387
     Eigenvalues ---    0.32409   0.32493   0.32520   0.32565   0.32794
     Eigenvalues ---    0.33375   0.33620   0.35231   0.43794   0.43864
     Eigenvalues ---    0.48494   0.65158   0.90491   0.912541000.00000
     Eigenvalues --- 1000.000001000.000001000.000001000.000001000.00000
     Eigenvalues --- 1000.000001000.000001000.000001000.000001000.00000
     Eigenvalues --- 1000.000001000.000001000.000001000.000001000.00000
     Eigenvalues --- 1000.000001000.000001000.000001000.000001000.00000
     Eigenvalues --- 1000.000001000.000001000.000001000.000001000.00000
     Eigenvalues --- 1000.000001000.000001000.000001000.000001000.00000
     Eigenvalues --- 1000.000001000.000001000.000001000.000001000.00000
     Eigenvalues --- 1000.000001000.000001000.000001000.000001000.00000
     Eigenvalues --- 1000.000001000.000001000.000001000.000001000.00000
     Eigenvalues --- 1000.000001000.000001000.000001000.000001000.00000
     Eigenvalues --- 1000.000001000.000001000.000001000.000001000.00000
     Eigenvalues --- 1000.000001000.000001000.000001000.000001000.00000
     Eigenvalues --- 1000.000001000.000001000.000001000.000001000.00000
     Eigenvalues --- 1000.000001000.000001000.000001000.000001000.00000
     Eigenvalues --- 1000.000001000.000001000.000001000.000001000.00000
     Eigenvalues --- 1000.000001000.000001000.000001000.000001000.00000
     Eigenvalues --- 1000.000001000.000001000.000001000.000001000.00000
     Eigenvalues --- 1000.000001000.000001000.000001000.000001000.00000
     Eigenvalues --- 1000.00000
 RFO step:  Lambda=-2.38761723D-02 EMin= 2.31614560D-03
 Linear search not attempted -- first point.
 Iteration  1 RMS(Cart)=  0.05585122 RMS(Int)=  0.00116523
 Iteration  2 RMS(Cart)=  0.00127035 RMS(Int)=  0.00040596
 Iteration  3 RMS(Cart)=  0.00000131 RMS(Int)=  0.00040596
 Iteration  4 RMS(Cart)=  0.00000000 RMS(Int)=  0.00040596
 Iteration  1 RMS(Cart)=  0.00001113 RMS(Int)=  0.00001164
 Iteration  2 RMS(Cart)=  0.00000691 RMS(Int)=  0.00001279
 Iteration  3 RMS(Cart)=  0.00000457 RMS(Int)=  0.00001453
 Iteration  4 RMS(Cart)=  0.00000325 RMS(Int)=  0.00001600
 Iteration  5 RMS(Cart)=  0.00000246 RMS(Int)=  0.00001714
 Iteration  6 RMS(Cart)=  0.00000197 RMS(Int)=  0.00001800
 Iteration  7 RMS(Cart)=  0.00000163 RMS(Int)=  0.00001868
 Iteration  8 RMS(Cart)=  0.00000139 RMS(Int)=  0.00001922
 Iteration  9 RMS(Cart)=  0.00000120 RMS(Int)=  0.00001967
 Iteration 10 RMS(Cart)=  0.00000105 RMS(Int)=  0.00002005
 Iteration 11 RMS(Cart)=  0.00000092 RMS(Int)=  0.00002037
 Variable       Old X    -DE/DX   Delta X   Delta X   Delta X     New X
                                 (Linear)    (Quad)   (Total)
    R1        2.32360   0.01922   0.00000   0.02052   0.02052   2.34412
    R2        2.32707   0.01525   0.00000   0.01642   0.01642   2.34350
    R3        2.87847  -0.03566   0.00000  -0.10991  -0.10991   2.76855
    R4        2.64930  -0.03767   0.00000  -0.07979  -0.07954   2.56977
    R5        2.82280  -0.02140   0.00000  -0.05503  -0.05479   2.76801
    R6        2.58983  -0.01598   0.00000  -0.03467  -0.03463   2.55521
    R7        2.08397  -0.01004   0.00000  -0.02806  -0.02806   2.05591
    R8        2.82346  -0.01831   0.00000  -0.05567  -0.05558   2.76788
    R9        1.93317  -0.00774   0.00000  -0.01673  -0.01673   1.91644
   R10        2.11899  -0.01101   0.00000  -0.03255  -0.03255   2.08644
   R11        2.92570  -0.01358   0.00000  -0.04544  -0.04554   2.88016
   R12        2.90759  -0.00782   0.00000  -0.01766  -0.01746   2.89012
   R13        2.91030  -0.00477   0.00000  -0.01375  -0.01378   2.89652
   R14        2.09951  -0.01009   0.00000  -0.02893  -0.02893   2.07058
   R15        2.09902  -0.00792   0.00000  -0.02269  -0.02269   2.07634
   R16        2.90378  -0.00183   0.00000  -0.00736  -0.00740   2.89639
   R17        2.10142  -0.01058   0.00000  -0.03043  -0.03043   2.07099
   R18        2.10323  -0.00910   0.00000  -0.02624  -0.02624   2.07699
   R19        2.91820  -0.00885   0.00000  -0.02873  -0.02864   2.88956
   R20        2.10425  -0.01167   0.00000  -0.03370  -0.03370   2.07055
   R21        2.10102  -0.00996   0.00000  -0.02862  -0.02862   2.07240
   R22        2.93726  -0.00995   0.00000  -0.03545  -0.03543   2.90183
   R23        2.10166  -0.01060   0.00000  -0.03049  -0.03049   2.07117
   R24        2.09822  -0.00799   0.00000  -0.02285  -0.02285   2.07537
   R25        2.10868  -0.00902   0.00000  -0.02623  -0.02623   2.08244
   R26        2.76753  -0.00355   0.00000  -0.01096  -0.01151   2.75602
   R27        2.45173  -0.00959   0.00000  -0.01199  -0.01226   2.43947
   R28        2.07976  -0.00631   0.00000  -0.01752  -0.01752   2.06224
    A1        2.16250   0.01042   0.00000   0.03827   0.03807   2.20057
    A2        2.05222  -0.00784   0.00000  -0.02837  -0.02858   2.02364
    A3        2.06826  -0.00258   0.00000  -0.00919  -0.00940   2.05886
    A4        2.03983  -0.00346   0.00000  -0.01463  -0.01482   2.02501
    A5        2.04006  -0.00464   0.00000  -0.01885  -0.01906   2.02100
    A6        2.20325   0.00809   0.00000   0.03331   0.03357   2.23681
    A7        2.15816   0.00658   0.00000   0.01127   0.01123   2.16939
    A8        2.08063  -0.00414   0.00000  -0.01054  -0.01081   2.06983
    A9        2.04423  -0.00243   0.00000  -0.00130  -0.00148   2.04275
   A10        2.21944  -0.00364   0.00000  -0.01469  -0.01499   2.20446
   A11        2.14555  -0.01257   0.00000  -0.06650  -0.06732   2.07823
   A12        1.90688   0.01619   0.00000   0.08930   0.08898   1.99585
   A13        1.83676   0.00122   0.00000  -0.00659  -0.00650   1.83026
   A14        2.00663  -0.00330   0.00000  -0.01383  -0.01394   1.99269
   A15        1.96491   0.00059   0.00000   0.00454   0.00427   1.96917
   A16        1.84941   0.00247   0.00000   0.02220   0.02225   1.87166
   A17        1.84743  -0.00064   0.00000   0.00853   0.00814   1.85557
   A18        1.94390   0.00010   0.00000  -0.01097  -0.01057   1.93333
   A19        1.91181  -0.00022   0.00000  -0.00503  -0.00522   1.90660
   A20        1.92101  -0.00064   0.00000  -0.01004  -0.01000   1.91101
   A21        1.92356  -0.00148   0.00000  -0.00920  -0.00913   1.91443
   A22        1.91819  -0.00022   0.00000   0.00773   0.00778   1.92597
   A23        1.90377   0.00311   0.00000   0.02285   0.02282   1.92659
   A24        1.88528  -0.00052   0.00000  -0.00594  -0.00621   1.87907
   A25        1.93932  -0.00101   0.00000   0.00544   0.00541   1.94474
   A26        1.91938  -0.00075   0.00000  -0.00609  -0.00614   1.91324
   A27        1.90525   0.00050   0.00000  -0.00296  -0.00303   1.90222
   A28        1.91628   0.00109   0.00000   0.00767   0.00770   1.92398
   A29        1.89869   0.00142   0.00000   0.01001   0.01000   1.90869
   A30        1.88391  -0.00125   0.00000  -0.01455  -0.01461   1.86930
   A31        1.94483   0.00006   0.00000   0.00365   0.00365   1.94848
   A32        1.90217   0.00081   0.00000   0.00569   0.00569   1.90786
   A33        1.91804   0.00048   0.00000   0.00565   0.00564   1.92368
   A34        1.90503  -0.00061   0.00000  -0.01154  -0.01154   1.89350
   A35        1.91576  -0.00054   0.00000  -0.00058  -0.00062   1.91514
   A36        1.87662  -0.00021   0.00000  -0.00320  -0.00325   1.87338
   A37        1.95508  -0.00267   0.00000  -0.02052  -0.02044   1.93464
   A38        1.90499   0.00265   0.00000   0.01729   0.01714   1.92213
   A39        1.90823   0.00115   0.00000   0.01443   0.01432   1.92255
   A40        1.90518  -0.00006   0.00000  -0.00238  -0.00226   1.90292
   A41        1.90925  -0.00015   0.00000  -0.00402  -0.00395   1.90530
   A42        1.87958  -0.00086   0.00000  -0.00422  -0.00440   1.87518
   A43        1.84317   0.00392   0.00000   0.02430   0.02425   1.86742
   A44        1.94903  -0.00404   0.00000  -0.03947  -0.04008   1.90895
   A45        1.97881  -0.00006   0.00000   0.01552   0.01614   1.99495
   A46        1.86533   0.00276   0.00000   0.03767   0.03820   1.90353
   A47        1.88956  -0.00112   0.00000  -0.02744  -0.02770   1.86187
   A48        1.93125  -0.00093   0.00000  -0.00714  -0.00719   1.92407
   A49        2.03703  -0.00204   0.00000  -0.02216  -0.02274   2.01429
   A50        2.22528  -0.00344   0.00000  -0.01758  -0.01718   2.20810
   A51        1.98508   0.00650   0.00000   0.03338   0.03317   2.01825
   A52        2.06974  -0.00282   0.00000  -0.01635  -0.01655   2.05318
    D1       -3.00807  -0.00144   0.00000  -0.01596  -0.01588  -3.02395
    D2        0.14413  -0.00092   0.00000   0.00000  -0.00000   0.14413
    D3        0.15459  -0.00142   0.00000  -0.05212  -0.05208   0.10251
    D4       -2.97639  -0.00090   0.00000  -0.03616  -0.03620  -3.01259
    D5       -3.08659  -0.00346   0.00000  -0.02687  -0.02704  -3.11363
    D6        0.03464  -0.00306   0.00000  -0.06107  -0.06151  -0.02686
    D7        0.04328  -0.00413   0.00000  -0.04492  -0.04564  -0.00237
    D8       -3.11868  -0.00373   0.00000  -0.07913  -0.08011   3.08440
    D9       -2.49625  -0.00240   0.00000   0.00628   0.00586  -2.49039
   D10        0.55892   0.00091   0.00000  -0.00184  -0.00212   0.55680
   D11        0.65707  -0.00173   0.00000   0.02431   0.02440   0.68147
   D12       -2.57094   0.00158   0.00000   0.01619   0.01642  -2.55452
   D13       -0.53533   0.00377   0.00000   0.02790   0.02804  -0.50729
   D14        2.42746   0.00509   0.00000   0.09967   0.09721   2.52467
   D15        2.62623   0.00340   0.00000   0.06154   0.06212   2.68835
   D16       -0.69416   0.00472   0.00000   0.13331   0.13129  -0.56287
   D17       -2.18064  -0.00245   0.00000  -0.00854  -0.00798  -2.18861
   D18        2.07470  -0.00452   0.00000  -0.02406  -0.02355   2.05115
   D19       -0.17654  -0.00220   0.00000   0.00000  -0.00000  -0.17655
   D20        1.11974  -0.00141   0.00000  -0.06024  -0.06161   1.05814
   D21       -0.90810  -0.00348   0.00000  -0.07576  -0.07718  -0.98528
   D22        3.12384  -0.00116   0.00000  -0.05170  -0.05363   3.07020
   D23        2.94395   0.00330   0.00000   0.02212   0.02183   2.96579
   D24       -1.22834   0.00249   0.00000   0.02213   0.02189  -1.20645
   D25        0.84928   0.00053   0.00000   0.00282   0.00267   0.85195
   D26        0.92335   0.00197   0.00000   0.02318   0.02302   0.94637
   D27        3.03425   0.00115   0.00000   0.02319   0.02307   3.05732
   D28       -1.17132  -0.00081   0.00000   0.00388   0.00385  -1.16746
   D29       -1.07762   0.00129   0.00000   0.00604   0.00617  -1.07146
   D30        1.03327   0.00047   0.00000   0.00605   0.00622   1.03949
   D31        3.11089  -0.00149   0.00000  -0.01326  -0.01300   3.09789
   D32       -2.90781  -0.00330   0.00000  -0.00934  -0.00903  -2.91684
   D33       -0.88662   0.00020   0.00000   0.02957   0.02934  -0.85729
   D34        1.30935  -0.00442   0.00000   0.00000  -0.00001   1.30934
   D35       -0.91019  -0.00192   0.00000  -0.00993  -0.00984  -0.92003
   D36        1.11100   0.00158   0.00000   0.02898   0.02853   1.13953
   D37       -2.97622  -0.00304   0.00000  -0.00059  -0.00081  -2.97703
   D38        1.09201   0.00069   0.00000   0.01569   0.01578   1.10779
   D39        3.11320   0.00419   0.00000   0.05460   0.05415  -3.11584
   D40       -0.97401  -0.00043   0.00000   0.02503   0.02480  -0.94921
   D41        0.95665   0.00023   0.00000   0.00000  -0.00001   0.95664
   D42        3.08204   0.00043   0.00000   0.00917   0.00914   3.09118
   D43       -1.13737  -0.00123   0.00000  -0.01389  -0.01387  -1.15124
   D44       -1.15595   0.00130   0.00000   0.01073   0.01078  -1.14517
   D45        0.96944   0.00150   0.00000   0.01990   0.01993   0.98937
   D46        3.03321  -0.00016   0.00000  -0.00316  -0.00308   3.03014
   D47        3.06338   0.00020   0.00000  -0.00023  -0.00032   3.06307
   D48       -1.09441   0.00040   0.00000   0.00894   0.00883  -1.08558
   D49        0.96936  -0.00126   0.00000  -0.01413  -0.01418   0.95519
   D50       -0.92193  -0.00113   0.00000   0.00000  -0.00001  -0.92194
   D51        1.18143  -0.00131   0.00000  -0.00833  -0.00834   1.17309
   D52       -3.04943  -0.00082   0.00000  -0.00560  -0.00561  -3.05504
   D53       -3.04913  -0.00025   0.00000  -0.00114  -0.00115  -3.05028
   D54       -0.94577  -0.00044   0.00000  -0.00947  -0.00948  -0.95525
   D55        1.10656   0.00006   0.00000  -0.00674  -0.00675   1.09981
   D56        1.17598  -0.00021   0.00000   0.00615   0.00616   1.18214
   D57       -3.00385  -0.00040   0.00000  -0.00218  -0.00217  -3.00601
   D58       -0.95152   0.00010   0.00000   0.00056   0.00056  -0.95095
   D59        0.98661  -0.00048   0.00000  -0.01097  -0.01096   0.97565
   D60        3.09858  -0.00048   0.00000  -0.01550  -0.01561   3.08298
   D61       -1.13272   0.00067   0.00000  -0.00231  -0.00224  -1.13496
   D62       -1.11507  -0.00113   0.00000  -0.01276  -0.01274  -1.12781
   D63        0.99691  -0.00113   0.00000  -0.01730  -0.01738   0.97952
   D64        3.04878   0.00002   0.00000  -0.00411  -0.00401   3.04477
   D65        3.11543  -0.00021   0.00000  -0.00178  -0.00178   3.11365
   D66       -1.05578  -0.00020   0.00000  -0.00631  -0.00643  -1.06221
   D67        0.99610   0.00095   0.00000   0.00688   0.00694   1.00304
   D68       -1.04187   0.00033   0.00000  -0.00475  -0.00473  -1.04659
   D69       -3.11948   0.00167   0.00000   0.01019   0.00980  -3.10969
   D70        1.08283   0.00186   0.00000   0.01258   0.01276   1.09560
   D71        3.12945  -0.00124   0.00000  -0.01158  -0.01154   3.11792
   D72        1.05184   0.00011   0.00000   0.00336   0.00298   1.05482
   D73       -1.02903   0.00029   0.00000   0.00575   0.00595  -1.02308
   D74        1.07687  -0.00008   0.00000  -0.00280  -0.00269   1.07418
   D75       -1.00074   0.00126   0.00000   0.01214   0.01183  -0.98892
   D76       -3.08161   0.00145   0.00000   0.01453   0.01480  -3.06682
   D77       -1.17218   0.00177   0.00000   0.00000  -0.00001  -1.17219
   D78        3.07200  -0.00231   0.00000  -0.02135  -0.02118   3.05082
   D79        1.03323  -0.00446   0.00000  -0.04664  -0.04690   0.98633
   D80       -0.04357   0.00655   0.00000   0.00707   0.00737  -0.03620
   D81       -3.09506   0.00270   0.00000   0.01341   0.01334  -3.08172
         Item               Value     Threshold  Converged?
 Maximum Force            0.036742     0.000450     NO 
 RMS     Force            0.006837     0.000300     NO 
 Maximum Displacement     0.308363     0.001800     NO 
 RMS     Displacement     0.056199     0.001200     NO 
 Predicted change in Energy=-1.365995D-02
 GradGradGradGradGradGradGradGradGradGradGradGradGradGradGradGradGradGrad

                          Input orientation:                          
 ---------------------------------------------------------------------
 Center     Atomic      Atomic             Coordinates (Angstroms)
 Number     Number       Type             X           Y           Z
 ---------------------------------------------------------------------
      1          8           0       -3.398091   -1.507716   -0.056960
      2          7           0       -3.096588   -0.321091    0.142417
      3          8           0       -3.874232    0.582706    0.483491
      4          6           0       -1.681491    0.018000   -0.027597
      5          6           0       -1.323860    1.281164    0.327002
      6          7           0       -0.072469    1.779880    0.210237
      7          6           0        1.175400    1.015986    0.278309
      8          1           0        1.769803    1.513878    1.064321
      9          6           0        2.000125    1.052393   -1.002874
     10          6           0        3.379293    0.440316   -0.733328
     11          6           0        3.260651   -0.970316   -0.145778
     12          6           0        2.350078   -0.994868    1.082382
     13          6           0        0.964407   -0.424512    0.746790
     14          1           0        0.344453   -0.425549    1.657844
     15          7           0        0.382489   -1.304129   -0.260506
     16          6           0       -0.836449   -1.037295   -0.591337
     17          1           0       -2.095543    1.960005    0.683788
     18          1           0        0.047909    2.756548   -0.034925
     19          1           0        1.481054    0.491275   -1.787908
     20          1           0        2.102889    2.090594   -1.347591
     21          1           0        3.959261    0.416226   -1.662896
     22          1           0        3.924630    1.083823   -0.028685
     23          1           0        2.842317   -1.643841   -0.902012
     24          1           0        4.252591   -1.354411    0.121063
     25          1           0        2.235072   -2.022324    1.446190
     26          1           0        2.795248   -0.405735    1.895323
     27          1           0       -1.326923   -1.707004   -1.299739
 ---------------------------------------------------------------------
                    Distance matrix (angstroms):
                    1          2          3          4          5
     1  O    0.000000
     2  N    1.240457   0.000000
     3  O    2.211032   1.240126   0.000000
     4  C    2.296821   1.465055   2.321254   0.000000
     5  C    3.496815   2.396635   2.648911   1.359862   0.000000
     6  N    4.683956   3.682930   3.995159   2.397861   1.352157
     7  C    5.234339   4.478406   5.072338   3.041608   2.513760
     8  H    6.090520   5.281930   5.749746   3.916805   3.188816
     9  C    6.048937   5.401354   6.077660   3.946572   3.587447
    10  C    7.084154   6.579035   7.356259   5.127177   4.893973
    11  C    6.680983   6.396799   7.329012   5.041379   5.129368
    12  C    5.882394   5.568095   6.448988   4.302500   4.387338
    13  C    4.566261   4.107024   4.949368   2.792180   2.884738
    14  H    4.256557   3.761409   4.493661   2.672433   2.732632
    15  N    3.791525   3.637676   4.715226   2.462170   3.152860
    16  C    2.658733   2.481848   3.606631   1.464768   2.540899
    17  H    3.777622   2.549230   2.258496   2.109239   1.087942
    18  H    5.482641   4.403541   4.514149   3.238908   2.046827
    19  H    5.549613   5.033975   5.817792   3.650257   3.600598
    20  H    6.698832   5.922070   6.430596   4.512157   3.898980
    21  H    7.772465   7.320369   8.123935   5.886499   5.711320
    22  H    7.767826   7.162441   7.831711   5.706537   5.264228
    23  H    6.298836   6.173418   7.210351   4.898077   5.236712
    24  H    7.654288   7.421498   8.362358   6.092531   6.171342
    25  H    5.852932   5.746357   6.710929   4.655581   4.983133
    26  H    6.586594   6.147648   6.888559   4.890640   4.719354
    27  H    2.423624   2.670634   3.861537   2.172488   3.402270
                    6          7          8          9         10
     6  N    0.000000
     7  C    1.464699   0.000000
     8  H    2.047971   1.104095   0.000000
     9  C    2.509287   1.524115   2.130566   0.000000
    10  C    3.820917   2.492378   2.640934   1.532775   0.000000
    11  C    4.335899   2.910931   3.139775   2.532764   1.532702
    12  C    3.785313   2.463725   2.575044   2.943133   2.532950
    13  C    2.494463   1.529388   2.122932   2.513023   2.961478
    14  H    2.670825   2.161392   2.478965   3.464821   3.959505
    15  N    3.152728   2.510371   3.408954   2.953142   3.499640
    16  C    3.026989   3.003296   4.005276   3.547155   4.469449
    17  H    2.085551   3.428506   3.909570   4.521403   5.855895
    18  H    1.014139   2.097357   2.391128   2.766264   4.117137
    19  H    2.840162   2.153601   3.043732   1.095703   2.172107
    20  H    2.693614   2.158371   2.502172   1.098750   2.174843
    21  H    4.650057   3.446429   3.665553   2.162997   1.095920
    22  H    4.064281   2.767149   2.454157   2.157256   1.099098
    23  H    4.631948   3.353573   3.871426   2.826506   2.158821
    24  H    5.342085   3.887494   3.909098   3.482749   2.171100
    25  H    4.616176   3.423183   3.587063   3.937893   3.481973
    26  H    3.979978   2.694427   2.329595   3.340345   2.822537
    27  H    4.001505   4.020763   5.054955   4.332626   5.203871
                   11         12         13         14         15
    11  C    0.000000
    12  C    1.529092   0.000000
    13  C    2.523354   1.535582   0.000000
    14  H    3.471892   2.162825   1.101981   0.000000
    15  N    2.899726   2.402165   1.458424   2.110312   0.000000
    16  C    4.121801   3.599596   2.325762   2.612964   1.290914
    17  H    6.161475   5.352915   3.879843   3.548695   4.205580
    18  H    4.921739   4.541088   3.401498   3.616511   4.080677
    19  H    2.828393   3.346997   2.744137   3.742411   2.600630
    20  H    3.486250   3.935218   3.465303   4.296011   3.957988
    21  H    2.170761   3.480978   3.934791   4.980235   4.209468
    22  H    2.161959   2.834544   3.411650   4.235593   4.278179
    23  H    1.095687   2.145060   2.780622   3.778415   2.564701
    24  H    1.096666   2.161703   3.473960   4.300932   3.889192
    25  H    2.166309   1.096015   2.157951   2.483732   2.619290
    26  H    2.168281   1.098238   2.161355   2.462353   3.357992
    27  H    4.787502   4.438691   3.329154   3.630830   2.040687
                   16         17         18         19         20
    16  C    0.000000
    17  H    3.492143   0.000000
    18  H    3.935090   2.396960   0.000000
    19  H    3.023100   4.588954   3.202861   0.000000
    20  H    4.358362   4.665875   2.527752   1.771547   0.000000
    21  H    5.124432   6.674641   4.840049   2.482493   2.519731
    22  H    5.242480   6.125177   4.222205   3.068720   2.464110
    23  H    3.741355   6.315452   5.284315   2.682642   3.832923
    24  H    5.148437   7.183371   5.882488   3.838248   4.318126
    25  H    3.815238   5.932490   5.460312   4.164867   4.973809
    26  H    4.446523   5.566361   4.612349   4.012222   4.150603
    27  H    1.091288   4.239353   4.838721   3.599372   5.117387
                   21         22         23         24         25
    21  H    0.000000
    22  H    1.765653   0.000000
    23  H    2.463815   3.061740   0.000000
    24  H    2.530554   2.464745   1.766161   0.000000
    25  H    4.311122   3.831190   2.454801   2.504486   0.000000
    26  H    3.832945   2.682554   3.059445   2.484317   1.768863
    27  H    5.708217   6.081374   4.188644   5.768360   4.508588
                   26         27
    26  H    0.000000
    27  H    5.375315   0.000000
 Symmetry turned off by external request.
 Stoichiometry    C9H13N3O2
 Framework group  C1[X(C9H13N3O2)]
 Deg. of freedom    75
 Full point group                 C1      NOp   1
 Rotational constants (GHZ):           1.6974977           0.4254275           0.3751299
 Standard basis: 6-31G(d) (6D, 7F)
   236 basis functions,   444 primitive gaussians,   236 cartesian basis functions
    52 alpha electrons       52 beta electrons
       nuclear repulsion energy       933.8761108915 Hartrees.
 NAtoms=   27 NActive=   27 NUniq=   27 SFac= 1.00D+00 NAtFMM=   60 NAOKFM=F Big=F
 Integral buffers will be    131072 words long.
 Raffenetti 1 integral format.
 Two-electron integral symmetry is turned off.
 One-electron integrals computed using PRISM.
 NBasis=   236 RedAO= T EigKep=  1.06D-03  NBF=   236
 NBsUse=   236 1.00D-06 EigRej= -1.00D+00 NBFU=   236
 Initial guess from the checkpoint file:  "/home/alexey/tmp/Gau-1546381.chk"
 B after Tr=     0.056895    0.001112    0.004682
         Rot=    0.999999   -0.000054   -0.001553   -0.000190 Ang=  -0.18 deg.
 ExpMin= 1.61D-01 ExpMax= 5.48D+03 ExpMxC= 8.25D+02 IAcc=3 IRadAn=         5 AccDes= 0.00D+00
 Harris functional with IExCor=  205 and IRadAn=       5 diagonalized for initial guess.
 HarFok:  IExCor=  205 AccDes= 0.00D+00 IRadAn=         5 IDoV= 1 UseB2=F ITyADJ=14
 ICtDFT=  3500011 ScaDFX=  1.000000  1.000000  1.000000  1.000000
 FoFCou: FMM=F IPFlag=           0 FMFlag=      100000 FMFlg1=           0
         NFxFlg=           0 DoJE=T BraDBF=F KetDBF=T FulRan=T
         wScrn=  0.000000 ICntrl=       500 IOpCl=  0 I1Cent=   200000004 NGrid=           0
         NMat0=    1 NMatS0=      1 NMatT0=    0 NMatD0=    1 NMtDS0=    0 NMtDT0=    0
 Symmetry not used in FoFCou.
 Keep R1 ints in memory in canonical form, NReq=397720213.
 Requested convergence on RMS density matrix=1.00D-08 within 128 cycles.
 Requested convergence on MAX density matrix=1.00D-06.
 Requested convergence on             energy=1.00D-06.
 No special actions if energy rises.
 SCF Done:  E(RHF) =  -661.288978202     A.U. after   15 cycles
            NFock= 15  Conv=0.37D-08     -V/T= 2.0024
 ExpMin= 1.61D-01 ExpMax= 5.48D+03 ExpMxC= 8.25D+02 IAcc=3 IRadAn=         5 AccDes= 0.00D+00
 HarFok:  IExCor=  205 AccDes= 0.00D+00 IRadAn=         5 IDoV=-2 UseB2=F ITyADJ=14
 ICtDFT= 12500011 ScaDFX=  1.000000  1.000000  1.000000  1.000000
 Range of M.O.s used for correlation:    15   236
 NBasis=   236 NAE=    52 NBE=    52 NFC=    14 NFV=     0
 NROrb=    222 NOA=    38 NOB=    38 NVA=   184 NVB=   184
 Fully direct method using O(ONN) memory.
 JobTyp=1 Pass  1:  I=  15 to  52 NPSUse=  4 ParTrn=T ParDer=T DoDerP=T.
 Spin components of T(2) and E(2):
     alpha-alpha T2 =       0.9126137551D-01 E2=     -0.2723519247D+00
     alpha-beta  T2 =       0.4926401958D+00 E2=     -0.1489483162D+01
     beta-beta   T2 =       0.9126137551D-01 E2=     -0.2723519247D+00
 ANorm=    0.1294280861D+01
 E2 =    -0.2034187011D+01 EUMP2 =    -0.66332316521363D+03
          IDoAtm=111111111111111111111111111
          Differentiating once with respect to electric field.
                with respect to dipole field.
          Differentiating once with respect to nuclear coordinates.
 Keep R1 ints in memory in canonical form, NReq=397723379.
          There are     1 degrees of freedom in the 1st order CPHF.  IDoFFX=0 NUNeed=     1.
 LinEq1:  Iter=  0 NonCon=     1 RMS=4.54D-03 Max=9.80D-02 NDo=     1
 AX will form     1 AO Fock derivatives at one time.
 LinEq1:  Iter=  1 NonCon=     1 RMS=1.52D-03 Max=2.60D-02 NDo=     1
 LinEq1:  Iter=  2 NonCon=     1 RMS=6.39D-04 Max=1.65D-02 NDo=     1
 LinEq1:  Iter=  3 NonCon=     1 RMS=2.82D-04 Max=7.95D-03 NDo=     1
 LinEq1:  Iter=  4 NonCon=     1 RMS=8.75D-05 Max=1.89D-03 NDo=     1
 LinEq1:  Iter=  5 NonCon=     1 RMS=3.69D-05 Max=1.92D-03 NDo=     1
 LinEq1:  Iter=  6 NonCon=     1 RMS=1.44D-05 Max=5.53D-04 NDo=     1
 LinEq1:  Iter=  7 NonCon=     1 RMS=5.59D-06 Max=1.09D-04 NDo=     1
[...]
                   16         17         18         19         20
    16  C    0.000000
    17  H    3.477222   0.000000
    18  H    4.042463   2.244520   0.000000
    19  H    2.998232   4.530338   3.551541   0.000000
    20  H    4.350905   4.636087   2.908527   1.767379   0.000000
    21  H    5.109001   6.648461   5.093696   2.499320   2.523005
    22  H    5.232287   6.113509   4.289003   3.070621   2.461615
    23  H    3.727017   6.295065   5.419953   2.704383   3.841847
    24  H    5.144273   7.178173   5.911326   3.850172   4.317019
    25  H    3.814706   5.939292   5.330987   4.172354   4.982097
    26  H    4.463662   5.598488   4.428983   4.036749   4.179468
    27  H    1.089521   4.229062   5.005724   3.559202   5.094424
                   21         22         23         24         25
    21  H    0.000000
    22  H    1.758687   0.000000
    23  H    2.468627   3.061869   0.000000
    24  H    2.518063   2.460178   1.764255   0.000000
    25  H    4.312166   3.838863   2.446166   2.518970   0.000000
    26  H    3.845981   2.703524   3.060877   2.490183   1.766931
    27  H    5.670314   6.053446   4.154134   5.745013   4.498127
                   26         27
    26  H    0.000000
    27  H    5.381377   0.000000
 Symmetry turned off by external request.
 Stoichiometry    C9H13N3O2
 Framework group  C1[X(C9H13N3O2)]
 Deg. of freedom    75
 Full point group                 C1      NOp   1
 Rotational constants (GHZ):           1.6956559           0.4223873           0.3740923

 **********************************************************************

            Population analysis using the SCF Density.

 **********************************************************************

 Alpha  occ. eigenvalues --  -20.59430 -20.59087 -15.84854 -15.63590 -15.56841
 Alpha  occ. eigenvalues --  -11.34920 -11.29814 -11.29580 -11.28863 -11.27166
 Alpha  occ. eigenvalues --  -11.23517 -11.23117 -11.22770 -11.22108  -1.57272
 Alpha  occ. eigenvalues --   -1.36894  -1.30725  -1.23483  -1.14611  -1.09830
 Alpha  occ. eigenvalues --   -1.02690  -1.01163  -0.94439  -0.89591  -0.85412
 Alpha  occ. eigenvalues --   -0.82396  -0.78391  -0.77506  -0.75063  -0.71660
 Alpha  occ. eigenvalues --   -0.70015  -0.69539  -0.67768  -0.65029  -0.63589
 Alpha  occ. eigenvalues --   -0.62399  -0.60542  -0.57436  -0.57090  -0.55000
 Alpha  occ. eigenvalues --   -0.54566  -0.50699  -0.49711  -0.48737  -0.48068
 Alpha  occ. eigenvalues --   -0.47473  -0.46203  -0.45964  -0.43767  -0.41558
 Alpha  occ. eigenvalues --   -0.40831  -0.34263
 Alpha virt. eigenvalues --    0.06966   0.11686   0.17464   0.21672   0.23723
 Alpha virt. eigenvalues --    0.25271   0.26970   0.28455   0.29006   0.29757
 Alpha virt. eigenvalues --    0.30466   0.31880   0.32025   0.32619   0.34158
 Alpha virt. eigenvalues --    0.34460   0.35675   0.37267   0.38551   0.40035
 Alpha virt. eigenvalues --    0.41253   0.42960   0.45262   0.46291   0.46600
 Alpha virt. eigenvalues --    0.47108   0.48766   0.53472   0.57835   0.59198
 Alpha virt. eigenvalues --    0.63406   0.69406   0.70369   0.72855   0.74058
 Alpha virt. eigenvalues --    0.75226   0.75947   0.77155   0.78158   0.79462
 Alpha virt. eigenvalues --    0.81147   0.84866   0.86115   0.86877   0.88616
 Alpha virt. eigenvalues --    0.89607   0.90352   0.92384   0.93076   0.94416
 Alpha virt. eigenvalues --    0.95630   0.97910   0.98972   1.01790   1.02568
 Alpha virt. eigenvalues --    1.02822   1.04844   1.06101   1.07215   1.09265
 Alpha virt. eigenvalues --    1.09854   1.10246   1.11834   1.12188   1.14044
 Alpha virt. eigenvalues --    1.14476   1.15028   1.15350   1.16465   1.18690
 Alpha virt. eigenvalues --    1.19568   1.20630   1.21627   1.23476   1.23840
 Alpha virt. eigenvalues --    1.24649   1.25869   1.26868   1.27155   1.29086
 Alpha virt. eigenvalues --    1.30379   1.33465   1.34296   1.36562   1.41559
 Alpha virt. eigenvalues --    1.42524   1.46030   1.48148   1.49839   1.51992
 Alpha virt. eigenvalues --    1.55048   1.57698   1.61237   1.62898   1.65299
 Alpha virt. eigenvalues --    1.67717   1.69640   1.72547   1.75284   1.76932
 Alpha virt. eigenvalues --    1.82260   1.84151   1.86295   1.89796   1.92958
 Alpha virt. eigenvalues --    1.95906   1.97748   1.99442   2.01438   2.02307
 Alpha virt. eigenvalues --    2.04870   2.06011   2.08235   2.09425   2.11946
 Alpha virt. eigenvalues --    2.12426   2.15243   2.17473   2.20190   2.21076
 Alpha virt. eigenvalues --    2.23712   2.24871   2.25789   2.28153   2.30157
 Alpha virt. eigenvalues --    2.31574   2.34768   2.35802   2.38250   2.38903
 Alpha virt. eigenvalues --    2.39877   2.41138   2.43352   2.46025   2.49811
 Alpha virt. eigenvalues --    2.51195   2.52703   2.54026   2.56301   2.61836
 Alpha virt. eigenvalues --    2.63195   2.64813   2.68509   2.70408   2.72446
 Alpha virt. eigenvalues --    2.73142   2.74351   2.78826   2.78941   2.83117
 Alpha virt. eigenvalues --    2.85951   2.87694   2.92969   2.93687   2.96168
 Alpha virt. eigenvalues --    3.00162   3.00886   3.02748   3.03950   3.08415
 Alpha virt. eigenvalues --    3.08910   3.13548   3.22279   3.24429   3.26610
 Alpha virt. eigenvalues --    3.30310   3.36285   3.36961   3.51406   3.62151
 Alpha virt. eigenvalues --    4.12079   4.27685   4.33943   4.38331   4.45282
 Alpha virt. eigenvalues --    4.56045   4.61363   4.62216   4.73409   4.78786
 Alpha virt. eigenvalues --    4.97613   5.00801   5.03500   5.12516
          Condensed to atoms (all electrons):
               1          2          3          4          5          6
     1  O    8.314040   0.309378  -0.082255  -0.086387   0.004454  -0.000018
     2  N    0.309378   5.722144   0.300187   0.266461  -0.050283   0.000923
     3  O   -0.082255   0.300187   8.351195  -0.091359   0.003908   0.000672
     4  C   -0.086387   0.266461  -0.091359   5.201477   0.569824  -0.057728
     5  C    0.004454  -0.050283   0.003908   0.569824   4.721552   0.321404
     6  N   -0.000018   0.000923   0.000672  -0.057728   0.321404   7.159438
     7  C    0.000005  -0.000132  -0.000000   0.000950  -0.033754   0.180329
     8  H   -0.000000   0.000004  -0.000000  -0.000044   0.001828  -0.052011
     9  C   -0.000000  -0.000003   0.000000   0.000846   0.001840  -0.060641
    10  C    0.000000   0.000000  -0.000000  -0.000030  -0.000076   0.003611
    11  C   -0.000000  -0.000000  -0.000000  -0.000046   0.000029  -0.000207
    12  C   -0.000000   0.000003  -0.000000   0.000075  -0.000072   0.003991
    13  C   -0.000038  -0.000124  -0.000006  -0.017849  -0.000618  -0.043357
    14  H   -0.000010  -0.000090  -0.000001   0.003628   0.008570  -0.007784
    15  N    0.000096   0.002340  -0.000016  -0.060977  -0.007475   0.002079
    16  C    0.001752  -0.031309   0.002406   0.334338  -0.047458  -0.002429
    17  H    0.000179  -0.006325   0.015501  -0.025183   0.376279  -0.033171
    18  H    0.000001  -0.000057   0.000011   0.002537  -0.032136   0.337724
    19  H    0.000000  -0.000000   0.000000  -0.000654   0.000405   0.000373
    20  H    0.000000  -0.000000   0.000000  -0.000071   0.000173  -0.000958
    21  H   -0.000000   0.000000   0.000000   0.000000   0.000001  -0.000069
    22  H   -0.000000   0.000000  -0.000000   0.000000  -0.000004  -0.000121
    23  H   -0.000000  -0.000000   0.000000   0.000035  -0.000000  -0.000029
    24  H   -0.000000   0.000000   0.000000   0.000000  -0.000000   0.000005
    25  H   -0.000000  -0.000000   0.000000   0.000024   0.000001  -0.000090
    26  H   -0.000000  -0.000000   0.000000   0.000012  -0.000006  -0.000047
    27  H    0.005254  -0.001010   0.000002  -0.058698   0.002279   0.000067
               7          8          9         10         11         12
     1  O    0.000005  -0.000000  -0.000000   0.000000  -0.000000  -0.000000
     2  N   -0.000132   0.000004  -0.000003   0.000000  -0.000000   0.000003
     3  O   -0.000000  -0.000000   0.000000  -0.000000  -0.000000  -0.000000
     4  C    0.000950  -0.000044   0.000846  -0.000030  -0.000046   0.000075
     5  C   -0.033754   0.001828   0.001840  -0.000076   0.000029  -0.000072
     6  N    0.180329  -0.052011  -0.060641   0.003611  -0.000207   0.003991
     7  C    5.023550   0.419924   0.343421  -0.054484  -0.008798  -0.059935
     8  H    0.419924   0.545848  -0.057185   0.001200  -0.000519  -0.002618
     9  C    0.343421  -0.057185   5.161702   0.322569  -0.049877  -0.005584
    10  C   -0.054484   0.001200   0.322569   5.122908   0.336238  -0.060688
    11  C   -0.008798  -0.000519  -0.049877   0.336238   5.119145   0.336527
    12  C   -0.059935  -0.002618  -0.005584  -0.060688   0.336527   5.117291
    13  C    0.346442  -0.040448  -0.058446  -0.000688  -0.051575   0.368353
    14  H   -0.047849  -0.000374   0.004481  -0.000405   0.004130  -0.035290
    15  N   -0.056944   0.003984  -0.014127   0.001701  -0.012440  -0.080639
    16  C   -0.003802   0.000104  -0.001742   0.000019   0.000013   0.003665
    17  H    0.001931  -0.000056  -0.000076   0.000001   0.000000  -0.000000
    18  H   -0.023925  -0.004849   0.001635  -0.000100   0.000004  -0.000133
    19  H   -0.036897   0.004505   0.389548  -0.032060  -0.002368   0.000702
    20  H   -0.041087  -0.001910   0.399800  -0.035794   0.003949  -0.000386
    21  H    0.004577  -0.000074  -0.036225   0.402600  -0.034957   0.004329
    22  H   -0.004857   0.003611  -0.046667   0.397628  -0.045575  -0.001106
    23  H    0.000494   0.000044  -0.001924  -0.039131   0.399507  -0.037978
    24  H   -0.000124  -0.000105   0.004347  -0.038278   0.402255  -0.038733
    25  H    0.005111  -0.000001  -0.000446   0.004203  -0.033616   0.398959
    26  H   -0.004269   0.001832   0.000951  -0.002242  -0.041277   0.396984
    27  H   -0.000397   0.000011  -0.000068   0.000007   0.000007  -0.000046
              13         14         15         16         17         18
     1  O   -0.000038  -0.000010   0.000096   0.001752   0.000179   0.000001
     2  N   -0.000124  -0.000090   0.002340  -0.031309  -0.006325  -0.000057
     3  O   -0.000006  -0.000001  -0.000016   0.002406   0.015501   0.000011
     4  C   -0.017849   0.003628  -0.060977   0.334338  -0.025183   0.002537
     5  C   -0.000618   0.008570  -0.007475  -0.047458   0.376279  -0.032136
     6  N   -0.043357  -0.007784   0.002079  -0.002429  -0.033171   0.337724
     7  C    0.346442  -0.047849  -0.056944  -0.003802   0.001931  -0.023925
     8  H   -0.040448  -0.000374   0.003984   0.000104  -0.000056  -0.004849
     9  C   -0.058446   0.004481  -0.014127  -0.001742  -0.000076   0.001635
    10  C   -0.000688  -0.000405   0.001701   0.000019   0.000001  -0.000100
    11  C   -0.051575   0.004130  -0.012440   0.000013   0.000000   0.000004
    12  C    0.368353  -0.035290  -0.080639   0.003665  -0.000000  -0.000133
    13  C    5.060850   0.399387   0.247776  -0.075948   0.000066   0.002868
    14  H    0.399387   0.532312  -0.037729  -0.006358   0.000199  -0.000122
    15  N    0.247776  -0.037729   6.938771   0.576556  -0.000124  -0.000109
    16  C   -0.075948  -0.006358   0.576556   4.728231   0.001908  -0.000165
    17  H    0.000066   0.000199  -0.000124   0.001908   0.378714  -0.003316
    18  H    0.002868  -0.000122  -0.000109  -0.000165  -0.003316   0.322718
    19  H   -0.007541   0.000128   0.007833   0.003063   0.000010  -0.000145
    20  H    0.004225  -0.000067   0.000115  -0.000036   0.000005   0.000578
    21  H   -0.000413   0.000010  -0.000028   0.000003  -0.000000   0.000002
    22  H    0.000129  -0.000057   0.000010  -0.000003  -0.000000  -0.000000
    23  H   -0.007126  -0.000001   0.007959   0.000024   0.000000   0.000000
    24  H    0.004708  -0.000054   0.000132   0.000007   0.000000  -0.000000
    25  H   -0.035866  -0.002850  -0.000087  -0.000017   0.000000   0.000002
    26  H   -0.046851  -0.001097   0.004759  -0.000112  -0.000000  -0.000000
    27  H    0.005385  -0.000208  -0.039482   0.400692  -0.000075   0.000001
              19         20         21         22         23         24
     1  O    0.000000   0.000000  -0.000000  -0.000000  -0.000000  -0.000000
     2  N   -0.000000  -0.000000   0.000000   0.000000  -0.000000   0.000000
     3  O    0.000000   0.000000   0.000000  -0.000000   0.000000   0.000000
     4  C   -0.000654  -0.000071   0.000000   0.000000   0.000035   0.000000
     5  C    0.000405   0.000173   0.000001  -0.000004  -0.000000  -0.000000
     6  N    0.000373  -0.000958  -0.000069  -0.000121  -0.000029   0.000005
     7  C   -0.036897  -0.041087   0.004577  -0.004857   0.000494  -0.000124
     8  H    0.004505  -0.001910  -0.000074   0.003611   0.000044  -0.000105
     9  C    0.389548   0.399800  -0.036225  -0.046667  -0.001924   0.004347
    10  C   -0.032060  -0.035794   0.402600   0.397628  -0.039131  -0.038278
    11  C   -0.002368   0.003949  -0.034957  -0.045575   0.399507   0.402255
    12  C    0.000702  -0.000386   0.004329  -0.001106  -0.037978  -0.038733
    13  C   -0.007541   0.004225  -0.000413   0.000129  -0.007126   0.004708
    14  H    0.000128  -0.000067   0.000010  -0.000057  -0.000001  -0.000054
    15  N    0.007833   0.000115  -0.000028   0.000010   0.007959   0.000132
    16  C    0.003063  -0.000036   0.000003  -0.000003   0.000024   0.000007
    17  H    0.000010   0.000005  -0.000000  -0.000000   0.000000   0.000000
    18  H   -0.000145   0.000578   0.000002  -0.000000   0.000000  -0.000000
    19  H    0.504739  -0.024227  -0.002753   0.003930   0.001523  -0.000064
    20  H   -0.024227   0.538351  -0.002633  -0.002983  -0.000048  -0.000082
    21  H   -0.002753  -0.002633   0.524055  -0.027412  -0.002921  -0.002214
    22  H    0.003930  -0.002983  -0.027412   0.571733   0.004155  -0.003666
    23  H    0.001523  -0.000048  -0.002921   0.004155   0.500408  -0.025538
    24  H   -0.000064  -0.000082  -0.002214  -0.003666  -0.025538   0.538231
    25  H   -0.000027   0.000012  -0.000088  -0.000079  -0.002354  -0.002277
    26  H    0.000019  -0.000031  -0.000082   0.002383   0.004053  -0.003072
    27  H    0.000075   0.000000  -0.000000   0.000000  -0.000027  -0.000000
              25         26         27
     1  O   -0.000000  -0.000000   0.005254
     2  N   -0.000000  -0.000000  -0.001010
     3  O    0.000000   0.000000   0.000002
     4  C    0.000024   0.000012  -0.058698
     5  C    0.000001  -0.000006   0.002279
     6  N   -0.000090  -0.000047   0.000067
     7  C    0.005111  -0.004269  -0.000397
     8  H   -0.000001   0.001832   0.000011
     9  C   -0.000446   0.000951  -0.000068
    10  C    0.004203  -0.002242   0.000007
    11  C   -0.033616  -0.041277   0.000007
    12  C    0.398959   0.396984  -0.000046
    13  C   -0.035866  -0.046851   0.005385
    14  H   -0.002850  -0.001097  -0.000208
    15  N   -0.000087   0.004759  -0.039482
    16  C   -0.000017  -0.000112   0.400692
    17  H    0.000000  -0.000000  -0.000075
    18  H    0.000002  -0.000000   0.000001
    19  H   -0.000027   0.000019   0.000075
    20  H    0.000012  -0.000031   0.000000
    21  H   -0.000088  -0.000082  -0.000000
    22  H   -0.000079   0.002383   0.000000
    23  H   -0.002354   0.004053  -0.000027
    24  H   -0.002277  -0.003072  -0.000000
    25  H    0.506952  -0.024191  -0.000008
    26  H   -0.024191   0.561374   0.000001
    27  H   -0.000008   0.000001   0.441048
 Mulliken charges:
               1
     1  O   -0.466450
     2  N    0.487893
     3  O   -0.500244
     4  C    0.018819
     5  C    0.159334
     6  N   -0.751956
     7  C    0.050522
     8  H    0.177300
     9  C   -0.298131
    10  C   -0.328711
    11  C   -0.320548
    12  C   -0.307671
    13  C   -0.053295
    14  H    0.187500
    15  N   -0.483928
    16  C    0.116597
    17  H    0.293533
    18  H    0.396976
    19  H    0.189883
    20  H    0.163103
    21  H    0.174292
    22  H    0.148949
    23  H    0.198876
    24  H    0.164522
    25  H    0.186734
    26  H    0.150910
    27  H    0.245190
 Sum of Mulliken charges =  -0.00000
 Mulliken charges with hydrogens summed into heavy atoms:
               1
     1  O   -0.466450
     2  N    0.487893
     3  O   -0.500244
     4  C    0.018819
     5  C    0.452867
     6  N   -0.354980
     7  C    0.227822
     9  C    0.054855
    10  C   -0.005470
    11  C    0.042850
    12  C    0.029972
    13  C    0.134206
    15  N   -0.483928
    16  C    0.361787
 Electronic spatial extent (au):  <R**2>=           2988.2373
 Charge=             -0.0000 electrons
 Dipole moment (field-independent basis, Debye):
    X=              5.2279    Y=              4.7418    Z=              1.1019  Tot=              7.1435
 Quadrupole moment (field-independent basis, Debye-Ang):
   XX=           -105.5027   YY=            -80.0180   ZZ=            -81.3683
   XY=             -2.5224   XZ=              1.8175   YZ=              2.3436
 Traceless Quadrupole moment (field-independent basis, Debye-Ang):
   XX=            -16.5397   YY=              8.9450   ZZ=              7.5947
   XY=             -2.5224   XZ=              1.8175   YZ=              2.3436
 Octapole moment (field-independent basis, Debye-Ang**2):
  XXX=             87.5094  YYY=             37.4002  ZZZ=             -3.0880  XYY=             -4.1907
  XXY=             12.7933  XXZ=             -5.4114  XZZ=            -10.6139  YZZ=             -0.4768
  YYZ=              8.2945  XYZ=             -0.8509
 Hexadecapole moment (field-independent basis, Debye-Ang**3):
 XXXX=          -3348.5027 YYYY=           -606.3047 ZZZZ=           -301.6264 XXXY=            -47.0041
 XXXZ=             68.2830 YYYX=            -27.2368 YYYZ=             26.8926 ZZZX=             44.0968
 ZZZY=             11.0427 XXYY=           -623.8106 XXZZ=           -520.9886 YYZZ=           -156.1249
 XXYZ=             -3.8284 YYXZ=             16.4681 ZZXY=              1.5105
 N-N= 9.327686147137D+02 E-N=-3.412216795315D+03  KE= 6.596309196789D+02
 Unable to Open any file for archive entry.
 1\1\GINC-LOTUS\FOpt\RMP2-FC\6-31G(d)\C9H13N3O2\ALEXEY\02-Jul-2023\0\\#
 MP2/6-31G* SCF=Tight Opt=(ModRedun, MaxCycle=20 ) NoSymm\\MolName:\\0,
 1\O,-3.4511755257,-1.4626546775,-0.2053681439\N,-3.099270448,-0.295553
 2979,0.0564111198\O,-3.8911036276,0.6116179912,0.375596004\C,-1.677190
 4246,-0.0102030541,-0.006163876\C,-1.3048378018,1.2635046576,0.3301401
 63\N,-0.0684566188,1.7860537332,0.1836238654\C,1.1838112228,1.02984082
 34,0.2565272127\H,1.794427527,1.5503360575,1.0110978785\C,1.9803627258
 ,1.0267756104,-1.0456144405\C,3.3618101433,0.4183456968,-0.7788465984\
 C,3.2634292526,-0.9717664712,-0.1449517072\C,2.3776675817,-0.966227783
 6,1.1033728211\C,0.9885619396,-0.4098408372,0.766133977\H,0.3543635887
 ,-0.3727756749,1.6677167129\N,0.4007725196,-1.3129485107,-0.2176292103
 \C,-0.8295662184,-1.0663546855,-0.5480948375\H,-2.0900406576,1.9609162
 848,0.6085845539\H,0.0099924723,2.7460020644,0.5019449651\H,1.43661673
 57,0.4469382718,-1.7985963575\H,2.0754309363,2.0518312407,-1.424611283
 3\H,3.9332537144,0.369266532,-1.712752776\H,3.9182734165,1.0879135532,
 -0.1076661696\H,2.8338871484,-1.6729281688,-0.8672045058\H,4.265451218
 5,-1.3380745402,0.1080357785\H,2.261329444,-1.9840642025,1.4905703556\
 H,2.8363801565,-0.364217313,1.8997861522\H,-1.3021604213,-1.7577332999
 ,-1.2450216538\\Version=ES64L-G16RevC.02\HF=-661.2946006\MP2=-663.3308
 117\RMSD=7.946e-09\RMSF=2.958e-03\Dipole=1.8844373,1.6479752,0.3981759
 \PG=C01 [X(C9H13N3O2)]\\@
 The archive entry for this job was punched.


 LAWS OF PROGRAMMING DEFINITION:  A WORKING PROGRAM
                                  IS ONE THAT HAS
                                  ONLY UNOBSERVED
                                  BUGS.
 Job cpu time:       0 days  1 hours  7 minutes 44.2 seconds.
 Elapsed time:       0 days  0 hours 20 minutes 24.9 seconds.
 File lengths (MBytes):  RWF=     36 Int=      0 D2E=      0 Chk=      7 Scr=      1
 Normal termination of Gaussian 16 at Sun Jul  2 17:03:10 2023.
