 Entering Gaussian System, Link 0=g16
 Initial command:
 /home/alexey/programs//g16/l1.exe "/home/alexey/tmp/Gau-1258885.inp" -scrdir="/home/alexey/tmp/"
 Entering Link 1 = /home/alexey/programs//g16/l1.exe PID=   1258887.
  
 Copyright (c) 1988-2021, Gaussian, Inc.  All Rights Reserved.
  
 This is part of the Gaussian(R) 16 program.  It is based on
 the Gaussian(R) 09 system (copyright 2009, Gaussian, Inc.),
 the Gaussian(R) 03 system (copyright 2003, Gaussian, Inc.),
 the Gaussian(R) 98 system (copyright 1998, Gaussian, Inc.),
 the Gaussian(R) 94 system (copyright 1995, Gaussian, Inc.),
 the Gaussian 92(TM) system (copyright 1992, Gaussian, Inc.),
 the Gaussian 90(TM) system (copyright 1990, Gaussian, Inc.),
 the Gaussian 88(TM) system (copyright 1988, Gaussian, Inc.),
 the Gaussian 86(TM) system (copyright 1986, Carnegie Mellon
 University), and the Gaussian 82(TM) system (copyright 1983,
 Carnegie Mellon University). Gaussian is a federally registered
 trademark of Gaussian, Inc.
  
 This software contains proprietary and confidential information,
 including trade secrets, belonging to Gaussian, Inc.
  
 This software is provided under written license and may be
 used, copied, transmitted, or stored only in accord with that
 written license.
  
 The following legend is applicable only to US Government
 contracts under FAR:
  
                    RESTRICTED RIGHTS LEGEND
  
 Use, reproduction and disclosure by the US Government is
 subject to restrictions as set forth in subparagraphs (a)
 and (c) of the Commercial Computer Software - Restricted
 Rights clause in FAR 52.227-19.
  
 Gaussian, Inc.
 340 Quinnipiac St., Bldg. 40, Wallingford CT 06492
  
  
 ---------------------------------------------------------------
 Warning -- This program may not be used in any manner that
 competes with the business of Gaussian, Inc. or will provide
 assistance to any competitor of Gaussian, Inc.  The licensee
 of this program is prohibited from giving any competitor of
 Gaussian, Inc. access to this program.  By using this program,
 the user acknowledges that Gaussian, Inc. is engaged in the
 business of creating and licensing software in the field of
 computational chemistry and represents and warrants to the
 licensee that it is not a competitor of Gaussian, Inc. and that
 it will not use this program in any manner prohibited above.
 ---------------------------------------------------------------
  

 Cite this work as:
 Gaussian 16, Revision C.02,
 M. J. Frisch, G. W. Trucks, H. B. Schlegel, G. E. Scuseria, 
 M. A. Robb, J. R. Cheeseman, G. Scalmani, V. Barone, 
 G. A. Petersson, H. Nakatsuji, X. Li, M. Caricato, A. V. Marenich, 
 J. Bloino, B. G. Janesko, R. Gomperts, B. Mennucci, H. P. Hratchian, 
 J. V. Ortiz, A. F. Izmaylov, J. L. Sonnenberg, D. Williams-Young, 
 F. Ding, F. Lipparini, F. Egidi, J. Goings, B. Peng, A. Petrone, 
 T. Henderson, D. Ranasinghe, V. G. Zakrzewski, J. Gao, N. Rega, 
 G. Zheng, W. Liang, M. Hada, M. Ehara, K. Toyota, R. Fukuda, 
 J. Hasegawa, M. Ishida, T. Nakajima, Y. Honda, O. Kitao, H. Nakai, 
 T. Vreven, K. Throssell, J. A. Montgomery, Jr., J. E. Peralta, 
 F. Ogliaro, M. J. Bearpark, J. J. Heyd, E. N. Brothers, K. N. Kudin, 
 V. N. Staroverov, T. A. Keith, R. Kobayashi, J. Normand, 
 K. Raghavachari, A. P. Rendell, J. C. Burant, S. S. Iyengar, 
 J. Tomasi, M. Cossi, J. M. Millam, M. Klene, C. Adamo, R. Cammi, 
 J. W. Ochterski, R. L. Martin, K. Morokuma, O. Farkas, 
 J. B. Foresman, and D. J. Fox, Gaussian, Inc., Wallingford CT, 2019.
 
 ******************************************
 Gaussian 16:  ES64L-G16RevC.02  7-Dec-2021
                 1-Jul-2023 
 ******************************************
 %mem=8GB
 %NPROCS=4
 Will use up to    4 processors via shared memory.
 %NoSave
 ---------------------------------------------------------
 #MP2/6-31G* SCF=Tight Opt=(ModRedun, MaxCycle=20 ) NoSymm
 ---------------------------------------------------------
 1/6=20,18=120,19=15,38=1/1,3;
 2/9=110,12=2,15=1,17=6,18=5,40=1/2;
 3/5=1,6=6,7=1,11=9,25=1,30=1,71=1/1,2,3;
 4//1;
 5/5=2,32=2,38=5/2;
 8/6=4,10=2/1;
 9/15=2,16=-3/6;
 10/5=1,31=1/2;
 6/7=2,8=2,9=2,10=2/1;
 7/12=2,30=1/1,2,3,16;
 1/6=20,18=20,19=15/3(2);
 2/9=110,15=1/2;
 99//99;
 2/9=110,15=1/2;
 3/5=1,6=6,7=1,11=9,25=1,30=1,71=1/1,2,3;
 4/5=5,16=3,69=1/1;
 5/5=2,32=2,38=5/2;
 8/6=4,10=2/1;
 9/15=2,16=-3/6;
 10/5=1,31=1/2;
 7/12=2,30=1/1,2,3,16;
 1/6=20,18=20,19=15/3(-8);
 2/9=110,15=1/2;
 6/7=2,8=2,9=2,10=2/1;
 99/9=10/99;
 --------
 MolName:
 --------
 Symbolic Z-matrix:
 Charge =  0 Multiplicity = 1
 8                    0    -3.6177   -1.28341  -0.65067 
 7                    0    -3.17798  -0.14444  -0.50386 
 8                    0    -3.83897   0.87136  -0.72486 
 6                    0    -1.719     0.00855  -0.06044 
 6                    0    -1.32699   1.30785   0.28321 
 7                    0    -0.08238   1.68789   0.69992 
 6                    0     1.20138   0.96198   0.50259 
 1                    0     1.94168   1.47457   1.17118 
 6                    0     1.79547   1.03426  -0.92603 
 6                    0     3.23505   0.48635  -0.90882 
 6                    0     3.28078  -0.93073  -0.31517 
 6                    0     2.59324  -0.9852    1.06645 
 6                    0     1.12356  -0.48745   0.99213 
 1                    0     0.69366  -0.53295   2.02042 
 7                    0     0.37553  -1.39179   0.11639 
 6                    0    -0.90116  -1.2409   -0.02884 
 1                    0    -2.07448   2.11558   0.21545 
 1                    0     0.14866   2.67924   0.80053 
 1                    0     1.17316   0.44036  -1.62898 
 1                    0     1.80725   2.08611  -1.28257 
 1                    0     3.64911   0.47577  -1.94083 
 1                    0     3.8737    1.15553  -0.29012 
 1                    0     2.76353  -1.63105  -1.00936 
 1                    0     4.33605  -1.26855  -0.22376 
 1                    0     2.60757  -2.03199   1.44156 
 1                    0     3.16129  -0.36037   1.78707 
 1                    0    -1.46101  -2.13357  -0.34456 
 
 The following ModRedundant input section has been read:
 D       5       6       7      13 F                                           
 D       1       2       4      16 F                                           
 D       7      13      15      16 F                                           
 D       7       9      10      11 F                                           
 D       9      10      11      12 F                                           
 D       6       7      13      15 F                                           
 

 GradGradGradGradGradGradGradGradGradGradGradGradGradGradGradGradGradGrad
 Berny optimization.
 Initialization pass.
                           ----------------------------
                           !    Initial Parameters    !
                           ! (Angstroms and Degrees)  !
 --------------------------                            --------------------------
 ! Name  Definition              Value          Derivative Info.                !
 --------------------------------------------------------------------------------
 ! R1    R(1,2)                  1.2297         estimate D2E/DX2                !
 ! R2    R(2,3)                  1.2319         estimate D2E/DX2                !
 ! R3    R(2,4)                  1.5325         estimate D2E/DX2                !
 ! R4    R(4,5)                  1.4            estimate D2E/DX2                !
 ! R5    R(4,16)                 1.4936         estimate D2E/DX2                !
 ! R6    R(5,6)                  1.3664         estimate D2E/DX2                !
 ! R7    R(5,17)                 1.1026         estimate D2E/DX2                !
 ! R8    R(6,7)                  1.4879         estimate D2E/DX2                !
 ! R9    R(6,18)                 1.0229         estimate D2E/DX2                !
 ! R10   R(7,8)                  1.1215         estimate D2E/DX2                !
 ! R11   R(7,9)                  1.5489         estimate D2E/DX2                !
 ! R12   R(7,13)                 1.5318         estimate D2E/DX2                !
 ! R13   R(9,10)                 1.5404         estimate D2E/DX2                !
 ! R14   R(9,19)                 1.1109         estimate D2E/DX2                !
 ! R15   R(9,20)                 1.1107         estimate D2E/DX2                !
 ! R16   R(10,11)                1.5371         estimate D2E/DX2                !
 ! R17   R(10,21)                1.112          estimate D2E/DX2                !
 ! R18   R(10,22)                1.1129         estimate D2E/DX2                !
 ! R19   R(11,12)                1.5442         estimate D2E/DX2                !
 ! R20   R(11,23)                1.1135         estimate D2E/DX2                !
 ! R21   R(11,24)                1.1118         estimate D2E/DX2                !
 ! R22   R(12,13)                1.5535         estimate D2E/DX2                !
 ! R23   R(12,25)                1.1121         estimate D2E/DX2                !
 ! R24   R(12,26)                1.1101         estimate D2E/DX2                !
 ! R25   R(13,14)                1.1155         estimate D2E/DX2                !
 ! R26   R(13,15)                1.4643         estimate D2E/DX2                !
 ! R27   R(15,16)                1.2938         estimate D2E/DX2                !
 ! R28   R(16,27)                1.1            estimate D2E/DX2                !
 ! A1    A(1,2,3)              123.3982         estimate D2E/DX2                !
 ! A2    A(1,2,4)              117.8675         estimate D2E/DX2                !
 ! A3    A(3,2,4)              118.7113         estimate D2E/DX2                !
 ! A4    A(2,4,5)              115.4831         estimate D2E/DX2                !
 ! A5    A(2,4,16)             116.3518         estimate D2E/DX2                !
 ! A6    A(5,4,16)             128.1585         estimate D2E/DX2                !
 ! A7    A(4,5,6)              126.0173         estimate D2E/DX2                !
 ! A8    A(4,5,17)             118.357          estimate D2E/DX2                !
 ! A9    A(6,5,17)             115.6253         estimate D2E/DX2                !
 ! A10   A(5,6,7)              127.5702         estimate D2E/DX2                !
 ! A11   A(5,6,18)             120.3503         estimate D2E/DX2                !
 ! A12   A(7,6,18)             106.9175         estimate D2E/DX2                !
 ! A13   A(6,7,8)              105.5139         estimate D2E/DX2                !
 ! A14   A(6,7,9)              115.498          estimate D2E/DX2                !
 ! A15   A(6,7,13)             112.0494         estimate D2E/DX2                !
 ! A16   A(8,7,9)              105.9824         estimate D2E/DX2                !
 ! A17   A(8,7,13)             105.9906         estimate D2E/DX2                !
 ! A18   A(9,7,13)             111.0017         estimate D2E/DX2                !
 ! A19   A(7,9,10)             109.3624         estimate D2E/DX2                !
 ! A20   A(7,9,19)             110.1098         estimate D2E/DX2                !
 ! A21   A(7,9,20)             110.1413         estimate D2E/DX2                !
 ! A22   A(10,9,19)            109.9028         estimate D2E/DX2                !
 ! A23   A(10,9,20)            109.3002         estimate D2E/DX2                !
 ! A24   A(19,9,20)            108.005          estimate D2E/DX2                !
 ! A25   A(9,10,11)            111.1025         estimate D2E/DX2                !
 ! A26   A(9,10,21)            109.9371         estimate D2E/DX2                !
 ! A27   A(9,10,22)            109.1864         estimate D2E/DX2                !
 ! A28   A(11,10,21)           109.7903         estimate D2E/DX2                !
 ! A29   A(11,10,22)           108.8187         estimate D2E/DX2                !
 ! A30   A(21,10,22)           107.938          estimate D2E/DX2                !
 ! A31   A(10,11,12)           111.3971         estimate D2E/DX2                !
 ! A32   A(10,11,23)           108.9796         estimate D2E/DX2                !
 ! A33   A(10,11,24)           109.8844         estimate D2E/DX2                !
 ! A34   A(12,11,23)           109.1948         estimate D2E/DX2                !
 ! A35   A(12,11,24)           109.7749         estimate D2E/DX2                !
 ! A36   A(23,11,24)           107.5215         estimate D2E/DX2                !
 ! A37   A(11,12,13)           111.5382         estimate D2E/DX2                !
 ! A38   A(11,12,25)           109.2241         estimate D2E/DX2                !
 ! A39   A(11,12,26)           109.4574         estimate D2E/DX2                !
 ! A40   A(13,12,25)           109.2649         estimate D2E/DX2                !
 ! A41   A(13,12,26)           109.5612         estimate D2E/DX2                !
 ! A42   A(25,12,26)           107.7134         estimate D2E/DX2                !
 ! A43   A(7,13,12)            105.6882         estimate D2E/DX2                !
 ! A44   A(7,13,14)            110.6571         estimate D2E/DX2                !
 ! A45   A(7,13,15)            114.7827         estimate D2E/DX2                !
 ! A46   A(12,13,14)           107.9051         estimate D2E/DX2                !
 ! A47   A(12,13,15)           108.3012         estimate D2E/DX2                !
 ! A48   A(14,13,15)           109.2227         estimate D2E/DX2                !
 ! A49   A(13,15,16)           119.947          estimate D2E/DX2                !
 ! A50   A(4,16,15)            129.8112         estimate D2E/DX2                !
 ! A51   A(4,16,27)            113.2098         estimate D2E/DX2                !
 ! A52   A(15,16,27)           116.0924         estimate D2E/DX2                !
 ! D1    D(1,2,4,5)           -170.8779         estimate D2E/DX2                !
 ! D2    D(1,2,4,16)             8.2583         Frozen                          !
 ! D3    D(3,2,4,5)             10.8065         estimate D2E/DX2                !
 ! D4    D(3,2,4,16)          -170.0573         estimate D2E/DX2                !
 ! D5    D(2,4,5,6)           -179.7011         estimate D2E/DX2                !
 ! D6    D(2,4,5,17)             0.073          estimate D2E/DX2                !
 ! D7    D(16,4,5,6)             1.2833         estimate D2E/DX2                !
 ! D8    D(16,4,5,17)         -178.9425         estimate D2E/DX2                !
 ! D9    D(2,4,16,15)          169.1758         estimate D2E/DX2                !
 ! D10   D(2,4,16,27)            0.5412         estimate D2E/DX2                !
 ! D11   D(5,4,16,15)          -11.8159         estimate D2E/DX2                !
 ! D12   D(5,4,16,27)          179.5495         estimate D2E/DX2                !
 ! D13   D(4,5,6,7)             20.0369         estimate D2E/DX2                !
 ! D14   D(4,5,6,18)           171.1859         estimate D2E/DX2                !
 ! D15   D(17,5,6,7)          -159.7426         estimate D2E/DX2                !
 ! D16   D(17,5,6,18)           -8.5937         estimate D2E/DX2                !
 ! D17   D(5,6,7,8)           -168.0117         estimate D2E/DX2                !
 ! D18   D(5,6,7,9)             75.3101         estimate D2E/DX2                !
 ! D19   D(5,6,7,13)           -53.1212         Frozen                          !
 ! D20   D(18,6,7,8)            37.7888         estimate D2E/DX2                !
 ! D21   D(18,6,7,9)           -78.8894         estimate D2E/DX2                !
 ! D22   D(18,6,7,13)          152.6793         estimate D2E/DX2                !
 ! D23   D(6,7,9,10)           168.9036         estimate D2E/DX2                !
 ! D24   D(6,7,9,19)           -70.2372         estimate D2E/DX2                !
 ! D25   D(6,7,9,20)            48.7685         estimate D2E/DX2                !
 ! D26   D(8,7,9,10)            52.4899         estimate D2E/DX2                !
 ! D27   D(8,7,9,19)           173.3491         estimate D2E/DX2                !
 ! D28   D(8,7,9,20)           -67.6452         estimate D2E/DX2                !
 ! D29   D(13,7,9,10)          -62.1491         estimate D2E/DX2                !
 ! D30   D(13,7,9,19)           58.71           estimate D2E/DX2                !
 ! D31   D(13,7,9,20)          177.7158         estimate D2E/DX2                !
 ! D32   D(6,7,13,12)         -165.7087         estimate D2E/DX2                !
 ! D33   D(6,7,13,14)          -49.1465         estimate D2E/DX2                !
 ! D34   D(6,7,13,15)           75.0215         Frozen                          !
 ! D35   D(8,7,13,12)          -51.1099         estimate D2E/DX2                !
 ! D36   D(8,7,13,14)           65.4524         estimate D2E/DX2                !
 ! D37   D(8,7,13,15)         -170.3797         estimate D2E/DX2                !
 ! D38   D(9,7,13,12)           63.5241         estimate D2E/DX2                !
 ! D39   D(9,7,13,14)         -179.9137         estimate D2E/DX2                !
 ! D40   D(9,7,13,15)          -55.7458         estimate D2E/DX2                !
 ! D41   D(7,9,10,11)           54.8125         Frozen                          !
 ! D42   D(7,9,10,21)          176.5505         estimate D2E/DX2                !
 ! D43   D(7,9,10,22)          -65.2131         estimate D2E/DX2                !
 ! D44   D(19,9,10,11)         -66.1725         estimate D2E/DX2                !
 ! D45   D(19,9,10,21)          55.5656         estimate D2E/DX2                !
 ! D46   D(19,9,10,22)         173.8019         estimate D2E/DX2                !
 ! D47   D(20,9,10,11)         175.4616         estimate D2E/DX2                !
 ! D48   D(20,9,10,21)         -62.8003         estimate D2E/DX2                !
 ! D49   D(20,9,10,22)          55.4361         estimate D2E/DX2                !
 ! D50   D(9,10,11,12)         -52.8225         Frozen                          !
 ! D51   D(9,10,11,23)          67.7205         estimate D2E/DX2                !
 ! D52   D(9,10,11,24)        -174.7018         estimate D2E/DX2                !
 ! D53   D(21,10,11,12)       -174.6462         estimate D2E/DX2                !
 ! D54   D(21,10,11,23)        -54.1032         estimate D2E/DX2                !
 ! D55   D(21,10,11,24)         63.4745         estimate D2E/DX2                !
 ! D56   D(22,10,11,12)         67.4212         estimate D2E/DX2                !
 ! D57   D(22,10,11,23)       -172.0358         estimate D2E/DX2                !
 ! D58   D(22,10,11,24)        -54.4581         estimate D2E/DX2                !
 ! D59   D(10,11,12,13)         56.6626         estimate D2E/DX2                !
 ! D60   D(10,11,12,25)        177.5451         estimate D2E/DX2                !
 ! D61   D(10,11,12,26)        -64.749          estimate D2E/DX2                !
 ! D62   D(23,11,12,13)        -63.7538         estimate D2E/DX2                !
 ! D63   D(23,11,12,25)         57.1286         estimate D2E/DX2                !
 ! D64   D(23,11,12,26)        174.8345         estimate D2E/DX2                !
 ! D65   D(24,11,12,13)        178.6053         estimate D2E/DX2                !
 ! D66   D(24,11,12,25)        -60.5122         estimate D2E/DX2                !
 ! D67   D(24,11,12,26)         57.1937         estimate D2E/DX2                !
 ! D68   D(11,12,13,7)         -60.4839         estimate D2E/DX2                !
 ! D69   D(11,12,13,14)       -178.8967         estimate D2E/DX2                !
 ! D70   D(11,12,13,15)         62.9852         estimate D2E/DX2                !
 ! D71   D(25,12,13,7)         178.6574         estimate D2E/DX2                !
 ! D72   D(25,12,13,14)         60.2447         estimate D2E/DX2                !
 ! D73   D(25,12,13,15)        -57.8734         estimate D2E/DX2                !
 ! D74   D(26,12,13,7)          60.8674         estimate D2E/DX2                !
 ! D75   D(26,12,13,14)        -57.5453         estimate D2E/DX2                !
 ! D76   D(26,12,13,15)       -175.6634         estimate D2E/DX2                !
 ! D77   D(7,13,15,16)         -67.1608         Frozen                          !
 ! D78   D(12,13,15,16)        175.0383         estimate D2E/DX2                !
 ! D79   D(14,13,15,16)         57.7631         estimate D2E/DX2                !
 ! D80   D(13,15,16,4)          35.2035         estimate D2E/DX2                !
 ! D81   D(13,15,16,27)       -156.4311         estimate D2E/DX2                !
 --------------------------------------------------------------------------------
 Trust Radius=3.00D-01 FncErr=1.00D-07 GrdErr=1.00D-07 EigMax=2.50D+02 EigMin=1.00D-04
 Number of steps in this run=     20 maximum allowed number of steps=    162.
 GradGradGradGradGradGradGradGradGradGradGradGradGradGradGradGradGradGrad

                          Input orientation:                          
 ---------------------------------------------------------------------
 Center     Atomic      Atomic             Coordinates (Angstroms)
 Number     Number       Type             X           Y           Z
 ---------------------------------------------------------------------
      1          8           0       -3.617700   -1.283410   -0.650670
      2          7           0       -3.177980   -0.144440   -0.503860
      3          8           0       -3.838970    0.871360   -0.724860
      4          6           0       -1.719000    0.008550   -0.060440
      5          6           0       -1.326990    1.307850    0.283210
      6          7           0       -0.082380    1.687890    0.699920
      7          6           0        1.201380    0.961980    0.502590
      8          1           0        1.941680    1.474570    1.171180
      9          6           0        1.795470    1.034260   -0.926030
     10          6           0        3.235050    0.486350   -0.908820
     11          6           0        3.280780   -0.930730   -0.315170
     12          6           0        2.593240   -0.985200    1.066450
     13          6           0        1.123560   -0.487450    0.992130
     14          1           0        0.693660   -0.532950    2.020420
     15          7           0        0.375530   -1.391790    0.116390
     16          6           0       -0.901160   -1.240900   -0.028840
     17          1           0       -2.074480    2.115580    0.215450
     18          1           0        0.148660    2.679240    0.800530
     19          1           0        1.173160    0.440360   -1.628980
     20          1           0        1.807250    2.086110   -1.282570
     21          1           0        3.649110    0.475770   -1.940830
     22          1           0        3.873700    1.155530   -0.290120
     23          1           0        2.763530   -1.631050   -1.009360
     24          1           0        4.336050   -1.268550   -0.223760
     25          1           0        2.607570   -2.031990    1.441560
     26          1           0        3.161290   -0.360370    1.787070
     27          1           0       -1.461010   -2.133570   -0.344560
 ---------------------------------------------------------------------
                    Distance matrix (angstroms):
                    1          2          3          4          5
     1  O    0.000000
     2  N    1.229699   0.000000
     3  O    2.167371   1.231908   0.000000
     4  C    2.371201   1.532531   2.383310   0.000000
     5  C    3.582473   2.480885   2.741673   1.399981   0.000000
     6  N    4.811570   3.793318   4.099840   2.465128   1.366430
     7  C    5.440158   4.627732   5.188446   3.123244   2.561329
     8  H    6.467789   5.624755   6.113489   4.131184   3.391237
     9  C    5.894898   5.128622   5.640383   3.762024   3.359594
    10  C    7.082293   6.456690   7.086878   5.048827   4.786231
    11  C    6.915632   6.509181   7.355693   5.093617   5.157601
    12  C    6.450830   6.039845   6.930291   4.566490   4.608660
    13  C    5.080540   4.567153   5.424124   3.071493   3.119433
    14  H    5.126962   4.638160   5.482097   3.231738   3.238745
    15  N    4.067679   3.816808   4.857114   2.525723   3.196007
    16  C    2.787126   2.571338   3.684673   1.493649   2.602851
    17  H    3.832078   2.615876   2.354929   2.154543   1.102615
    18  H    5.656328   4.554244   4.636425   3.370758   2.079873
    19  H    5.184671   4.532141   5.111227   3.318338   3.264929
    20  H    6.417402   5.516726   5.802280   4.271334   3.588985
    21  H    7.587210   7.004192   7.596474   5.707080   5.513645
    22  H    7.886666   7.173688   7.730138   5.713721   5.234414
    23  H    6.400751   6.145493   7.066541   4.866396   5.200022
    24  H    7.965213   7.602810   8.465298   6.190419   6.242185
    25  H    6.609976   6.389060   7.394640   5.013882   5.289335
    26  H    7.262870   6.743985   7.538607   5.231312   5.018885
    27  H    2.338330   2.632489   3.850834   2.176226   3.500775
                    6          7          8          9         10
     6  N    0.000000
     7  C    1.487926   0.000000
     8  H    2.089117   1.121519   0.000000
     9  C    2.568514   1.548910   2.147915   0.000000
    10  C    3.877768   2.520737   2.641171   1.540419   0.000000
    11  C    4.381601   2.928308   3.128561   2.537810   1.537084
    12  C    3.799829   2.459008   2.546756   2.946970   2.545402
    13  C    2.504353   1.531846   2.133284   2.538977   3.003379
    14  H    2.697793   2.190069   2.511752   3.514499   4.009748
    15  N    3.167746   2.524166   3.432408   2.998097   3.571459
    16  C    3.127188   3.091241   4.110421   3.640483   4.567931
    17  H    2.094300   3.484896   4.177781   4.177169   5.666523
    18  H    1.022877   2.036165   2.191696   2.898095   4.154088
    19  H    2.925147   2.194647   3.082387   1.110912   2.184522
    20  H    2.767589   2.194890   2.532379   1.110697   2.176588
    21  H    4.729357   3.492575   3.687482   2.185798   1.112026
    22  H    4.112682   2.794127   2.443335   2.176724   1.112864
    23  H    4.694274   3.383801   3.882662   2.836893   2.171594
    24  H    5.395947   3.915227   3.899176   3.500095   2.182013
    25  H    4.650093   3.438443   3.579452   3.958141   3.501436
    26  H    3.987312   2.690678   2.287744   3.342360   2.826694
    27  H    4.194653   4.169942   5.185985   4.580166   5.406972
                   11         12         13         14         15
    11  C    0.000000
    12  C    1.544199   0.000000
    13  C    2.561080   1.553460   0.000000
    14  H    3.508048   2.173245   1.115466   0.000000
    15  N    2.973096   2.446664   1.464343   2.112852   0.000000
    16  C    4.203191   3.670950   2.389468   2.691489   1.293753
    17  H    6.183880   5.668037   4.196005   4.235000   4.279487
    18  H    4.907835   4.413027   3.318895   3.478983   4.134344
    19  H    2.836908   3.363657   2.780919   3.807279   2.653169
    20  H    3.494063   3.945709   3.502128   4.359966   4.012817
    21  H    2.180981   3.506141   3.988540   5.044175   4.293747
    22  H    2.169023   2.839469   3.450626   4.278109   4.346410
    23  H    1.113506   2.180621   2.829008   3.830111   2.650868
    24  H    1.111788   2.186851   3.522584   4.341020   3.977010
    25  H    2.179928   1.112062   2.188579   2.499050   2.673562
    26  H    2.181514   1.110129   2.190987   2.484640   3.408146
    27  H    4.892061   4.443720   3.343120   3.577390   2.033615
                   16         17         18         19         20
    16  C    0.000000
    17  H    3.564031   0.000000
    18  H    4.142158   2.366935   0.000000
    19  H    3.112858   4.093342   3.459003   0.000000
    20  H    4.469488   4.160861   2.728008   1.797377   0.000000
    21  H    5.225669   6.332298   4.962206   2.495763   2.533565
    22  H    5.348872   6.046333   4.169788   3.097891   2.474096
    23  H    3.813606   6.240492   5.356477   2.684017   3.847908
    24  H    5.240909   7.262240   5.845379   3.859908   4.332396
    25  H    3.885754   6.373953   5.352835   4.195028   5.002014
    26  H    4.536118   6.001134   4.391859   4.032769   4.152274
    27  H    1.099987   4.329576   5.202443   3.900475   5.419141
                   21         22         23         24         25
    21  H    0.000000
    22  H    1.799266   0.000000
    23  H    2.467910   3.084609   0.000000
    24  H    2.542217   2.468671   1.794824   0.000000
    25  H    4.337537   3.842146   2.488390   2.518685   0.000000
    26  H    3.851537   2.668370   3.097234   2.499658   1.794518
    27  H    5.955675   6.267398   4.305952   5.862487   4.444534
                   26         27
    26  H    0.000000
    27  H    5.390152   0.000000
 Symmetry turned off by external request.
 Stoichiometry    C9H13N3O2
 Framework group  C1[X(C9H13N3O2)]
 Deg. of freedom    75
 Full point group                 C1      NOp   1
 Rotational constants (GHZ):           1.5774413           0.4065932           0.3655577
 Standard basis: 6-31G(d) (6D, 7F)
   236 basis functions,   444 primitive gaussians,   236 cartesian basis functions
    52 alpha electrons       52 beta electrons
       nuclear repulsion energy       918.3103846670 Hartrees.
 NAtoms=   27 NActive=   27 NUniq=   27 SFac= 1.00D+00 NAtFMM=   60 NAOKFM=F Big=F
 Integral buffers will be    131072 words long.
 Raffenetti 1 integral format.
 Two-electron integral symmetry is turned off.
 One-electron integrals computed using PRISM.
 NBasis=   236 RedAO= T EigKep=  1.28D-03  NBF=   236
 NBsUse=   236 1.00D-06 EigRej= -1.00D+00 NBFU=   236
 ExpMin= 1.61D-01 ExpMax= 5.48D+03 ExpMxC= 8.25D+02 IAcc=3 IRadAn=         5 AccDes= 0.00D+00
 Harris functional with IExCor=  205 and IRadAn=       5 diagonalized for initial guess.
 HarFok:  IExCor=  205 AccDes= 0.00D+00 IRadAn=         5 IDoV= 1 UseB2=F ITyADJ=14
 ICtDFT=  3500011 ScaDFX=  1.000000  1.000000  1.000000  1.000000
 FoFCou: FMM=F IPFlag=           0 FMFlag=      100000 FMFlg1=           0
         NFxFlg=           0 DoJE=T BraDBF=F KetDBF=T FulRan=T
         wScrn=  0.000000 ICntrl=       500 IOpCl=  0 I1Cent=   200000004 NGrid=           0
         NMat0=    1 NMatS0=      1 NMatT0=    0 NMatD0=    1 NMtDS0=    0 NMtDT0=    0
 Symmetry not used in FoFCou.
 Keep R1 ints in memory in canonical form, NReq=397720213.
 Requested convergence on RMS density matrix=1.00D-08 within 128 cycles.
 Requested convergence on MAX density matrix=1.00D-06.
 Requested convergence on             energy=1.00D-06.
 No special actions if energy rises.
 SCF Done:  E(RHF) =  -661.271754008     A.U. after   16 cycles
            NFock= 16  Conv=0.75D-08     -V/T= 2.0036
 ExpMin= 1.61D-01 ExpMax= 5.48D+03 ExpMxC= 8.25D+02 IAcc=3 IRadAn=         5 AccDes= 0.00D+00
 HarFok:  IExCor=  205 AccDes= 0.00D+00 IRadAn=         5 IDoV=-2 UseB2=F ITyADJ=14
 ICtDFT= 12500011 ScaDFX=  1.000000  1.000000  1.000000  1.000000
 Range of M.O.s used for correlation:    15   236
 NBasis=   236 NAE=    52 NBE=    52 NFC=    14 NFV=     0
 NROrb=    222 NOA=    38 NOB=    38 NVA=   184 NVB=   184
 Fully direct method using O(ONN) memory.
 JobTyp=1 Pass  1:  I=  15 to  52 NPSUse=  4 ParTrn=T ParDer=T DoDerP=T.
 Spin components of T(2) and E(2):
     alpha-alpha T2 =       0.9220291333D-01 E2=     -0.2720585207D+00
     alpha-beta  T2 =       0.5000844279D+00 E2=     -0.1494111969D+01
     beta-beta   T2 =       0.9220291333D-01 E2=     -0.2720585207D+00
 ANorm=    0.1297879137D+01
 E2 =    -0.2038229010D+01 EUMP2 =    -0.66330998301783D+03
          IDoAtm=111111111111111111111111111
          Differentiating once with respect to electric field.
                with respect to dipole field.
          Differentiating once with respect to nuclear coordinates.
 Keep R1 ints in memory in canonical form, NReq=397723379.
          There are     1 degrees of freedom in the 1st order CPHF.  IDoFFX=0 NUNeed=     1.
 LinEq1:  Iter=  0 NonCon=     1 RMS=4.69D-03 Max=1.33D-01 NDo=     1
 AX will form     1 AO Fock derivatives at one time.
 LinEq1:  Iter=  1 NonCon=     1 RMS=1.60D-03 Max=5.18D-02 NDo=     1
 LinEq1:  Iter=  2 NonCon=     1 RMS=6.61D-04 Max=2.17D-02 NDo=     1
 LinEq1:  Iter=  3 NonCon=     1 RMS=3.02D-04 Max=9.96D-03 NDo=     1
 LinEq1:  Iter=  4 NonCon=     1 RMS=9.67D-05 Max=2.77D-03 NDo=     1
 LinEq1:  Iter=  5 NonCon=     1 RMS=4.02D-05 Max=1.79D-03 NDo=     1
 LinEq1:  Iter=  6 NonCon=     1 RMS=1.65D-05 Max=5.24D-04 NDo=     1
 LinEq1:  Iter=  7 NonCon=     1 RMS=6.32D-06 Max=8.01D-05 NDo=     1
 LinEq1:  Iter=  8 NonCon=     1 RMS=2.51D-06 Max=5.45D-05 NDo=     1
 LinEq1:  Iter=  9 NonCon=     1 RMS=9.50D-07 Max=2.87D-05 NDo=     1
 LinEq1:  Iter= 10 NonCon=     1 RMS=4.44D-07 Max=1.21D-05 NDo=     1
 LinEq1:  Iter= 11 NonCon=     1 RMS=1.73D-07 Max=5.16D-06 NDo=     1
 LinEq1:  Iter= 12 NonCon=     1 RMS=6.24D-08 Max=1.20D-06 NDo=     1
 LinEq1:  Iter= 13 NonCon=     1 RMS=2.01D-08 Max=4.70D-07 NDo=     1
 LinEq1:  Iter= 14 NonCon=     1 RMS=6.51D-09 Max=1.84D-07 NDo=     1
 LinEq1:  Iter= 15 NonCon=     1 RMS=2.35D-09 Max=6.57D-08 NDo=     1
 LinEq1:  Iter= 16 NonCon=     1 RMS=8.13D-10 Max=1.31D-08 NDo=     1
 LinEq1:  Iter= 17 NonCon=     1 RMS=2.74D-10 Max=5.95D-09 NDo=     1
 LinEq1:  Iter= 18 NonCon=     1 RMS=9.62D-11 Max=1.43D-09 NDo=     1
 LinEq1:  Iter= 19 NonCon=     0 RMS=3.35D-11 Max=6.41D-10 NDo=     1
 Linear equations converged to 1.000D-10 1.000D-09 after    19 iterations.
 End of Minotr F.D. properties file   721 does not exist.
 End of Minotr F.D. properties file   722 does not exist.
 End of Minotr F.D. properties file   788 does not exist.

 **********************************************************************

            Population analysis using the SCF Density.

 **********************************************************************

 Alpha  occ. eigenvalues --  -20.59785 -20.59465 -15.85342 -15.63729 -15.55889
 Alpha  occ. eigenvalues --  -11.35962 -11.30593 -11.30234 -11.29907 -11.27505
 Alpha  occ. eigenvalues --  -11.24618 -11.23876 -11.23203 -11.22838  -1.58507
 Alpha  occ. eigenvalues --   -1.37977  -1.29064  -1.22346  -1.13239  -1.08412
 Alpha  occ. eigenvalues --   -1.01628  -1.00694  -0.93704  -0.88887  -0.84839
 Alpha  occ. eigenvalues --   -0.81501  -0.78006  -0.76965  -0.74349  -0.71266
 Alpha  occ. eigenvalues --   -0.70277  -0.69834  -0.67347  -0.63887  -0.63440
 Alpha  occ. eigenvalues --   -0.61920  -0.59670  -0.57402  -0.56442  -0.54762
 Alpha  occ. eigenvalues --   -0.54254  -0.50511  -0.49696  -0.48642  -0.47825
 Alpha  occ. eigenvalues --   -0.47793  -0.46482  -0.45175  -0.44070  -0.42263
 Alpha  occ. eigenvalues --   -0.38592  -0.33426
 Alpha virt. eigenvalues --    0.07139   0.11252   0.17189   0.21669   0.23824
 Alpha virt. eigenvalues --    0.24641   0.25875   0.27922   0.28581   0.28902
 Alpha virt. eigenvalues --    0.30421   0.31587   0.31800   0.32454   0.33134
 Alpha virt. eigenvalues --    0.33988   0.34723   0.35864   0.37635   0.39113
 Alpha virt. eigenvalues --    0.40245   0.41120   0.43836   0.45068   0.45318
 Alpha virt. eigenvalues --    0.47200   0.49865   0.53418   0.57652   0.59110
 Alpha virt. eigenvalues --    0.63076   0.68125   0.69585   0.72615   0.74027
 Alpha virt. eigenvalues --    0.74925   0.75704   0.76313   0.78011   0.78592
 Alpha virt. eigenvalues --    0.81123   0.81987   0.84352   0.84937   0.87813
 Alpha virt. eigenvalues --    0.88300   0.90799   0.92256   0.92752   0.93604
 Alpha virt. eigenvalues --    0.95219   0.97538   0.99147   1.01148   1.01937
 Alpha virt. eigenvalues --    1.03210   1.04990   1.05672   1.07081   1.08518
 Alpha virt. eigenvalues --    1.09910   1.10783   1.11743   1.12802   1.12909
 Alpha virt. eigenvalues --    1.13338   1.14548   1.14879   1.15719   1.16622
 Alpha virt. eigenvalues --    1.17655   1.19661   1.21260   1.22144   1.22805
 Alpha virt. eigenvalues --    1.23204   1.24782   1.26201   1.27225   1.29144
 Alpha virt. eigenvalues --    1.29373   1.31239   1.34611   1.36500   1.39050
 Alpha virt. eigenvalues --    1.41677   1.47051   1.52092   1.52637   1.53086
 Alpha virt. eigenvalues --    1.54509   1.59119   1.60895   1.63901   1.66431
 Alpha virt. eigenvalues --    1.66955   1.67909   1.71678   1.73531   1.75940
 Alpha virt. eigenvalues --    1.80357   1.82446   1.83562   1.86463   1.91471
 Alpha virt. eigenvalues --    1.93230   1.95980   1.98259   1.99900   2.00907
 Alpha virt. eigenvalues --    2.02324   2.03515   2.05433   2.09609   2.11375
 Alpha virt. eigenvalues --    2.11812   2.13049   2.16490   2.18155   2.19515
 Alpha virt. eigenvalues --    2.20605   2.22380   2.24429   2.24655   2.26197
 Alpha virt. eigenvalues --    2.28802   2.31917   2.32893   2.35187   2.37271
 Alpha virt. eigenvalues --    2.39418   2.42121   2.42930   2.44632   2.45708
 Alpha virt. eigenvalues --    2.48546   2.50836   2.52248   2.56273   2.57908
 Alpha virt. eigenvalues --    2.60362   2.62898   2.67402   2.67787   2.68458
 Alpha virt. eigenvalues --    2.69386   2.70931   2.73943   2.74924   2.81606
 Alpha virt. eigenvalues --    2.84510   2.86014   2.89639   2.91880   2.93662
 Alpha virt. eigenvalues --    2.97719   2.98018   3.02109   3.05531   3.07040
 Alpha virt. eigenvalues --    3.08820   3.14702   3.19012   3.22682   3.27297
 Alpha virt. eigenvalues --    3.30575   3.31465   3.38115   3.41936   3.59743
 Alpha virt. eigenvalues --    4.10306   4.22868   4.32310   4.35816   4.44341
 Alpha virt. eigenvalues --    4.51618   4.59495   4.59922   4.70383   4.78299
 Alpha virt. eigenvalues --    4.95908   4.99256   5.04943   5.08658
          Condensed to atoms (all electrons):
               1          2          3          4          5          6
     1  O    8.303595   0.308400  -0.090259  -0.075691   0.003495  -0.000011
     2  N    0.308400   5.678452   0.312881   0.263997  -0.048601   0.000722
     3  O   -0.090259   0.312881   8.327404  -0.087861   0.007967   0.000483
     4  C   -0.075691   0.263997  -0.087861   5.262787   0.561869  -0.053350
     5  C    0.003495  -0.048601   0.007967   0.561869   4.690654   0.318392
     6  N   -0.000011   0.000722   0.000483  -0.053350   0.318392   7.146254
     7  C    0.000001  -0.000106   0.000001   0.006790  -0.030288   0.208077
     8  H   -0.000000   0.000001  -0.000000  -0.000258   0.003016  -0.044680
     9  C    0.000000  -0.000007  -0.000000   0.000636   0.000218  -0.058338
    10  C   -0.000000   0.000000   0.000000  -0.000025  -0.000012   0.003325
    11  C   -0.000000   0.000000  -0.000000  -0.000014   0.000006  -0.000146
    12  C    0.000000   0.000001  -0.000000  -0.000289  -0.000106   0.003952
    13  C   -0.000006   0.000032  -0.000000  -0.007340  -0.001433  -0.054642
    14  H    0.000000  -0.000021   0.000000   0.001470   0.002123  -0.004681
    15  N    0.000410   0.001408  -0.000007  -0.065788  -0.005149   0.002134
    16  C   -0.000248  -0.020654   0.002090   0.307477  -0.044202   0.002014
    17  H    0.000156  -0.004482   0.012606  -0.024501   0.374957  -0.031974
    18  H    0.000000  -0.000032   0.000008   0.001865  -0.026750   0.332900
    19  H    0.000000  -0.000006  -0.000000  -0.000932   0.001430  -0.000657
    20  H    0.000000   0.000000   0.000000  -0.000032  -0.000066  -0.000142
    21  H   -0.000000  -0.000000  -0.000000   0.000002   0.000001  -0.000063
    22  H   -0.000000   0.000000  -0.000000  -0.000001  -0.000001  -0.000089
    23  H    0.000000  -0.000000   0.000000   0.000025  -0.000001  -0.000024
    24  H    0.000000   0.000000   0.000000  -0.000000  -0.000000   0.000005
    25  H    0.000000  -0.000000   0.000000   0.000026  -0.000001  -0.000077
    26  H    0.000000  -0.000000   0.000000   0.000004  -0.000002  -0.000081
    27  H    0.007216  -0.000147   0.000081  -0.068612   0.001990  -0.000028
               7          8          9         10         11         12
     1  O    0.000001  -0.000000   0.000000  -0.000000  -0.000000   0.000000
     2  N   -0.000106   0.000001  -0.000007   0.000000   0.000000   0.000001
     3  O    0.000001  -0.000000  -0.000000   0.000000  -0.000000  -0.000000
     4  C    0.006790  -0.000258   0.000636  -0.000025  -0.000014  -0.000289
     5  C   -0.030288   0.003016   0.000218  -0.000012   0.000006  -0.000106
     6  N    0.208077  -0.044680  -0.058338   0.003325  -0.000146   0.003952
     7  C    5.064439   0.412002   0.342976  -0.048823  -0.008475  -0.064763
     8  H    0.412002   0.544271  -0.055950   0.000226  -0.000139  -0.003505
     9  C    0.342976  -0.055950   5.169804   0.320909  -0.053982  -0.005116
    10  C   -0.048823   0.000226   0.320909   5.125987   0.332397  -0.060881
    11  C   -0.008475  -0.000139  -0.053982   0.332397   5.125263   0.330350
    12  C   -0.064763  -0.003505  -0.005116  -0.060881   0.330350   5.144801
    13  C    0.306533  -0.037508  -0.056109  -0.000722  -0.046555   0.365438
    14  H   -0.043433  -0.000712   0.003736  -0.000384   0.003963  -0.041501
    15  N   -0.067185   0.004063  -0.010407   0.001055  -0.006736  -0.076224
    16  C    0.000201  -0.000243   0.000204  -0.000092  -0.000031   0.002987
    17  H    0.001505  -0.000060  -0.000018   0.000001  -0.000000   0.000002
    18  H   -0.030524  -0.004723   0.001266  -0.000110   0.000009  -0.000161
    19  H   -0.035453   0.003957   0.389607  -0.033965  -0.002077   0.000498
    20  H   -0.042060  -0.001821   0.397134  -0.036705   0.004124  -0.000394
    21  H    0.004101  -0.000060  -0.036066   0.400163  -0.035764   0.004252
    22  H   -0.004624   0.003566  -0.045455   0.395640  -0.045414  -0.001291
    23  H    0.000523   0.000036  -0.002066  -0.040396   0.396561  -0.037062
    24  H   -0.000150  -0.000108   0.004411  -0.038451   0.400485  -0.037543
    25  H    0.005302  -0.000024  -0.000403   0.004122  -0.033652   0.394480
    26  H   -0.004368   0.001445   0.001111  -0.002453  -0.042664   0.393519
    27  H   -0.000385   0.000008  -0.000036   0.000002   0.000007  -0.000023
              13         14         15         16         17         18
     1  O   -0.000006   0.000000   0.000410  -0.000248   0.000156   0.000000
     2  N    0.000032  -0.000021   0.001408  -0.020654  -0.004482  -0.000032
     3  O   -0.000000   0.000000  -0.000007   0.002090   0.012606   0.000008
     4  C   -0.007340   0.001470  -0.065788   0.307477  -0.024501   0.001865
     5  C   -0.001433   0.002123  -0.005149  -0.044202   0.374957  -0.026750
     6  N   -0.054642  -0.004681   0.002134   0.002014  -0.031974   0.332900
     7  C    0.306533  -0.043433  -0.067185   0.000201   0.001505  -0.030524
     8  H   -0.037508  -0.000712   0.004063  -0.000243  -0.000060  -0.004723
     9  C   -0.056109   0.003736  -0.010407   0.000204  -0.000018   0.001266
    10  C   -0.000722  -0.000384   0.001055  -0.000092   0.000001  -0.000110
    11  C   -0.046555   0.003963  -0.006736  -0.000031  -0.000000   0.000009
    12  C    0.365438  -0.041501  -0.076224   0.002987   0.000002  -0.000161
    13  C    5.017898   0.412013   0.257113  -0.065057  -0.000098   0.004103
    14  H    0.412013   0.516343  -0.032770  -0.009799  -0.000005  -0.000025
    15  N    0.257113  -0.032770   6.970853   0.570542  -0.000071  -0.000130
    16  C   -0.065057  -0.009799   0.570542   4.722481   0.001329  -0.000166
    17  H   -0.000098  -0.000005  -0.000071   0.001329   0.381769  -0.002734
    18  H    0.004103  -0.000025  -0.000130  -0.000166  -0.002734   0.325646
    19  H   -0.005622   0.000055   0.006290   0.001236  -0.000003  -0.000129
    20  H    0.003979  -0.000055   0.000085  -0.000049  -0.000024   0.001721
    21  H   -0.000424   0.000009  -0.000034   0.000003  -0.000000   0.000001
    22  H    0.000339  -0.000041   0.000011   0.000000   0.000000   0.000002
    23  H   -0.005973  -0.000003   0.006625   0.000073   0.000000   0.000000
    24  H    0.004148  -0.000062  -0.000010   0.000005   0.000000  -0.000000
    25  H   -0.034381  -0.002816   0.001742  -0.000069  -0.000000   0.000003
    26  H   -0.045103  -0.000923   0.004231  -0.000033   0.000000  -0.000001
    27  H    0.004626  -0.000119  -0.041804   0.405045  -0.000064   0.000000
              19         20         21         22         23         24
     1  O    0.000000   0.000000  -0.000000  -0.000000   0.000000   0.000000
     2  N   -0.000006   0.000000  -0.000000   0.000000  -0.000000   0.000000
     3  O   -0.000000   0.000000  -0.000000  -0.000000   0.000000   0.000000
     4  C   -0.000932  -0.000032   0.000002  -0.000001   0.000025  -0.000000
     5  C    0.001430  -0.000066   0.000001  -0.000001  -0.000001  -0.000000
     6  N   -0.000657  -0.000142  -0.000063  -0.000089  -0.000024   0.000005
     7  C   -0.035453  -0.042060   0.004101  -0.004624   0.000523  -0.000150
     8  H    0.003957  -0.001821  -0.000060   0.003566   0.000036  -0.000108
     9  C    0.389607   0.397134  -0.036066  -0.045455  -0.002066   0.004411
    10  C   -0.033965  -0.036705   0.400163   0.395640  -0.040396  -0.038451
    11  C   -0.002077   0.004124  -0.035764  -0.045414   0.396561   0.400485
    12  C    0.000498  -0.000394   0.004252  -0.001291  -0.037062  -0.037543
    13  C   -0.005622   0.003979  -0.000424   0.000339  -0.005973   0.004148
    14  H    0.000055  -0.000055   0.000009  -0.000041  -0.000003  -0.000062
    15  N    0.006290   0.000085  -0.000034   0.000011   0.006625  -0.000010
    16  C    0.001236  -0.000049   0.000003   0.000000   0.000073   0.000005
    17  H   -0.000003  -0.000024  -0.000000   0.000000   0.000000   0.000000
    18  H   -0.000129   0.001721   0.000001   0.000002   0.000000  -0.000000
    19  H    0.505156  -0.023599  -0.002525   0.003768   0.001719  -0.000076
    20  H   -0.023599   0.545263  -0.002675  -0.002905  -0.000050  -0.000090
    21  H   -0.002525  -0.002675   0.525356  -0.024698  -0.002842  -0.002061
    22  H    0.003768  -0.002905  -0.024698   0.569511   0.004079  -0.003513
    23  H    0.001719  -0.000050  -0.002842   0.004079   0.511689  -0.024853
    24  H   -0.000076  -0.000090  -0.002061  -0.003513  -0.024853   0.539961
    25  H   -0.000028   0.000011  -0.000086  -0.000083  -0.002054  -0.002427
    26  H    0.000024  -0.000035  -0.000071   0.002452   0.003873  -0.002775
    27  H    0.000058   0.000000  -0.000000   0.000000  -0.000019  -0.000000
              25         26         27
     1  O    0.000000   0.000000   0.007216
     2  N   -0.000000  -0.000000  -0.000147
     3  O    0.000000   0.000000   0.000081
     4  C    0.000026   0.000004  -0.068612
     5  C   -0.000001  -0.000002   0.001990
     6  N   -0.000077  -0.000081  -0.000028
     7  C    0.005302  -0.004368  -0.000385
     8  H   -0.000024   0.001445   0.000008
     9  C   -0.000403   0.001111  -0.000036
    10  C    0.004122  -0.002453   0.000002
    11  C   -0.033652  -0.042664   0.000007
    12  C    0.394480   0.393519  -0.000023
    13  C   -0.034381  -0.045103   0.004626
    14  H   -0.002816  -0.000923  -0.000119
    15  N    0.001742   0.004231  -0.041804
    16  C   -0.000069  -0.000033   0.405045
    17  H   -0.000000   0.000000  -0.000064
    18  H    0.000003  -0.000001   0.000000
    19  H   -0.000028   0.000024   0.000058
    20  H    0.000011  -0.000035   0.000000
    21  H   -0.000086  -0.000071  -0.000000
    22  H   -0.000083   0.002452   0.000000
    23  H   -0.002054   0.003873  -0.000019
    24  H   -0.002427  -0.002775  -0.000000
    25  H    0.509834  -0.023283  -0.000019
    26  H   -0.023283   0.566409   0.000001
    27  H   -0.000019   0.000001   0.438996
 Mulliken charges:
               1
     1  O   -0.457059
     2  N    0.508163
     3  O   -0.485395
     4  C   -0.022252
     5  C    0.190494
     6  N   -0.769276
     7  C    0.028186
     8  H    0.177198
     9  C   -0.308061
    10  C   -0.320807
    11  C   -0.317516
    12  C   -0.311421
    13  C   -0.015246
    14  H    0.197639
    15  N   -0.520247
    16  C    0.124957
    17  H    0.291710
    18  H    0.397961
    19  H    0.191273
    20  H    0.158383
    21  H    0.173483
    22  H    0.148746
    23  H    0.190141
    24  H    0.163106
    25  H    0.183886
    26  H    0.148722
    27  H    0.253230
 Sum of Mulliken charges =  -0.00000
 Mulliken charges with hydrogens summed into heavy atoms:
               1
     1  O   -0.457059
     2  N    0.508163
     3  O   -0.485395
     4  C   -0.022252
     5  C    0.482204
     6  N   -0.371315
     7  C    0.205384
     9  C    0.041596
    10  C    0.001422
    11  C    0.035731
    12  C    0.021187
    13  C    0.182393
    15  N   -0.520247
    16  C    0.378187
 Electronic spatial extent (au):  <R**2>=           3085.1912
 Charge=             -0.0000 electrons
 Dipole moment (field-independent basis, Debye):
    X=              5.1996    Y=              4.4014    Z=              2.0279  Tot=              7.1078
 Quadrupole moment (field-independent basis, Debye-Ang):
   XX=           -103.7280   YY=            -79.7607   ZZ=            -83.5724
   XY=             -0.1748   XZ=             -4.8768   YZ=              1.5576
 Traceless Quadrupole moment (field-independent basis, Debye-Ang):
   XX=            -14.7076   YY=              9.2597   ZZ=              5.4479
   XY=             -0.1748   XZ=             -4.8768   YZ=              1.5576
 Octapole moment (field-independent basis, Debye-Ang**2):
  XXX=             86.9049  YYY=             32.0346  ZZZ=              5.5480  XYY=             -4.7429
  XXY=              5.8555  XXZ=             27.7493  XZZ=             -2.6984  YZZ=             -1.7556
  YYZ=             10.5381  XYZ=             -0.2160
 Hexadecapole moment (field-independent basis, Debye-Ang**3):
 XXXX=          -3381.6339 YYYY=           -616.9409 ZZZZ=           -356.7174 XXXY=              5.4405
 XXXZ=           -179.7950 YYYX=             21.0177 YYYZ=             30.3468 ZZZX=            -83.6726
 ZZZY=             11.0447 XXYY=           -634.9011 XXZZ=           -558.4755 YYZZ=           -174.1431
 XXYZ=              9.6263 YYXZ=            -31.6105 ZZXY=             11.6018
 N-N= 9.183103846670D+02 E-N=-3.382686802288D+03  KE= 6.588832255313D+02
 Calling FoFJK, ICntrl=  10002127 FMM=F ISym2X=0 I1Cent= 0 IOpClX= 0 NMat=1 NMatS=1 NMatT=0.
 -------------------------------------------------------------------
 Center     Atomic                   Forces (Hartrees/Bohr)
 Number     Number              X              Y              Z
 -------------------------------------------------------------------
      1        8          -0.000596988   -0.018795549    0.000899008
      2        7           0.038191417    0.006935750    0.011483197
      3        8          -0.002578622    0.016991084    0.000245520
      4        6          -0.003371096    0.003641681    0.014217066
      5        6           0.001337896   -0.013076475   -0.008301681
      6        7           0.017410247   -0.001170734   -0.010627557
      7        6          -0.002345631    0.006879878    0.007546931
      8        1          -0.012878314   -0.002111054   -0.006305444
      9        6          -0.004902365    0.001351393   -0.002188975
     10        6           0.002662493   -0.001487860    0.000623527
     11        6          -0.001467078   -0.004018680   -0.001543516
     12        6           0.000826444   -0.009544788   -0.002680619
     13        6           0.016391503    0.001503038   -0.005272212
     14        1           0.000946343    0.002838971   -0.012404264
     15        7          -0.000982644   -0.011019840    0.031074802
     16        6          -0.021090410    0.015964144   -0.025402491
     17        1           0.006137145   -0.008741552    0.001866109
     18        1          -0.018488965   -0.002870867   -0.001295286
     19        1           0.003444589    0.005713081    0.007058908
     20        1          -0.002796122   -0.007932402    0.003086970
     21        1          -0.003252529    0.002356225    0.010021241
     22        1          -0.004762672   -0.004065472   -0.006801346
     23        1           0.004785613    0.005851122    0.008460461
     24        1          -0.009715741    0.002171926   -0.001137111
     25        1          -0.001451779    0.010586420   -0.002533269
     26        1          -0.005030766   -0.004672859   -0.003769903
     27        1           0.003578034    0.006723418   -0.006320066
 -------------------------------------------------------------------
 Cartesian Forces:  Max     0.038191417 RMS     0.009878063

 GradGradGradGradGradGradGradGradGradGradGradGradGradGradGradGradGradGrad
 Berny optimization.
 FormGI is forming the generalized inverse of G from B-inverse, IUseBI=4.
 Internal  Forces:  Max     0.037501234 RMS     0.007058838
 Search for a local minimum.
 Step number   1 out of a maximum of   20
 All quantities printed in internal units (Hartrees-Bohrs-Radians)
 Mixed Optimization -- RFO/linear search
 Second derivative matrix not updated -- first step.
 ITU=  0
     Eigenvalues ---    0.00233   0.00781   0.01052   0.01162   0.01357
     Eigenvalues ---    0.01440   0.01546   0.01916   0.02016   0.02112
     Eigenvalues ---    0.02692   0.03636   0.04516   0.04667   0.04841
     Eigenvalues ---    0.05021   0.05135   0.05305   0.05831   0.06237
     Eigenvalues ---    0.06740   0.07538   0.07689   0.07774   0.07980
     Eigenvalues ---    0.08044   0.08047   0.09751   0.10482   0.11715
     Eigenvalues ---    0.12260   0.13847   0.14871   0.15876   0.16000
     Eigenvalues ---    0.19867   0.22232   0.23166   0.24997   0.25000
     Eigenvalues ---    0.25000   0.25316   0.26195   0.26634   0.27972
     Eigenvalues ---    0.28096   0.28521   0.29191   0.31410   0.31989
     Eigenvalues ---    0.32028   0.32232   0.32299   0.32383   0.32386
     Eigenvalues ---    0.32411   0.32504   0.32526   0.32586   0.33247
     Eigenvalues ---    0.33395   0.33684   0.35507   0.43882   0.44359
     Eigenvalues ---    0.50517   0.67026   0.90296   0.912121000.00000
     Eigenvalues --- 1000.000001000.000001000.000001000.000001000.00000
     Eigenvalues --- 1000.000001000.000001000.000001000.000001000.00000
     Eigenvalues --- 1000.000001000.000001000.000001000.000001000.00000
     Eigenvalues --- 1000.000001000.000001000.000001000.000001000.00000
     Eigenvalues --- 1000.000001000.000001000.000001000.000001000.00000
     Eigenvalues --- 1000.000001000.000001000.000001000.000001000.00000
     Eigenvalues --- 1000.000001000.000001000.000001000.000001000.00000
     Eigenvalues --- 1000.000001000.000001000.000001000.000001000.00000
     Eigenvalues --- 1000.000001000.000001000.000001000.000001000.00000
     Eigenvalues --- 1000.000001000.000001000.000001000.000001000.00000
     Eigenvalues --- 1000.000001000.000001000.000001000.000001000.00000
     Eigenvalues --- 1000.000001000.000001000.000001000.000001000.00000
     Eigenvalues --- 1000.000001000.000001000.000001000.000001000.00000
     Eigenvalues --- 1000.000001000.000001000.000001000.000001000.00000
     Eigenvalues --- 1000.000001000.000001000.000001000.000001000.00000
     Eigenvalues --- 1000.000001000.000001000.000001000.000001000.00000
     Eigenvalues --- 1000.000001000.000001000.000001000.000001000.00000
     Eigenvalues --- 1000.000001000.000001000.000001000.000001000.00000
     Eigenvalues --- 1000.00000
 RFO step:  Lambda=-2.71014439D-02 EMin= 2.33076747D-03
 Linear search not attempted -- first point.
 Iteration  1 RMS(Cart)=  0.06308179 RMS(Int)=  0.00181671
 Iteration  2 RMS(Cart)=  0.00221284 RMS(Int)=  0.00036041
 Iteration  3 RMS(Cart)=  0.00000224 RMS(Int)=  0.00036041
 Iteration  4 RMS(Cart)=  0.00000000 RMS(Int)=  0.00036041
 Iteration  1 RMS(Cart)=  0.00010236 RMS(Int)=  0.00008459
 Iteration  2 RMS(Cart)=  0.00006930 RMS(Int)=  0.00009158
 Iteration  3 RMS(Cart)=  0.00004846 RMS(Int)=  0.00010394
 Iteration  4 RMS(Cart)=  0.00003505 RMS(Int)=  0.00011597
 Iteration  5 RMS(Cart)=  0.00002627 RMS(Int)=  0.00012641
 Iteration  6 RMS(Cart)=  0.00002042 RMS(Int)=  0.00013523
 Iteration  7 RMS(Cart)=  0.00001641 RMS(Int)=  0.00014268
 Iteration  8 RMS(Cart)=  0.00001356 RMS(Int)=  0.00014902
 Iteration  9 RMS(Cart)=  0.00001145 RMS(Int)=  0.00015447
 Iteration 10 RMS(Cart)=  0.00000981 RMS(Int)=  0.00015918
 Iteration 11 RMS(Cart)=  0.00000850 RMS(Int)=  0.00016328
 Iteration 12 RMS(Cart)=  0.00000741 RMS(Int)=  0.00016688
 Iteration 13 RMS(Cart)=  0.00000649 RMS(Int)=  0.00017004
 Iteration 14 RMS(Cart)=  0.00000570 RMS(Int)=  0.00017283
 Iteration 15 RMS(Cart)=  0.00000501 RMS(Int)=  0.00017530
 Iteration 16 RMS(Cart)=  0.00000442 RMS(Int)=  0.00017748
 Iteration 17 RMS(Cart)=  0.00000390 RMS(Int)=  0.00017941
 Iteration 18 RMS(Cart)=  0.00000344 RMS(Int)=  0.00018112
 Iteration 19 RMS(Cart)=  0.00000303 RMS(Int)=  0.00018263
 Iteration 20 RMS(Cart)=  0.00000268 RMS(Int)=  0.00018398
 Iteration 21 RMS(Cart)=  0.00000237 RMS(Int)=  0.00018517
 Iteration 22 RMS(Cart)=  0.00000209 RMS(Int)=  0.00018622
 Iteration 23 RMS(Cart)=  0.00000185 RMS(Int)=  0.00018715
 Iteration 24 RMS(Cart)=  0.00000163 RMS(Int)=  0.00018798
 Iteration 25 RMS(Cart)=  0.00000144 RMS(Int)=  0.00018871
 Iteration 26 RMS(Cart)=  0.00000128 RMS(Int)=  0.00018936
 Iteration 27 RMS(Cart)=  0.00000113 RMS(Int)=  0.00018994
 Iteration 28 RMS(Cart)=  0.00000100 RMS(Int)=  0.00019044
 Variable       Old X    -DE/DX   Delta X   Delta X   Delta X     New X
                                 (Linear)    (Quad)   (Total)
    R1        2.32379   0.01751   0.00000   0.01865   0.01865   2.34244
    R2        2.32797   0.01535   0.00000   0.01650   0.01650   2.34447
    R3        2.89606  -0.03750   0.00000  -0.11755  -0.11755   2.77851
    R4        2.64558  -0.03142   0.00000  -0.06786  -0.06766   2.57792
    R5        2.82259  -0.02592   0.00000  -0.07593  -0.07602   2.74657
    R6        2.58218  -0.02132   0.00000  -0.03983  -0.03949   2.54269
    R7        2.08364  -0.01068   0.00000  -0.02958  -0.02958   2.05406
    R8        2.81177  -0.01592   0.00000  -0.03871  -0.03850   2.77327
    R9        1.93296  -0.00709   0.00000  -0.01521  -0.01521   1.91775
   R10        2.11936  -0.01322   0.00000  -0.03876  -0.03876   2.08061
   R11        2.92702  -0.01313   0.00000  -0.04527  -0.04515   2.88187
   R12        2.89477  -0.00086   0.00000  -0.00201  -0.00213   2.89264
   R13        2.91097  -0.00409   0.00000  -0.01422  -0.01438   2.89659
   R14        2.09932  -0.00945   0.00000  -0.02684  -0.02684   2.07248
   R15        2.09891  -0.00853   0.00000  -0.02422  -0.02422   2.07470
   R16        2.90467  -0.00128   0.00000  -0.00579  -0.00578   2.89889
   R17        2.10142  -0.01053   0.00000  -0.03001  -0.03001   2.07141
   R18        2.10301  -0.00896   0.00000  -0.02559  -0.02559   2.07742
   R19        2.91811  -0.00945   0.00000  -0.02853  -0.02862   2.88949
   R20        2.10422  -0.01118   0.00000  -0.03199  -0.03199   2.07223
   R21        2.10098  -0.00998   0.00000  -0.02840  -0.02840   2.07257
   R22        2.93561  -0.01137   0.00000  -0.03686  -0.03668   2.89894
   R23        2.10149  -0.01084   0.00000  -0.03088  -0.03088   2.07061
   R24        2.09784  -0.00765   0.00000  -0.02168  -0.02168   2.07616
   R25        2.10793  -0.01192   0.00000  -0.03430  -0.03430   2.07362
   R26        2.76721  -0.00396   0.00000  -0.00468  -0.00496   2.76225
   R27        2.44484   0.00046   0.00000  -0.00043  -0.00074   2.44410
   R28        2.07867  -0.00546   0.00000  -0.01501  -0.01501   2.06366
    A1        2.15370   0.01120   0.00000   0.04058   0.04048   2.19418
    A2        2.05718  -0.00459   0.00000  -0.01638  -0.01648   2.04069
    A3        2.07190  -0.00656   0.00000  -0.02349  -0.02359   2.04831
    A4        2.01556  -0.01008   0.00000  -0.03127  -0.03114   1.98442
    A5        2.03072  -0.00297   0.00000  -0.00547  -0.00535   2.02537
    A6        2.23679   0.01307   0.00000   0.03714   0.03655   2.27333
    A7        2.19942   0.00568   0.00000   0.01577   0.01530   2.21472
    A8        2.06572  -0.00387   0.00000  -0.01328  -0.01373   2.05199
    A9        2.01804  -0.00182   0.00000  -0.00230  -0.00286   2.01518
   A10        2.22652  -0.00670   0.00000  -0.00478  -0.00385   2.22267
   A11        2.10051  -0.01251   0.00000  -0.08796  -0.08842   2.01209
   A12        1.86606   0.01941   0.00000   0.09253   0.09254   1.95860
   A13        1.84156  -0.00221   0.00000  -0.01353  -0.01272   1.82885
   A14        2.01582  -0.00166   0.00000  -0.01064  -0.01086   2.00496
   A15        1.95563   0.00259   0.00000  -0.02098  -0.02263   1.93300
   A16        1.84974   0.00363   0.00000   0.03373   0.03325   1.88300
   A17        1.84988   0.00169   0.00000   0.02669   0.02652   1.87640
   A18        1.93735  -0.00353   0.00000  -0.00790  -0.00740   1.92994
   A19        1.90873   0.00020   0.00000  -0.00840  -0.00860   1.90013
   A20        1.92178  -0.00056   0.00000  -0.01354  -0.01350   1.90828
   A21        1.92233  -0.00198   0.00000  -0.00520  -0.00518   1.91715
   A22        1.91817  -0.00085   0.00000   0.00297   0.00270   1.92086
   A23        1.90765   0.00360   0.00000   0.02933   0.02952   1.93717
   A24        1.88504  -0.00039   0.00000  -0.00469  -0.00494   1.88011
   A25        1.93910  -0.00071   0.00000   0.00537   0.00507   1.94418
   A26        1.91876  -0.00088   0.00000  -0.00762  -0.00756   1.91121
   A27        1.90566   0.00033   0.00000  -0.00251  -0.00253   1.90313
   A28        1.91620   0.00049   0.00000   0.00636   0.00644   1.92264
   A29        1.89924   0.00196   0.00000   0.01164   0.01174   1.91099
   A30        1.88387  -0.00118   0.00000  -0.01365  -0.01377   1.87011
   A31        1.94425   0.00182   0.00000   0.01053   0.01086   1.95510
   A32        1.90205  -0.00009   0.00000   0.00303   0.00303   1.90508
   A33        1.91784   0.00047   0.00000   0.00593   0.00575   1.92359
   A34        1.90581  -0.00140   0.00000  -0.01566  -0.01579   1.89002
   A35        1.91593  -0.00089   0.00000  -0.00032  -0.00051   1.91542
   A36        1.87660   0.00001   0.00000  -0.00417  -0.00417   1.87243
   A37        1.94671  -0.00470   0.00000  -0.02120  -0.02122   1.92549
   A38        1.90632   0.00265   0.00000   0.01428   0.01413   1.92045
   A39        1.91039   0.00220   0.00000   0.01556   0.01549   1.92589
   A40        1.90703   0.00107   0.00000  -0.00180  -0.00172   1.90531
   A41        1.91220  -0.00007   0.00000  -0.00407  -0.00391   1.90829
   A42        1.87995  -0.00102   0.00000  -0.00211  -0.00229   1.87767
   A43        1.84461   0.00652   0.00000   0.02389   0.02371   1.86832
   A44        1.93133  -0.00496   0.00000  -0.01478  -0.01522   1.91611
   A45        2.00334  -0.00055   0.00000  -0.00856  -0.00875   1.99458
   A46        1.88330   0.00202   0.00000   0.02906   0.02903   1.91233
   A47        1.89021  -0.00382   0.00000  -0.02896  -0.02843   1.86178
   A48        1.90630   0.00112   0.00000   0.00218   0.00224   1.90853
   A49        2.09347  -0.00251   0.00000   0.02790   0.02789   2.12136
   A50        2.26563  -0.00610   0.00000  -0.04138  -0.04306   2.22257
   A51        1.97588   0.00216   0.00000   0.01044   0.01073   1.98661
   A52        2.02619   0.00430   0.00000   0.02424   0.02452   2.05071
    D1       -2.98238   0.00065   0.00000  -0.02595  -0.02560  -3.00798
    D2        0.14413   0.00161   0.00000   0.00000   0.00000   0.14413
    D3        0.18861  -0.00165   0.00000  -0.05254  -0.05237   0.13624
    D4       -2.96806  -0.00068   0.00000  -0.02659  -0.02677  -2.99483
    D5       -3.13638   0.00104   0.00000  -0.03831  -0.03915   3.10765
    D6        0.00127   0.00148   0.00000   0.02285   0.02210   0.02338
    D7        0.02240   0.00015   0.00000  -0.06733  -0.06872  -0.04633
    D8       -3.12314   0.00058   0.00000  -0.00617  -0.00747  -3.13061
    D9        2.95268   0.00609   0.00000   0.08175   0.08020   3.03288
   D10        0.00945   0.00318   0.00000   0.12044   0.12000   0.12945
   D11       -0.20623   0.00694   0.00000   0.11078   0.11014  -0.09609
   D12        3.13373   0.00403   0.00000   0.14947   0.14994  -2.99952
   D13        0.34971  -0.00280   0.00000   0.02609   0.02519   0.37490
   D14        2.98776   0.00273   0.00000   0.04813   0.04787   3.03562
   D15       -2.78804  -0.00322   0.00000  -0.03358  -0.03492  -2.82296
   D16       -0.14999   0.00231   0.00000  -0.01154  -0.01225  -0.16224
   D17       -2.93236   0.00013   0.00000  -0.01353  -0.01314  -2.94550
   D18        1.31441  -0.00196   0.00000  -0.04029  -0.03969   1.27472
   D19       -0.92714   0.00214   0.00000   0.00000   0.00001  -0.92713
   D20        0.65954   0.00168   0.00000   0.00563   0.00533   0.66487
   D21       -1.37688  -0.00041   0.00000  -0.02113  -0.02122  -1.39810
   D22        2.66476   0.00369   0.00000   0.01916   0.01848   2.68323
   D23        2.94792   0.00295   0.00000   0.05144   0.05203   2.99995
   D24       -1.22587   0.00167   0.00000   0.04125   0.04170  -1.18417
   D25        0.85117  -0.00039   0.00000   0.02380   0.02430   0.87547
   D26        0.91612   0.00416   0.00000   0.05138   0.05159   0.96772
   D27        3.02551   0.00288   0.00000   0.04119   0.04127   3.06678
   D28       -1.18063   0.00082   0.00000   0.02374   0.02387  -1.15676
   D29       -1.08471   0.00189   0.00000   0.00512   0.00490  -1.07981
   D30        1.02468   0.00062   0.00000  -0.00507  -0.00543   1.01926
   D31        3.10173  -0.00145   0.00000  -0.02252  -0.02283   3.07890
   D32       -2.89216  -0.00128   0.00000  -0.02462  -0.02435  -2.91651
   D33       -0.85777   0.00229   0.00000   0.01569   0.01568  -0.84209
   D34        1.30937  -0.00068   0.00000   0.00000   0.00002   1.30939
   D35       -0.89204  -0.00164   0.00000  -0.03583  -0.03592  -0.92796
   D36        1.14236   0.00192   0.00000   0.00449   0.00410   1.14646
   D37       -2.97369  -0.00104   0.00000  -0.01120  -0.01156  -2.98525
   D38        1.10870   0.00185   0.00000   0.01483   0.01491   1.12362
   D39       -3.14009   0.00541   0.00000   0.05514   0.05494  -3.08515
   D40       -0.97295   0.00244   0.00000   0.03945   0.03928  -0.93367
   D41        0.95666   0.00118   0.00000   0.00000   0.00000   0.95666
   D42        3.08139   0.00073   0.00000   0.00643   0.00635   3.08774
   D43       -1.13818  -0.00103   0.00000  -0.01617  -0.01615  -1.15434
   D44       -1.15493   0.00228   0.00000   0.02018   0.02031  -1.13462
   D45        0.96980   0.00182   0.00000   0.02661   0.02666   0.99646
   D46        3.03342   0.00007   0.00000   0.00401   0.00415   3.03757
   D47        3.06238   0.00110   0.00000   0.00653   0.00654   3.06892
   D48       -1.09607   0.00064   0.00000   0.01296   0.01288  -1.08319
   D49        0.96754  -0.00111   0.00000  -0.00965  -0.00962   0.95792
   D50       -0.92193  -0.00095   0.00000   0.00000   0.00000  -0.92192
   D51        1.18195  -0.00161   0.00000  -0.01087  -0.01084   1.17111
   D52       -3.04912  -0.00138   0.00000  -0.01072  -0.01077  -3.05989
   D53       -3.04815   0.00029   0.00000   0.00173   0.00177  -3.04638
   D54       -0.94428  -0.00036   0.00000  -0.00913  -0.00907  -0.95335
   D55        1.10784  -0.00013   0.00000  -0.00898  -0.00900   1.09884
   D56        1.17672   0.00029   0.00000   0.00773   0.00775   1.18447
   D57       -3.00259  -0.00037   0.00000  -0.00314  -0.00309  -3.00568
   D58       -0.95047  -0.00014   0.00000  -0.00299  -0.00302  -0.95350
   D59        0.98895  -0.00160   0.00000  -0.01545  -0.01537   0.97358
   D60        3.09875  -0.00151   0.00000  -0.02177  -0.02186   3.07689
   D61       -1.13008   0.00008   0.00000  -0.00699  -0.00689  -1.13697
   D62       -1.11271  -0.00172   0.00000  -0.01559  -0.01552  -1.12823
   D63        0.99708  -0.00162   0.00000  -0.02191  -0.02200   0.97508
   D64        3.05144  -0.00004   0.00000  -0.00713  -0.00703   3.04440
   D65        3.11725  -0.00039   0.00000  -0.00114  -0.00107   3.11619
   D66       -1.05614  -0.00030   0.00000  -0.00746  -0.00755  -1.06369
   D67        0.99822   0.00129   0.00000   0.00732   0.00742   1.00564
   D68       -1.05564  -0.00014   0.00000   0.00449   0.00470  -1.05094
   D69       -3.12234   0.00124   0.00000  -0.00511  -0.00547  -3.12781
   D70        1.09930   0.00088   0.00000  -0.00788  -0.00804   1.09126
   D71        3.11816  -0.00115   0.00000   0.00144   0.00172   3.11988
   D72        1.05147   0.00023   0.00000  -0.00816  -0.00845   1.04302
   D73       -1.01008  -0.00013   0.00000  -0.01093  -0.01102  -1.02110
   D74        1.06234  -0.00050   0.00000   0.00741   0.00774   1.07008
   D75       -1.00435   0.00087   0.00000  -0.00219  -0.00243  -1.00678
   D76       -3.06590   0.00051   0.00000  -0.00496  -0.00500  -3.07090
   D77       -1.17218   0.00980   0.00000   0.00000   0.00001  -1.17216
   D78        3.05499   0.00457   0.00000  -0.00471  -0.00499   3.05001
   D79        1.00816   0.00368   0.00000  -0.02432  -0.02476   0.98340
   D80        0.61442  -0.01150   0.00000  -0.06952  -0.06800   0.54641
   D81       -2.73024  -0.00877   0.00000  -0.11068  -0.11071  -2.84095
         Item               Value     Threshold  Converged?
 Maximum Force            0.037501     0.000450     NO 
 RMS     Force            0.006968     0.000300     NO 
 Maximum Displacement     0.325375     0.001800     NO 
 RMS     Displacement     0.063590     0.001200     NO 
 Predicted change in Energy=-1.604208D-02
 GradGradGradGradGradGradGradGradGradGradGradGradGradGradGradGradGradGrad

                          Input orientation:                          
 ---------------------------------------------------------------------
 Center     Atomic      Atomic             Coordinates (Angstroms)
 Number     Number       Type             X           Y           Z
 ---------------------------------------------------------------------
      1          8           0       -3.498563   -1.284280   -0.616920
      2          7           0       -3.060809   -0.135661   -0.457002
      3          8           0       -3.707892    0.912821   -0.602473
      4          6           0       -1.649640   -0.009752   -0.063810
      5          6           0       -1.280636    1.264495    0.254157
      6          7           0       -0.071736    1.672604    0.681314
      7          6           0        1.213807    0.987866    0.501809
      8          1           0        1.913040    1.525725    1.160597
      9          6           0        1.774204    1.036662   -0.915672
     10          6           0        3.196932    0.466346   -0.906175
     11          6           0        3.231390   -0.941455   -0.297782
     12          6           0        2.569995   -0.986859    1.080080
     13          6           0        1.132408   -0.457675    0.998693
     14          1           0        0.674631   -0.482525    1.995649
     15          7           0        0.403468   -1.359152    0.108409
     16          6           0       -0.869329   -1.235755   -0.085365
     17          1           0       -2.045488    2.035567    0.210134
     18          1           0        0.038328    2.677039    0.775514
     19          1           0        1.135049    0.442046   -1.579514
     20          1           0        1.767569    2.071015   -1.283660
     21          1           0        3.589668    0.445427   -1.929333
     22          1           0        3.847072    1.133978   -0.323000
     23          1           0        2.695787   -1.632591   -0.959554
     24          1           0        4.266238   -1.297149   -0.223952
     25          1           0        2.553693   -2.016352    1.454883
     26          1           0        3.140444   -0.381389    1.797744
     27          1           0       -1.398629   -2.087995   -0.516741
 ---------------------------------------------------------------------
                    Distance matrix (angstroms):
                    1          2          3          4          5
     1  O    0.000000
     2  N    1.239567   0.000000
     3  O    2.207098   1.240642   0.000000
     4  C    2.312761   1.470323   2.318987   0.000000
     5  C    3.489158   2.373858   2.597896   1.364175   0.000000
     6  N    4.708685   3.674254   3.930269   2.423905   1.345532
     7  C    5.349826   4.522607   5.044620   3.084558   2.521924
     8  H    6.351468   5.487806   5.922748   4.068115   3.330082
     9  C    5.768717   4.996206   5.492432   3.680131   3.279093
    10  C    6.926616   6.302657   6.925906   4.942217   4.693828
    11  C    6.746233   6.345584   7.189216   4.974663   5.052646
    12  C    6.308381   5.898569   6.771384   4.479793   4.536309
    13  C    4.973870   4.450373   5.279252   3.011535   3.056629
    14  H    4.988374   4.482112   5.282399   3.141198   3.147688
    15  N    3.969579   3.717235   4.750842   2.462883   3.121053
    16  C    2.682868   2.480102   3.597391   1.453421   2.556501
    17  H    3.717099   2.488007   2.164364   2.101207   1.086964
    18  H    5.490038   4.362915   4.364112   3.282156   2.001689
    19  H    5.037573   4.381667   4.962894   3.202495   3.142340
    20  H    6.279705   5.372711   5.637917   4.182696   3.508120
    21  H    7.413321   6.836246   7.431917   5.580118   5.399848
    22  H    7.739038   7.024867   7.563366   5.620422   5.161737
    23  H    6.213589   5.969235   6.900271   4.724268   5.067360
    24  H    7.774750   7.422196   8.283357   6.056456   6.128492
    25  H    6.438797   6.222133   7.212505   4.899070   5.187271
    26  H    7.121954   6.603015   7.371278   5.152515   4.963622
    27  H    2.250715   2.564765   3.787472   2.141786   3.442004
                    6          7          8          9         10
     6  N    0.000000
     7  C    1.467552   0.000000
     8  H    2.047101   1.101009   0.000000
     9  C    2.522356   1.525018   2.137604   0.000000
    10  C    3.828755   2.487406   2.653716   1.532810   0.000000
    11  C    4.324647   2.903837   3.154662   2.533402   1.534025
    12  C    3.769682   2.464383   2.598298   2.951431   2.539697
    13  C    2.467545   1.530721   2.137633   2.511918   2.957125
    14  H    2.632322   2.164329   2.502806   3.463060   3.960169
    15  N    3.121791   2.513943   3.421758   2.944076   3.487874
    16  C    3.111672   3.103018   4.113365   3.583511   4.483899
    17  H    2.061420   3.435951   4.102837   4.105520   5.584941
    18  H    1.014829   2.076046   2.233463   2.926467   4.206188
    19  H    2.842876   2.153144   3.047596   1.096710   2.169179
    20  H    2.720827   2.160501   2.508565   1.097883   2.181866
    21  H    4.661257   3.442297   3.677743   2.161707   1.096144
    22  H    4.081154   2.763285   2.468806   2.158127   1.099322
    23  H    4.612585   3.346438   3.883645   2.824208   2.158595
    24  H    5.334506   3.881412   3.927230   3.483588   2.172270
    25  H    4.593439   3.424759   3.611558   3.943099   3.485991
    26  H    3.972833   2.695596   2.355750   3.352627   2.834259
    27  H    4.163902   4.162114   5.180694   4.470961   5.272143
                   11         12         13         14         15
    11  C    0.000000
    12  C    1.529054   0.000000
    13  C    2.514083   1.534052   0.000000
    14  H    3.465179   2.164493   1.097315   0.000000
    15  N    2.887318   2.403453   1.461718   2.098494   0.000000
    16  C    4.116750   3.639940   2.405731   2.698478   1.293363
    17  H    6.079974   5.585209   4.115472   4.114353   4.187105
    18  H    4.943795   4.463882   3.327649   3.446223   4.107212
    19  H    2.819851   3.342795   2.730687   3.721372   2.574608
    20  H    3.491376   3.947372   3.465088   4.297552   3.945209
    21  H    2.171120   3.485360   3.927728   4.976346   4.190557
    22  H    2.164976   2.845612   3.413155   4.248953   4.273198
    23  H    1.096578   2.143105   2.767546   3.760446   2.543628
    24  H    1.096758   2.161947   3.467054   4.299987   3.877538
    25  H    2.164835   1.095719   2.158156   2.485142   2.620758
    26  H    2.170985   1.098658   2.162524   2.475809   3.361683
    27  H    4.774891   4.417275   3.370554   3.631535   2.041955
                   16         17         18         19         20
    16  C    0.000000
    17  H    3.488870   0.000000
    18  H    4.107908   2.252428   0.000000
    19  H    3.010818   3.982206   3.426973   0.000000
    20  H    4.395893   4.095373   2.756399   1.772330   0.000000
    21  H    5.109720   6.233847   4.990821   2.479423   2.525762
    22  H    5.283611   5.984928   4.253739   3.068007   2.474922
    23  H    3.692118   6.107638   5.352145   2.669152   3.831884
    24  H    5.137804   7.150756   5.887981   3.829712   4.325605
    25  H    3.833898   6.254592   5.368102   4.154977   4.982387
    26  H    4.511576   5.937683   4.474601   4.013169   4.170626
    27  H    1.092043   4.236807   5.142015   3.734985   5.283024
                   21         22         23         24         25
    21  H    0.000000
    22  H    1.766540   0.000000
    23  H    2.461230   3.063424   0.000000
    24  H    2.530344   2.468985   1.766338   0.000000
    25  H    4.311208   3.841650   2.448871   2.503707   0.000000
    26  H    3.844025   2.700596   3.060380   2.488631   1.770575
    27  H    5.770333   6.159223   4.143395   5.727293   4.417385
                   26         27
    26  H    0.000000
    27  H    5.373317   0.000000
 Symmetry turned off by external request.
 Stoichiometry    C9H13N3O2
 Framework group  C1[X(C9H13N3O2)]
 Deg. of freedom    75
 Full point group                 C1      NOp   1
 Rotational constants (GHZ):           1.6056874           0.4266077           0.3815368
 Standard basis: 6-31G(d) (6D, 7F)
   236 basis functions,   444 primitive gaussians,   236 cartesian basis functions
    52 alpha electrons       52 beta electrons
       nuclear repulsion energy       932.5552541807 Hartrees.
 NAtoms=   27 NActive=   27 NUniq=   27 SFac= 1.00D+00 NAtFMM=   60 NAOKFM=F Big=F
 Integral buffers will be    131072 words long.
 Raffenetti 1 integral format.
 Two-electron integral symmetry is turned off.
 One-electron integrals computed using PRISM.
 NBasis=   236 RedAO= T EigKep=  1.04D-03  NBF=   236
 NBsUse=   236 1.00D-06 EigRej= -1.00D+00 NBFU=   236
 Initial guess from the checkpoint file:  "/home/alexey/tmp/Gau-1258887.chk"
 B after Tr=     0.052485    0.005071    0.018361
         Rot=    0.999997   -0.000702   -0.002181    0.000442 Ang=  -0.27 deg.
 ExpMin= 1.61D-01 ExpMax= 5.48D+03 ExpMxC= 8.25D+02 IAcc=3 IRadAn=         5 AccDes= 0.00D+00
 Harris functional with IExCor=  205 and IRadAn=       5 diagonalized for initial guess.
 HarFok:  IExCor=  205 AccDes= 0.00D+00 IRadAn=         5 IDoV= 1 UseB2=F ITyADJ=14
 ICtDFT=  3500011 ScaDFX=  1.000000  1.000000  1.000000  1.000000
 FoFCou: FMM=F IPFlag=           0 FMFlag=      100000 FMFlg1=           0
         NFxFlg=           0 DoJE=T BraDBF=F KetDBF=T FulRan=T
         wScrn=  0.000000 ICntrl=       500 IOpCl=  0 I1Cent=   200000004 NGrid=           0
         NMat0=    1 NMatS0=      1 NMatT0=    0 NMatD0=    1 NMtDS0=    0 NMtDT0=    0
 Symmetry not used in FoFCou.
 Keep R1 ints in memory in canonical form, NReq=397720213.
 Requested convergence on RMS density matrix=1.00D-08 within 128 cycles.
 Requested convergence on MAX density matrix=1.00D-06.
 Requested convergence on             energy=1.00D-06.
 No special actions if energy rises.
 SCF Done:  E(RHF) =  -661.290699941     A.U. after   15 cycles
            NFock= 15  Conv=0.71D-08     -V/T= 2.0025
 ExpMin= 1.61D-01 ExpMax= 5.48D+03 ExpMxC= 8.25D+02 IAcc=3 IRadAn=         5 AccDes= 0.00D+00
 HarFok:  IExCor=  205 AccDes= 0.00D+00 IRadAn=         5 IDoV=-2 UseB2=F ITyADJ=14
 ICtDFT= 12500011 ScaDFX=  1.000000  1.000000  1.000000  1.000000
 Range of M.O.s used for correlation:    15   236
 NBasis=   236 NAE=    52 NBE=    52 NFC=    14 NFV=     0
 NROrb=    222 NOA=    38 NOB=    38 NVA=   184 NVB=   184
 Fully direct method using O(ONN) memory.
 JobTyp=1 Pass  1:  I=  15 to  52 NPSUse=  4 ParTrn=T ParDer=T DoDerP=T.
 Spin components of T(2) and E(2):
     alpha-alpha T2 =       0.9156501353D-01 E2=     -0.2726758340D+00
     alpha-beta  T2 =       0.4922716798D+00 E2=     -0.1488841257D+01
     beta-beta   T2 =       0.9156501353D-01 E2=     -0.2726758340D+00
 ANorm=    0.1294373094D+01
[...]
                   16         17         18         19         20
    16  C    0.000000
    17  H    3.467124   0.000000
    18  H    4.076491   2.216675   0.000000
    19  H    2.952893   3.994481   3.427416   0.000000
    20  H    4.367316   4.162157   2.818036   1.769274   0.000000
    21  H    5.059390   6.272794   5.037713   2.499530   2.520571
    22  H    5.244243   6.005247   4.301899   3.070062   2.460982
    23  H    3.655703   6.121884   5.378998   2.707243   3.845468
    24  H    5.116804   7.160550   5.921804   3.851162   4.317773
    25  H    3.837407   6.231679   5.377986   4.174008   4.991494
    26  H    4.530359   5.949191   4.523331   4.045555   4.195976
    27  H    1.090201   4.225100   5.095187   3.580629   5.170993
                   21         22         23         24         25
    21  H    0.000000
    22  H    1.758820   0.000000
    23  H    2.469232   3.062381   0.000000
    24  H    2.515173   2.459499   1.764305   0.000000
    25  H    4.312379   3.844283   2.439786   2.521989   0.000000
    26  H    3.852104   2.712630   3.059861   2.490625   1.769149
    27  H    5.612045   6.045646   4.018292   5.635758   4.411485
                   26         27
    26  H    0.000000
    27  H    5.372185   0.000000
 Symmetry turned off by external request.
 Stoichiometry    C9H13N3O2
 Framework group  C1[X(C9H13N3O2)]
 Deg. of freedom    75
 Full point group                 C1      NOp   1
 Rotational constants (GHZ):           1.6367935           0.4208145           0.3765962

 **********************************************************************

            Population analysis using the SCF Density.

 **********************************************************************

 Alpha  occ. eigenvalues --  -20.59370 -20.59021 -15.84823 -15.63789 -15.55776
 Alpha  occ. eigenvalues --  -11.34900 -11.29684 -11.29488 -11.28803 -11.27101
 Alpha  occ. eigenvalues --  -11.23975 -11.23349 -11.22606 -11.22130  -1.57238
 Alpha  occ. eigenvalues --   -1.36831  -1.30667  -1.22635  -1.14764  -1.09788
 Alpha  occ. eigenvalues --   -1.02779  -1.01408  -0.94418  -0.89686  -0.85690
 Alpha  occ. eigenvalues --   -0.82417  -0.78454  -0.77369  -0.74859  -0.71537
 Alpha  occ. eigenvalues --   -0.69793  -0.69523  -0.67999  -0.64712  -0.63933
 Alpha  occ. eigenvalues --   -0.62456  -0.60052  -0.57904  -0.56816  -0.55174
 Alpha  occ. eigenvalues --   -0.54444  -0.50802  -0.50473  -0.48777  -0.48181
 Alpha  occ. eigenvalues --   -0.47452  -0.46332  -0.45948  -0.43775  -0.42076
 Alpha  occ. eigenvalues --   -0.38756  -0.33725
 Alpha virt. eigenvalues --    0.06998   0.11427   0.17474   0.22001   0.24145
 Alpha virt. eigenvalues --    0.25882   0.27159   0.28642   0.29137   0.29523
 Alpha virt. eigenvalues --    0.30675   0.31823   0.32084   0.32795   0.33697
 Alpha virt. eigenvalues --    0.34339   0.36090   0.37583   0.38295   0.40385
 Alpha virt. eigenvalues --    0.41078   0.42215   0.44636   0.45882   0.46141
 Alpha virt. eigenvalues --    0.47737   0.48854   0.53621   0.57479   0.58972
 Alpha virt. eigenvalues --    0.63778   0.68637   0.69747   0.72978   0.73852
 Alpha virt. eigenvalues --    0.75443   0.75556   0.76304   0.78338   0.79383
 Alpha virt. eigenvalues --    0.81230   0.83745   0.85393   0.85943   0.88287
 Alpha virt. eigenvalues --    0.88359   0.91390   0.92317   0.92994   0.94557
 Alpha virt. eigenvalues --    0.95523   0.97859   0.99754   1.01605   1.02297
 Alpha virt. eigenvalues --    1.03078   1.05665   1.06730   1.07956   1.08868
 Alpha virt. eigenvalues --    1.10514   1.11819   1.12046   1.12936   1.13821
 Alpha virt. eigenvalues --    1.14417   1.15256   1.15945   1.17131   1.18356
 Alpha virt. eigenvalues --    1.18605   1.21548   1.23144   1.23697   1.24654
 Alpha virt. eigenvalues --    1.25022   1.25509   1.27050   1.28137   1.29900
 Alpha virt. eigenvalues --    1.30882   1.32386   1.35843   1.36903   1.39950
 Alpha virt. eigenvalues --    1.40610   1.47663   1.48796   1.52372   1.54570
 Alpha virt. eigenvalues --    1.56966   1.60335   1.61469   1.63497   1.65494
 Alpha virt. eigenvalues --    1.67687   1.70297   1.71892   1.74880   1.79075
 Alpha virt. eigenvalues --    1.81145   1.83756   1.86237   1.89030   1.92312
 Alpha virt. eigenvalues --    1.95909   1.96188   1.99763   2.01441   2.02393
 Alpha virt. eigenvalues --    2.04656   2.05721   2.09829   2.10407   2.11722
 Alpha virt. eigenvalues --    2.12420   2.15193   2.18447   2.20314   2.20902
 Alpha virt. eigenvalues --    2.21669   2.24406   2.24519   2.27049   2.28546
 Alpha virt. eigenvalues --    2.30415   2.33477   2.34407   2.36397   2.37771
 Alpha virt. eigenvalues --    2.40929   2.42714   2.44611   2.45401   2.48413
 Alpha virt. eigenvalues --    2.51645   2.52279   2.53999   2.56704   2.59219
 Alpha virt. eigenvalues --    2.62502   2.66860   2.67608   2.68629   2.70163
 Alpha virt. eigenvalues --    2.71121   2.71992   2.75587   2.77616   2.84205
 Alpha virt. eigenvalues --    2.86002   2.87742   2.92903   2.93790   2.96006
 Alpha virt. eigenvalues --    2.98518   3.00809   3.03417   3.06614   3.08744
 Alpha virt. eigenvalues --    3.10558   3.16357   3.21070   3.25102   3.26908
 Alpha virt. eigenvalues --    3.33021   3.35796   3.38464   3.51595   3.65305
 Alpha virt. eigenvalues --    4.13221   4.27892   4.33334   4.39318   4.47233
 Alpha virt. eigenvalues --    4.54914   4.61660   4.62109   4.72610   4.80626
 Alpha virt. eigenvalues --    4.98652   5.00556   5.05582   5.10528
          Condensed to atoms (all electrons):
               1          2          3          4          5          6
     1  O    8.315418   0.304954  -0.082474  -0.083632   0.004458  -0.000012
     2  N    0.304954   5.722238   0.302611   0.259457  -0.054627   0.000853
     3  O   -0.082474   0.302611   8.350599  -0.091636   0.002801   0.000745
     4  C   -0.083632   0.259457  -0.091636   5.238701   0.565758  -0.056972
     5  C    0.004458  -0.054627   0.002801   0.565758   4.725178   0.321890
     6  N   -0.000012   0.000853   0.000745  -0.056972   0.321890   7.155536
     7  C    0.000002  -0.000111   0.000001   0.005443  -0.029818   0.197641
     8  H   -0.000000   0.000002  -0.000000  -0.000297   0.003910  -0.046622
     9  C   -0.000000  -0.000010  -0.000000   0.000503  -0.000323  -0.062690
    10  C   -0.000000   0.000000   0.000000  -0.000040   0.000002   0.003880
    11  C   -0.000000  -0.000000  -0.000000  -0.000017   0.000009  -0.000163
    12  C    0.000000   0.000001  -0.000000  -0.000297  -0.000135   0.003764
    13  C   -0.000013   0.000027  -0.000001  -0.005926  -0.002354  -0.062256
    14  H    0.000000  -0.000054   0.000001   0.001491   0.003051  -0.005744
    15  N    0.000567   0.002229  -0.000015  -0.066927  -0.006407   0.000951
    16  C    0.000403  -0.024457   0.002583   0.314978  -0.050979   0.000386
    17  H    0.000214  -0.006598   0.016796  -0.024305   0.376713  -0.033175
    18  H    0.000001  -0.000056   0.000015   0.002702  -0.034398   0.338649
    19  H    0.000001  -0.000014   0.000000  -0.001469   0.002377  -0.001549
    20  H    0.000000   0.000000   0.000000  -0.000012  -0.000137   0.000417
    21  H   -0.000000  -0.000000  -0.000000   0.000002   0.000000  -0.000082
    22  H   -0.000000   0.000000  -0.000000  -0.000001  -0.000001  -0.000095
    23  H    0.000000  -0.000000   0.000000   0.000045  -0.000001  -0.000029
    24  H    0.000000   0.000000   0.000000  -0.000000  -0.000000   0.000006
    25  H    0.000000  -0.000000   0.000000   0.000031  -0.000003  -0.000089
    26  H    0.000000  -0.000000   0.000000   0.000004  -0.000000  -0.000080
    27  H    0.006550  -0.000550   0.000033  -0.069297   0.002007  -0.000009
               7          8          9         10         11         12
     1  O    0.000002  -0.000000  -0.000000  -0.000000  -0.000000   0.000000
     2  N   -0.000111   0.000002  -0.000010   0.000000  -0.000000   0.000001
     3  O    0.000001  -0.000000  -0.000000   0.000000  -0.000000  -0.000000
     4  C    0.005443  -0.000297   0.000503  -0.000040  -0.000017  -0.000297
     5  C   -0.029818   0.003910  -0.000323   0.000002   0.000009  -0.000135
     6  N    0.197641  -0.046622  -0.062690   0.003880  -0.000163   0.003764
     7  C    5.036674   0.414002   0.354215  -0.054703  -0.009396  -0.063318
     8  H    0.414002   0.530258  -0.051797   0.000165  -0.000099  -0.001411
     9  C    0.354215  -0.051797   5.159755   0.326045  -0.051207  -0.004673
    10  C   -0.054703   0.000165   0.326045   5.116014   0.337706  -0.060649
    11  C   -0.009396  -0.000099  -0.051207   0.337706   5.121390   0.334897
    12  C   -0.063318  -0.001411  -0.004673  -0.060649   0.334897   5.122006
    13  C    0.325662  -0.036132  -0.061486   0.000212  -0.048727   0.371868
    14  H   -0.042995  -0.001058   0.004110  -0.000392   0.004167  -0.037350
    15  N   -0.062098   0.004083  -0.016044   0.001229  -0.013659  -0.084003
    16  C   -0.000680  -0.000082  -0.000687  -0.000089  -0.000008   0.001982
    17  H    0.001676  -0.000042  -0.000049   0.000001  -0.000000   0.000001
    18  H   -0.026827  -0.004847   0.001089  -0.000087   0.000006  -0.000126
    19  H   -0.036515   0.004147   0.391962  -0.032363  -0.002023   0.000745
    20  H   -0.044053  -0.002474   0.398772  -0.034290   0.003918  -0.000476
    21  H    0.004610  -0.000081  -0.036404   0.402322  -0.034865   0.004349
    22  H   -0.004688   0.003458  -0.047150   0.397706  -0.045135  -0.000898
    23  H    0.000736   0.000025  -0.002046  -0.039094   0.398741  -0.037902
    24  H   -0.000149  -0.000094   0.004421  -0.038479   0.402457  -0.038459
    25  H    0.005222  -0.000066  -0.000401   0.004147  -0.033388   0.397073
    26  H   -0.003162   0.001562   0.000944  -0.002117  -0.041682   0.396461
    27  H   -0.000420   0.000008  -0.000046   0.000005   0.000019  -0.000021
              13         14         15         16         17         18
     1  O   -0.000013   0.000000   0.000567   0.000403   0.000214   0.000001
     2  N    0.000027  -0.000054   0.002229  -0.024457  -0.006598  -0.000056
     3  O   -0.000001   0.000001  -0.000015   0.002583   0.016796   0.000015
     4  C   -0.005926   0.001491  -0.066927   0.314978  -0.024305   0.002702
     5  C   -0.002354   0.003051  -0.006407  -0.050979   0.376713  -0.034398
     6  N   -0.062256  -0.005744   0.000951   0.000386  -0.033175   0.338649
     7  C    0.325662  -0.042995  -0.062098  -0.000680   0.001676  -0.026827
     8  H   -0.036132  -0.001058   0.004083  -0.000082  -0.000042  -0.004847
     9  C   -0.061486   0.004110  -0.016044  -0.000687  -0.000049   0.001089
    10  C    0.000212  -0.000392   0.001229  -0.000089   0.000001  -0.000087
    11  C   -0.048727   0.004167  -0.013659  -0.000008  -0.000000   0.000006
    12  C    0.371868  -0.037350  -0.084003   0.001982   0.000001  -0.000126
    13  C    5.032488   0.408283   0.241485  -0.063445  -0.000130   0.004234
    14  H    0.408283   0.510265  -0.034184  -0.004299   0.000027  -0.000054
    15  N    0.241485  -0.034184   6.995976   0.585677  -0.000029  -0.000164
    16  C   -0.063445  -0.004299   0.585677   4.705325   0.001908  -0.000223
    17  H   -0.000130   0.000027  -0.000029   0.001908   0.377014  -0.004014
    18  H    0.004234  -0.000054  -0.000164  -0.000223  -0.004014   0.326698
    19  H   -0.007656   0.000059   0.007064   0.002551   0.000023  -0.000153
    20  H    0.004563  -0.000062   0.000162  -0.000061  -0.000023   0.001402
    21  H   -0.000450   0.000010  -0.000060   0.000005  -0.000000   0.000001
    22  H   -0.000124  -0.000053   0.000038  -0.000001   0.000000   0.000003
    23  H   -0.007928  -0.000008   0.009066   0.000160   0.000000   0.000000
    24  H    0.004672  -0.000058   0.000133   0.000007   0.000000  -0.000000
    25  H   -0.035124  -0.002682   0.001039  -0.000061  -0.000000   0.000003
    26  H   -0.048336  -0.001018   0.005081  -0.000017   0.000000   0.000000
    27  H    0.004544  -0.000157  -0.042208   0.409203  -0.000077   0.000001
              19         20         21         22         23         24
     1  O    0.000001   0.000000  -0.000000  -0.000000   0.000000   0.000000
     2  N   -0.000014   0.000000  -0.000000   0.000000  -0.000000   0.000000
     3  O    0.000000   0.000000  -0.000000  -0.000000   0.000000   0.000000
     4  C   -0.001469  -0.000012   0.000002  -0.000001   0.000045  -0.000000
     5  C    0.002377  -0.000137   0.000000  -0.000001  -0.000001  -0.000000
     6  N   -0.001549   0.000417  -0.000082  -0.000095  -0.000029   0.000006
     7  C   -0.036515  -0.044053   0.004610  -0.004688   0.000736  -0.000149
     8  H    0.004147  -0.002474  -0.000081   0.003458   0.000025  -0.000094
     9  C    0.391962   0.398772  -0.036404  -0.047150  -0.002046   0.004421
    10  C   -0.032363  -0.034290   0.402322   0.397706  -0.039094  -0.038479
    11  C   -0.002023   0.003918  -0.034865  -0.045135   0.398741   0.402457
    12  C    0.000745  -0.000476   0.004349  -0.000898  -0.037902  -0.038459
    13  C   -0.007656   0.004563  -0.000450  -0.000124  -0.007928   0.004672
    14  H    0.000059  -0.000062   0.000010  -0.000053  -0.000008  -0.000058
    15  N    0.007064   0.000162  -0.000060   0.000038   0.009066   0.000133
    16  C    0.002551  -0.000061   0.000005  -0.000001   0.000160   0.000007
    17  H    0.000023  -0.000023  -0.000000   0.000000   0.000000   0.000000
    18  H   -0.000153   0.001402   0.000001   0.000003   0.000000  -0.000000
    19  H    0.504741  -0.025462  -0.002807   0.003984   0.001516  -0.000071
    20  H   -0.025462   0.543508  -0.002739  -0.003038  -0.000041  -0.000083
    21  H   -0.002807  -0.002739   0.523514  -0.027389  -0.002916  -0.002244
    22  H    0.003984  -0.003038  -0.027389   0.570103   0.004144  -0.003651
    23  H    0.001516  -0.000041  -0.002916   0.004144   0.499792  -0.025504
    24  H   -0.000071  -0.000083  -0.002244  -0.003651  -0.025504   0.537440
    25  H   -0.000031   0.000012  -0.000085  -0.000082  -0.002311  -0.002256
    26  H    0.000023  -0.000028  -0.000082   0.002363   0.004098  -0.003068
    27  H    0.000074  -0.000000  -0.000000   0.000000  -0.000045  -0.000000
              25         26         27
     1  O    0.000000   0.000000   0.006550
     2  N   -0.000000  -0.000000  -0.000550
     3  O    0.000000   0.000000   0.000033
     4  C    0.000031   0.000004  -0.069297
     5  C   -0.000003  -0.000000   0.002007
     6  N   -0.000089  -0.000080  -0.000009
     7  C    0.005222  -0.003162  -0.000420
     8  H   -0.000066   0.001562   0.000008
     9  C   -0.000401   0.000944  -0.000046
    10  C    0.004147  -0.002117   0.000005
    11  C   -0.033388  -0.041682   0.000019
    12  C    0.397073   0.396461  -0.000021
    13  C   -0.035124  -0.048336   0.004544
    14  H   -0.002682  -0.001018  -0.000157
    15  N    0.001039   0.005081  -0.042208
    16  C   -0.000061  -0.000017   0.409203
    17  H   -0.000000   0.000000  -0.000077
    18  H    0.000003   0.000000   0.000001
    19  H   -0.000031   0.000023   0.000074
    20  H    0.000012  -0.000028  -0.000000
    21  H   -0.000085  -0.000082  -0.000000
    22  H   -0.000082   0.002363   0.000000
    23  H   -0.002311   0.004098  -0.000045
    24  H   -0.002256  -0.003068  -0.000000
    25  H    0.506772  -0.023940  -0.000021
    26  H   -0.023940   0.563172   0.000001
    27  H   -0.000021   0.000001   0.439247
 Mulliken charges:
               1
     1  O   -0.466438
     2  N    0.494105
     3  O   -0.502057
     4  C    0.011712
     5  C    0.171031
     6  N   -0.755154
     7  C    0.033045
     8  H    0.183481
     9  C   -0.306802
    10  C   -0.327131
    11  C   -0.322941
    12  C   -0.303429
    13  C   -0.017949
    14  H    0.198704
    15  N   -0.528981
    16  C    0.119921
    17  H    0.294069
    18  H    0.396147
    19  H    0.190844
    20  H    0.160225
    21  H    0.175391
    22  H    0.150506
    23  H    0.199502
    24  H    0.164980
    25  H    0.186240
    26  H    0.149820
    27  H    0.251161
 Sum of Mulliken charges =  -0.00000
 Mulliken charges with hydrogens summed into heavy atoms:
               1
     1  O   -0.466438
     2  N    0.494105
     3  O   -0.502057
     4  C    0.011712
     5  C    0.465100
     6  N   -0.359007
     7  C    0.216526
     9  C    0.044267
    10  C   -0.001234
    11  C    0.041541
    12  C    0.032630
    13  C    0.180755
    15  N   -0.528981
    16  C    0.371082
 Electronic spatial extent (au):  <R**2>=           2992.5273
 Charge=              0.0000 electrons
 Dipole moment (field-independent basis, Debye):
    X=              5.4367    Y=              4.5286    Z=              1.4846  Tot=              7.2298
 Quadrupole moment (field-independent basis, Debye-Ang):
   XX=           -105.2276   YY=            -79.1099   ZZ=            -82.2815
   XY=             -0.8552   XZ=             -2.6942   YZ=              1.3160
 Traceless Quadrupole moment (field-independent basis, Debye-Ang):
   XX=            -16.3546   YY=              9.7631   ZZ=              6.5915
   XY=             -0.8552   XZ=             -2.6942   YZ=              1.3160
 Octapole moment (field-independent basis, Debye-Ang**2):
  XXX=             87.4499  YYY=             32.2747  ZZZ=              1.0411  XYY=             -5.1695
  XXY=              6.1833  XXZ=             18.1725  XZZ=             -7.1189  YZZ=             -1.2423
  YYZ=              7.8129  XYZ=              0.7263
 Hexadecapole moment (field-independent basis, Debye-Ang**3):
 XXXX=          -3309.6519 YYYY=           -599.6231 ZZZZ=           -332.6202 XXXY=              7.0080
 XXXZ=           -121.0167 YYYX=             11.9914 YYYZ=             24.7524 ZZZX=            -55.2126
 ZZZY=              5.5569 XXYY=           -619.8954 XXZZ=           -530.0202 YYZZ=           -164.3705
 XXYZ=              0.3443 YYXZ=            -19.9851 ZZXY=              9.6166
 N-N= 9.311862448019D+02 E-N=-3.409090753659D+03  KE= 6.596209333314D+02
 Unable to Open any file for archive entry.
 1\1\GINC-LOTUS\FOpt\RMP2-FC\6-31G(d)\C9H13N3O2\ALEXEY\01-Jul-2023\0\\#
 MP2/6-31G* SCF=Tight Opt=(ModRedun, MaxCycle=20 ) NoSymm\\MolName:\\0,
 1\O,-3.5076513386,-1.3243633644,-0.5774804352\N,-3.0973399375,-0.16912
 48349,-0.3540980421\O,-3.8301976221,0.8383905062,-0.3807869333\C,-1.68
 52674947,-0.0150829554,-0.0351953967\C,-1.2777969525,1.2701657202,0.21
 16139611\N,-0.06574335,1.6755661088,0.6399731191\C,1.2270731712,1.0132
 838305,0.4813551722\H,1.9059688329,1.5676569644,1.1448227977\C,1.80475
 43895,1.0383331639,-0.9293206283\C,3.2153968016,0.437969415,-0.8919544
 514\C,3.2327027369,-0.9628982157,-0.2732523292\C,2.5573801819,-0.99347
 03097,1.0996796975\C,1.1350170801,-0.4365596532,0.9962433758\H,0.63360
 05055,-0.4352483002,1.9730918637\N,0.413300057,-1.3053567671,0.0679272
 971\C,-0.8488535629,-1.1919172685,-0.187212036\H,-2.0457290577,2.03831
 59482,0.2052559369\H,0.0041998255,2.6826949607,0.7495142349\H,1.152806
 6295,0.4613025316,-1.594264487\H,1.8325684748,2.0689984702,-1.30518045
 82\H,3.6323818693,0.4094970935,-1.9051834365\H,3.8643734127,1.10447288
 65,-0.3062353024\H,2.7001059888,-1.6584754029,-0.9297553529\H,4.266364
 0073,-1.3192537402,-0.1918288448\H,2.5088945282,-2.0207435194,1.475396
 6526\H,3.1316465441,-0.4025636312,1.826910779\H,-1.2989557208,-2.00858
 96368,-0.7520067536\\Version=ES64L-G16RevC.02\HF=-661.2932656\MP2=-663
 .3285064\RMSD=6.611e-09\RMSF=4.411e-03\Dipole=1.9794665,1.5867456,0.54
 19022\PG=C01 [X(C9H13N3O2)]\\@
 The archive entry for this job was punched.


 The theorems and results in mathematical physics are
 not theorems and results about Nature, but about our
 description of it.
                   --Gerard 't Hooft
 Job cpu time:       0 days  1 hours 19 minutes 31.1 seconds.
 Elapsed time:       0 days  0 hours 23 minutes 52.4 seconds.
 File lengths (MBytes):  RWF=     36 Int=      0 D2E=      0 Chk=      7 Scr=      1
 Normal termination of Gaussian 16 at Sat Jul  1 03:42:51 2023.
